Merged slit + ring-check filtered guest
70686
    1OM     OM1    1   3.802   2.983   0.273  0.0000  0.0000  0.0000
    2OM     OM1    2   3.885   2.800   0.429  0.0000  0.0000  0.0000
    3OM     OM1    3   3.694   2.956   0.513  0.0000  0.0000  0.0000
    4OM     OM1    4   3.932   3.054   0.492  0.0000  0.0000  0.0000
    5OM     OM1    5   3.604   6.494   1.241  0.0000  0.0000  0.0000
    6OM     OM1    6   3.832   6.426   1.330  0.0000  0.0000  0.0000
    7OM     OM1    7   5.982   5.574   8.850  0.0000  0.0000  0.0000
    8OM     OM1    8   6.188   5.415   8.854  0.0000  0.0000  0.0000
    9OM     OM1    9   6.213   5.678   8.872  0.0000  0.0000  0.0000
   10OM     OM1   10   6.104   5.556   9.071  0.0000  0.0000  0.0000
   11OM     OM1   11   5.061   3.626   1.221  0.0000  0.0000  0.0000
   12OM     OM1   12   4.864   3.595   1.054  0.0000  0.0000  0.0000
   13OM     OM1   13   4.915   3.832   1.153  0.0000  0.0000  0.0000
   14OM     OM1   14   8.973   4.194   9.431  0.0000  0.0000  0.0000
   15OM     OM1   15   8.921   3.940   9.354  0.0000  0.0000  0.0000
   16OM     OM1   16   8.731   4.104   9.402  0.0000  0.0000  0.0000
   17OM     OM1   17   8.879   4.148   9.197  0.0000  0.0000  0.0000
   18OM     OM1   18   5.240   9.191   1.209  0.0000  0.0000  0.0000
   19OM     OM1   19   0.775   5.026   1.423  0.0000  0.0000  0.0000
   20OM     OM1   20   0.623   4.880   1.272  0.0000  0.0000  0.0000
   21OM     OM1   21   0.800   4.763   1.408  0.0000  0.0000  0.0000
   22OM     OM1   22   5.851   6.763   1.103  0.0000  0.0000  0.0000
   23OM     OM1   23   5.642   6.899   1.136  0.0000  0.0000  0.0000
   24OM     OM1   24   5.807   6.891   1.325  0.0000  0.0000  0.0000
   25OM     OM1   25   5.860   7.028   1.094  0.0000  0.0000  0.0000
   26OM     OM1   26   1.676   0.657   0.783  0.0000  0.0000  0.0000
   27OM     OM1   27   1.736   0.820   0.585  0.0000  0.0000  0.0000
   28OM     OM1   28   1.540   0.882   0.746  0.0000  0.0000  0.0000
   29OM     OM1   29   1.780   0.879   0.845  0.0000  0.0000  0.0000
   30OM     OM1   30   7.849   5.850   8.421  0.0000  0.0000  0.0000
   31OM     OM1   31   7.985   6.014   8.263  0.0000  0.0000  0.0000
   32OM     OM1   32   8.098   5.912   8.471  0.0000  0.0000  0.0000
   33OM     OM1   33   8.628   6.176   0.217  0.0000  0.0000  0.0000
   34OM     OM1   34   8.779   6.098   0.411  0.0000  0.0000  0.0000
   35OM     OM1   35   8.879   6.157   0.168  0.0000  0.0000  0.0000
   36OM     OM1   36   8.789   6.343   0.336  0.0000  0.0000  0.0000
   37OM     OM1   37   3.322   6.641   9.495  0.0000  0.0000  0.0000
   38OM     OM1   38   3.547   6.744   9.443  0.0000  0.0000  0.0000
   39OM     OM1   39   3.343   6.889   9.543  0.0000  0.0000  0.0000
   40OM     OM1   40   3.363   6.841   9.296  0.0000  0.0000  0.0000
   41OM     OM1   41   1.367   3.048   9.419  0.0000  0.0000  0.0000
   42OM     OM1   42   1.338   2.942   0.050  0.0000  0.0000  0.0000
   43OM     OM1   43   1.158   3.115   9.552  0.0000  0.0000  0.0000
   44OM     OM1   44   1.394   3.195   0.029  0.0000  0.0000  0.0000
   45OM     OM1   45   8.070   0.953   8.354  0.0000  0.0000  0.0000
   46OM     OM1   46   7.824   0.977   8.403  0.0000  0.0000  0.0000
   47OM     OM1   47   7.945   1.199   8.390  0.0000  0.0000  0.0000
   48OM     OM1   48   8.003   1.037   8.588  0.0000  0.0000  0.0000
   49OM     OM1   49   1.547   8.029   9.196  0.0000  0.0000  0.0000
   50OM     OM1   50   1.334   8.153   9.246  0.0000  0.0000  0.0000
   51OM     OM1   51   1.366   8.058   9.004  0.0000  0.0000  0.0000
   52OM     OM1   52   1.521   8.256   9.074  0.0000  0.0000  0.0000
   53OM     OM1   53   7.057   6.501   8.859  0.0000  0.0000  0.0000
   54OM     OM1   54   6.858   6.394   8.726  0.0000  0.0000  0.0000
   55OM     OM1   55   7.019   6.571   8.608  0.0000  0.0000  0.0000
   56OM     OM1   56   6.844   6.643   8.788  0.0000  0.0000  0.0000
   57OM     OM1   57   3.872   1.024   0.005  0.0000  0.0000  0.0000
   58OM     OM1   58   3.860   1.011   0.266  0.0000  0.0000  0.0000
   59OM     OM1   59   3.972   1.210   0.139  0.0000  0.0000  0.0000
   60OM     OM1   60   3.714   1.197   0.148  0.0000  0.0000  0.0000
   61OM     OM1   61   1.819   1.420   8.277  0.0000  0.0000  0.0000
   62OM     OM1   62   1.904   1.546   8.489  0.0000  0.0000  0.0000
   63OM     OM1   63   1.774   1.339   8.524  0.0000  0.0000  0.0000
   64OM     OM1   64   1.641   1.538   8.424  0.0000  0.0000  0.0000
   65OM     OM1   65   1.223   3.136   8.350  0.0000  0.0000  0.0000
   66OM     OM1   66   1.481   3.129   8.265  0.0000  0.0000  0.0000
   67OM     OM1   67   1.416   3.199   8.505  0.0000  0.0000  0.0000
   68OM     OM1   68   0.971   2.326   1.307  0.0000  0.0000  0.0000
   69OM     OM1   69   0.716   2.352   1.363  0.0000  0.0000  0.0000
   70OM     OM1   70   4.139   4.598   0.306  0.0000  0.0000  0.0000
   71OM     OM1   71   4.191   4.691   0.052  0.0000  0.0000  0.0000
   72OM     OM1   72   3.991   4.544   0.084  0.0000  0.0000  0.0000
   73OM     OM1   73   4.234   4.449   0.122  0.0000  0.0000  0.0000
   74OM     OM1   74   4.776   0.132   1.192  0.0000  0.0000  0.0000
   75OM     OM1   75   4.949   9.547   1.238  0.0000  0.0000  0.0000
   76OM     OM1   76   4.835   9.573   0.998  0.0000  0.0000  0.0000
   77OM     OM1   77   4.702   9.489   1.216  0.0000  0.0000  0.0000
   78OM     OM1   78   3.653   3.941   8.624  0.0000  0.0000  0.0000
   79OM     OM1   79   3.551   4.179   8.622  0.0000  0.0000  0.0000
   80OM     OM1   80   3.785   4.156   8.699  0.0000  0.0000  0.0000
   81OM     OM1   81   3.608   4.054   8.858  0.0000  0.0000  0.0000
   82OM     OM1   82   3.015   0.836   0.738  0.0000  0.0000  0.0000
   83OM     OM1   83   2.765   0.901   0.710  0.0000  0.0000  0.0000
   84OM     OM1   84   2.904   1.014   0.903  0.0000  0.0000  0.0000
   85OM     OM1   85   2.942   1.075   0.656  0.0000  0.0000  0.0000
   86OM     OM1   86   5.584   1.997   0.276  0.0000  0.0000  0.0000
   87OM     OM1   87   5.938   1.806   0.549  0.0000  0.0000  0.0000
   88OM     OM1   88   5.810   1.991   0.406  0.0000  0.0000  0.0000
   89OM     OM1   89   6.031   1.875   0.314  0.0000  0.0000  0.0000
   90OM     OM1   90   8.893   3.879   1.299  0.0000  0.0000  0.0000
   91OM     OM1   91   8.870   4.125   1.214  0.0000  0.0000  0.0000
   92OM     OM1   92   8.667   4.015   1.336  0.0000  0.0000  0.0000
   93OM     OM1   93   0.226   1.506   9.077  0.0000  0.0000  0.0000
   94OM     OM1   94   0.354   1.605   9.290  0.0000  0.0000  0.0000
   95OM     OM1   95   0.462   1.420   9.150  0.0000  0.0000  0.0000
   96OM     OM1   96   0.250   1.361   9.280  0.0000  0.0000  0.0000
   97OM     OM1   97   5.872   1.390   9.564  0.0000  0.0000  0.0000
   98OM     OM1   98   5.679   1.502   9.419  0.0000  0.0000  0.0000
   99OM     OM1   99   5.830   1.332   9.303  0.0000  0.0000  0.0000
  100OM     OM1  100   5.661   1.256   9.491  0.0000  0.0000  0.0000
  101OM     OM1  101   0.572   3.154   0.300  0.0000  0.0000  0.0000
  102OM     OM1  102   0.338   3.258   0.305  0.0000  0.0000  0.0000
  103OM     OM1  103   0.403   3.094   0.112  0.0000  0.0000  0.0000
  104OM     OM1  104   0.373   2.995   0.358  0.0000  0.0000  0.0000
  105OM     OM1  105   0.400   2.090   0.499  0.0000  0.0000  0.0000
  106OM     OM1  106   0.563   2.271   0.399  0.0000  0.0000  0.0000
  107OM     OM1  107   0.590   2.193   0.647  0.0000  0.0000  0.0000
  108OM     OM1  108   0.646   2.025   0.452  0.0000  0.0000  0.0000
  109OM     OM1  109   7.637   5.051   0.471  0.0000  0.0000  0.0000
  110OM     OM1  110   7.650   5.169   0.244  0.0000  0.0000  0.0000
  111OM     OM1  111   7.488   5.263   0.420  0.0000  0.0000  0.0000
  112OM     OM1  112   7.429   5.034   0.309  0.0000  0.0000  0.0000
  113OM     OM1  113   9.540   0.195   9.184  0.0000  0.0000  0.0000
  114OM     OM1  114   9.300   0.234   9.254  0.0000  0.0000  0.0000
  115OM     OM1  115   9.455   0.150   9.441  0.0000  0.0000  0.0000
  116OM     OM1  116   9.400   9.594   9.246  0.0000  0.0000  0.0000
  117OM     OM1  117   4.084   2.263   9.557  0.0000  0.0000  0.0000
  118OM     OM1  118   3.867   2.369   9.432  0.0000  0.0000  0.0000
  119OM     OM1  119   4.106   2.462   9.419  0.0000  0.0000  0.0000
  120OM     OM1  120   3.968   2.477   0.045  0.0000  0.0000  0.0000
  121OM     OM1  121   1.115   2.547   1.307  0.0000  0.0000  0.0000
  122OM     OM1  122   1.181   2.799   1.336  0.0000  0.0000  0.0000
  123OM     OM1  123   0.591   6.835   8.355  0.0000  0.0000  0.0000
  124OM     OM1  124   0.524   7.077   8.419  0.0000  0.0000  0.0000
  125OM     OM1  125   0.355   6.951   8.286  0.0000  0.0000  0.0000
  126OM     OM1  126   5.383   5.213   8.952  0.0000  0.0000  0.0000
  127OM     OM1  127   5.584   5.105   9.076  0.0000  0.0000  0.0000
  128OM     OM1  128   5.379   5.207   9.211  0.0000  0.0000  0.0000
  129OM     OM1  129   5.349   4.987   9.069  0.0000  0.0000  0.0000
  130OM     OM1  130   6.070   8.666   9.246  0.0000  0.0000  0.0000
  131OM     OM1  131   5.954   8.843   9.091  0.0000  0.0000  0.0000
  132OM     OM1  132   6.145   8.700   8.991  0.0000  0.0000  0.0000
  133OM     OM1  133   5.913   8.589   9.054  0.0000  0.0000  0.0000
  134OM     OM1  134   5.833   5.151   9.161  0.0000  0.0000  0.0000
  135OM     OM1  135   5.779   4.919   9.074  0.0000  0.0000  0.0000
  136OM     OM1  136   5.664   5.001   9.292  0.0000  0.0000  0.0000
  137OM     OM1  137   1.291   5.071   1.262  0.0000  0.0000  0.0000
  138OM     OM1  138   1.526   5.031   1.183  0.0000  0.0000  0.0000
  139OM     OM1  139   1.430   5.275   1.167  0.0000  0.0000  0.0000
  140OM     OM1  140   0.504   3.714   8.704  0.0000  0.0000  0.0000
  141OM     OM1  141   0.580   3.962   8.751  0.0000  0.0000  0.0000
  142OM     OM1  142   0.546   3.897   8.511  0.0000  0.0000  0.0000
  143OM     OM1  143   0.745   3.786   8.641  0.0000  0.0000  0.0000
  144OM     OM1  144   6.183   2.314   8.600  0.0000  0.0000  0.0000
  145OM     OM1  145   6.079   2.282   8.362  0.0000  0.0000  0.0000
  146OM     OM1  146   6.272   2.121   8.455  0.0000  0.0000  0.0000
  147OM     OM1  147   6.314   2.367   8.368  0.0000  0.0000  0.0000
  148OM     OM1  148   2.487   3.401   0.628  0.0000  0.0000  0.0000
  149OM     OM1  149   2.182   3.435   0.300  0.0000  0.0000  0.0000
  150OM     OM1  150   2.437   3.449   0.365  0.0000  0.0000  0.0000
  151OM     OM1  151   2.363   3.449   0.112  0.0000  0.0000  0.0000
  152OM     OM1  152   7.793   1.409   0.247  0.0000  0.0000  0.0000
  153OM     OM1  153   7.579   1.487   0.155  0.0000  0.0000  0.0000
  154OM     OM1  154   7.721   1.677   0.262  0.0000  0.0000  0.0000
  155OM     OM1  155   7.624   1.504   0.421  0.0000  0.0000  0.0000
  156OM     OM1  156   9.081   4.290   0.029  0.0000  0.0000  0.0000
  157OM     OM1  157   8.916   4.442   9.516  0.0000  0.0000  0.0000
  158OM     OM1  158   9.133   4.383   9.373  0.0000  0.0000  0.0000
  159OM     OM1  159   4.999   2.474   9.019  0.0000  0.0000  0.0000
  160OM     OM1  160   5.001   2.950   8.799  0.0000  0.0000  0.0000
  161OM     OM1  161   5.065   2.696   8.732  0.0000  0.0000  0.0000
  162OM     OM1  162   5.088   2.775   8.977  0.0000  0.0000  0.0000
  163OM     OM1  163   8.202   7.601   0.579  0.0000  0.0000  0.0000
  164OM     OM1  164   8.168   7.350   0.675  0.0000  0.0000  0.0000
  165OM     OM1  165   8.288   7.537   0.813  0.0000  0.0000  0.0000
  166OM     OM1  166   8.029   7.547   0.768  0.0000  0.0000  0.0000
  167OM     OM1  167   1.535   1.299   8.604  0.0000  0.0000  0.0000
  168OM     OM1  168   1.692   1.115   8.472  0.0000  0.0000  0.0000
  169OM     OM1  169   1.727   1.164   8.724  0.0000  0.0000  0.0000
  170OM     OM1  170   0.812   1.844   0.542  0.0000  0.0000  0.0000
  171OM     OM1  171   0.784   1.928   0.786  0.0000  0.0000  0.0000
  172OM     OM1  172   0.803   1.677   0.745  0.0000  0.0000  0.0000
  173OM     OM1  173   1.018   1.841   0.708  0.0000  0.0000  0.0000
  174OM     OM1  174   5.931   0.035   1.027  0.0000  0.0000  0.0000
  175OM     OM1  175   5.814   0.254   1.055  0.0000  0.0000  0.0000
  176OM     OM1  176   5.943   0.196   0.826  0.0000  0.0000  0.0000
  177OM     OM1  177   5.715   0.094   0.876  0.0000  0.0000  0.0000
  178OM     OM1  178   4.793   7.092   1.352  0.0000  0.0000  0.0000
  179OM     OM1  179   4.697   7.267   1.188  0.0000  0.0000  0.0000
  180OM     OM1  180   5.520   6.370   1.090  0.0000  0.0000  0.0000
  181OM     OM1  181   5.299   6.238   1.040  0.0000  0.0000  0.0000
  182OM     OM1  182   5.532   6.199   0.903  0.0000  0.0000  0.0000
  183OM     OM1  183   5.383   6.406   0.867  0.0000  0.0000  0.0000
  184OM     OM1  184   5.559   3.438   0.585  0.0000  0.0000  0.0000
  185OM     OM1  185   5.398   3.320   0.410  0.0000  0.0000  0.0000
  186OM     OM1  186   5.655   3.329   0.377  0.0000  0.0000  0.0000
  187OM     OM1  187   5.540   3.178   0.566  0.0000  0.0000  0.0000
  188OM     OM1  188   7.310   6.443   0.301  0.0000  0.0000  0.0000
  189OM     OM1  189   7.319   6.705   0.283  0.0000  0.0000  0.0000
  190OM     OM1  190   7.362   6.556   0.076  0.0000  0.0000  0.0000
  191OM     OM1  191   7.119   6.571   0.177  0.0000  0.0000  0.0000
  192OM     OM1  192   6.363   2.511   1.248  0.0000  0.0000  0.0000
  193OM     OM1  193   8.654   0.792   0.467  0.0000  0.0000  0.0000
  194OM     OM1  194   8.924   0.776   0.521  0.0000  0.0000  0.0000
  195OM     OM1  195   8.759   0.929   0.648  0.0000  0.0000  0.0000
  196OM     OM1  196   8.761   0.664   0.677  0.0000  0.0000  0.0000
  197OM     OM1  197   7.182   3.343   9.016  0.0000  0.0000  0.0000
  198OM     OM1  198   7.149   3.388   9.272  0.0000  0.0000  0.0000
  199OM     OM1  199   7.361   3.476   9.150  0.0000  0.0000  0.0000
  200OM     OM1  200   7.122   3.583   9.112  0.0000  0.0000  0.0000
  201OM     OM1  201   3.453   3.847   0.779  0.0000  0.0000  0.0000
  202OM     OM1  202   3.345   3.705   0.973  0.0000  0.0000  0.0000
  203OM     OM1  203   3.502   3.602   0.803  0.0000  0.0000  0.0000
  204OM     OM1  204   3.484   3.585   1.156  0.0000  0.0000  0.0000
  205OM     OM1  205   2.434   2.307   1.305  0.0000  0.0000  0.0000
  206OM     OM1  206   2.383   2.604   0.889  0.0000  0.0000  0.0000
  207OM     OM1  207   2.369   2.480   1.117  0.0000  0.0000  0.0000
  208OM     OM1  208   2.573   2.642   1.061  0.0000  0.0000  0.0000
  209OM     OM1  209   3.466   8.084   0.332  0.0000  0.0000  0.0000
  210OM     OM1  210   3.399   7.844   0.242  0.0000  0.0000  0.0000
  211OM     OM1  211   3.243   7.974   0.415  0.0000  0.0000  0.0000
  212OM     OM1  212   3.475   7.861   0.478  0.0000  0.0000  0.0000
  213OM     OM1  213   7.074   5.181   9.401  0.0000  0.0000  0.0000
  214OM     OM1  214   7.293   5.119   9.531  0.0000  0.0000  0.0000
  215OM     OM1  215   7.447   5.070   9.326  0.0000  0.0000  0.0000
  216OM     OM1  216   7.391   4.877   9.492  0.0000  0.0000  0.0000
  217OM     OM1  217   7.914   1.375   8.574  0.0000  0.0000  0.0000
  218OM     OM1  218   8.078   1.571   8.549  0.0000  0.0000  0.0000
  219OM     OM1  219   8.139   1.384   8.711  0.0000  0.0000  0.0000
  220OM     OM1  220   7.936   1.545   8.771  0.0000  0.0000  0.0000
  221OM     OM1  221   8.608   8.977   8.261  0.0000  0.0000  0.0000
  222OM     OM1  222   8.515   9.220   8.363  0.0000  0.0000  0.0000
  223OM     OM1  223   8.483   8.987   8.482  0.0000  0.0000  0.0000
  224OM     OM1  224   6.421   3.457   0.066  0.0000  0.0000  0.0000
  225OM     OM1  225   6.335   3.241   9.548  0.0000  0.0000  0.0000
  226OM     OM1  226   6.219   3.324   0.153  0.0000  0.0000  0.0000
  227OM     OM1  227   6.188   3.452   9.537  0.0000  0.0000  0.0000
  228OM     OM1  228   7.103   0.391   0.759  0.0000  0.0000  0.0000
  229OM     OM1  229   6.987   0.530   0.950  0.0000  0.0000  0.0000
  230OM     OM1  230   7.119   0.648   0.757  0.0000  0.0000  0.0000
  231OM     OM1  231   6.886   0.540   0.715  0.0000  0.0000  0.0000
  232OM     OM1  232   7.489   5.682   1.217  0.0000  0.0000  0.0000
  233OM     OM1  233   7.334   5.473   1.246  0.0000  0.0000  0.0000
  234OM     OM1  234   7.230   5.710   1.184  0.0000  0.0000  0.0000
  235OM     OM1  235   6.350   0.966   0.439  0.0000  0.0000  0.0000
  236OM     OM1  236   6.448   0.804   0.618  0.0000  0.0000  0.0000
  237OM     OM1  237   6.218   0.764   0.506  0.0000  0.0000  0.0000
  238OM     OM1  238   6.239   0.954   0.685  0.0000  0.0000  0.0000
  239OM     OM1  239   3.460   1.191   8.257  0.0000  0.0000  0.0000
  240OM     OM1  240   3.515   1.357   8.454  0.0000  0.0000  0.0000
  241OM     OM1  241   3.699   1.255   8.305  0.0000  0.0000  0.0000
  242OM     OM1  242   2.805   1.571   8.416  0.0000  0.0000  0.0000
  243OM     OM1  243   2.576   1.454   8.447  0.0000  0.0000  0.0000
  244OM     OM1  244   2.795   1.312   8.454  0.0000  0.0000  0.0000
  245OM     OM1  245   9.522   1.010   1.457  0.0000  0.0000  0.0000
  246OM     OM1  246   8.748   5.838   9.171  0.0000  0.0000  0.0000
  247OM     OM1  247   8.506   5.953   9.138  0.0000  0.0000  0.0000
  248OM     OM1  248   8.673   5.953   8.947  0.0000  0.0000  0.0000
  249OM     OM1  249   8.727   6.096   9.156  0.0000  0.0000  0.0000
  250OM     OM1  250   8.103   4.849   0.978  0.0000  0.0000  0.0000
  251OM     OM1  251   8.139   5.174   1.023  0.0000  0.0000  0.0000
  252OM     OM1  252   8.034   5.183   0.784  0.0000  0.0000  0.0000
  253OM     OM1  253   8.241   5.035   0.844  0.0000  0.0000  0.0000
  254OM     OM1  254   8.497   1.884   1.180  0.0000  0.0000  0.0000
  255OM     OM1  255   8.442   1.632   1.226  0.0000  0.0000  0.0000
  256OM     OM1  256   6.318   1.387   8.936  0.0000  0.0000  0.0000
  257OM     OM1  257   6.251   1.549   9.131  0.0000  0.0000  0.0000
  258OM     OM1  258   6.487   1.569   9.019  0.0000  0.0000  0.0000
  259OM     OM1  259   6.265   1.627   8.882  0.0000  0.0000  0.0000
  260OM     OM1  260   9.027   6.910   8.352  0.0000  0.0000  0.0000
  261OM     OM1  261   9.212   6.856   8.545  0.0000  0.0000  0.0000
  262OM     OM1  262   9.197   6.711   8.331  0.0000  0.0000  0.0000
  263OM     OM1  263   9.274   6.966   8.319  0.0000  0.0000  0.0000
  264OM     OM1  264   7.966   2.439   9.251  0.0000  0.0000  0.0000
  265OM     OM1  265   8.083   2.641   9.147  0.0000  0.0000  0.0000
  266OM     OM1  266   8.068   2.629   9.405  0.0000  0.0000  0.0000
  267OM     OM1  267   7.854   2.681   9.260  0.0000  0.0000  0.0000
  268OM     OM1  268   9.315   5.962   9.321  0.0000  0.0000  0.0000
  269OM     OM1  269   9.338   6.186   9.194  0.0000  0.0000  0.0000
  270OM     OM1  270   9.196   6.001   9.087  0.0000  0.0000  0.0000
  271OM     OM1  271   9.113   6.131   9.308  0.0000  0.0000  0.0000
  272OM     OM1  272   8.542   2.762   8.373  0.0000  0.0000  0.0000
  273OM     OM1  273   8.608   2.559   8.538  0.0000  0.0000  0.0000
  274OM     OM1  274   8.795   2.697   8.399  0.0000  0.0000  0.0000
  275OM     OM1  275   5.282   3.521   0.706  0.0000  0.0000  0.0000
  276OM     OM1  276   5.337   3.631   0.941  0.0000  0.0000  0.0000
  277OM     OM1  277   5.302   3.781   0.729  0.0000  0.0000  0.0000
  278OM     OM1  278   5.516   3.628   0.753  0.0000  0.0000  0.0000
  279OM     OM1  279   7.720   1.105   9.196  0.0000  0.0000  0.0000
  280OM     OM1  280   7.510   1.240   9.157  0.0000  0.0000  0.0000
  281OM     OM1  281   7.661   1.165   8.941  0.0000  0.0000  0.0000
  282OM     OM1  282   7.742   1.344   9.105  0.0000  0.0000  0.0000
  283OM     OM1  283   6.948   3.590   1.229  0.0000  0.0000  0.0000
  284OM     OM1  284   7.036   3.361   1.134  0.0000  0.0000  0.0000
  285OM     OM1  285   7.193   3.533   1.255  0.0000  0.0000  0.0000
  286OM     OM1  286   6.850   5.966   0.512  0.0000  0.0000  0.0000
  287OM     OM1  287   6.841   6.152   0.679  0.0000  0.0000  0.0000
  288OM     OM1  288   7.072   6.103   0.569  0.0000  0.0000  0.0000
  289OM     OM1  289   6.895   6.204   0.413  0.0000  0.0000  0.0000
  290OM     OM1  290   8.891   7.514   9.452  0.0000  0.0000  0.0000
  291OM     OM1  291   8.816   7.476   9.199  0.0000  0.0000  0.0000
  292OM     OM1  292   8.666   7.599   9.378  0.0000  0.0000  0.0000
  293OM     OM1  293   8.842   7.344   0.046  0.0000  0.0000  0.0000
  294OM     OM1  294   3.010   1.617   9.529  0.0000  0.0000  0.0000
  295OM     OM1  295   3.034   1.546   0.181  0.0000  0.0000  0.0000
  296OM     OM1  296   3.102   1.390   9.585  0.0000  0.0000  0.0000
  297OM     OM1  297   3.156   1.285   9.355  0.0000  0.0000  0.0000
  298OM     OM1  298   1.457   4.417   0.196  0.0000  0.0000  0.0000
  299OM     OM1  299   1.677   4.320   0.304  0.0000  0.0000  0.0000
  300OM     OM1  300   1.630   4.280   0.051  0.0000  0.0000  0.0000
  301OM     OM1  301   1.501   4.152   0.227  0.0000  0.0000  0.0000
  302OM     OM1  302   2.396   4.040   0.187  0.0000  0.0000  0.0000
  303OM     OM1  303   2.217   3.891   0.287  0.0000  0.0000  0.0000
  304OM     OM1  304   2.144   4.126   0.215  0.0000  0.0000  0.0000
  305OM     OM1  305   2.312   4.118   0.409  0.0000  0.0000  0.0000
  306OM     OM1  306   3.314   1.915   1.263  0.0000  0.0000  0.0000
  307OM     OM1  307   3.355   1.737   1.057  0.0000  0.0000  0.0000
  308OM     OM1  308   3.122   1.830   1.129  0.0000  0.0000  0.0000
  309OM     OM1  309   3.253   1.661   1.282  0.0000  0.0000  0.0000
  310OM     OM1  310   5.579   0.015   9.194  0.0000  0.0000  0.0000
  311OM     OM1  311   5.637   0.035   9.443  0.0000  0.0000  0.0000
  312OM     OM1  312   5.457   0.192   9.328  0.0000  0.0000  0.0000
  313OM     OM1  313   5.718   0.221   9.288  0.0000  0.0000  0.0000
  314OM     OM1  314   9.450   6.834   8.208  0.0000  0.0000  0.0000
  315OM     OM1  315   9.508   6.981   8.423  0.0000  0.0000  0.0000
  316OM     OM1  316   1.151   1.212   0.877  0.0000  0.0000  0.0000
  317OM     OM1  317   1.169   1.410   0.716  0.0000  0.0000  0.0000
  318OM     OM1  318   0.970   1.241   0.699  0.0000  0.0000  0.0000
  319OM     OM1  319   0.976   1.402   0.906  0.0000  0.0000  0.0000
  320OM     OM1  320   0.805   8.696   1.249  0.0000  0.0000  0.0000
  321OM     OM1  321   6.755   6.188   0.198  0.0000  0.0000  0.0000
  322OM     OM1  322   6.939   6.380   0.217  0.0000  0.0000  0.0000
  323OM     OM1  323   7.014   6.129   0.206  0.0000  0.0000  0.0000
  324OM     OM1  324   6.038   5.656   9.596  0.0000  0.0000  0.0000
  325OM     OM1  325   5.942   5.461   9.467  0.0000  0.0000  0.0000
  326OM     OM1  326   6.090   5.411   0.078  0.0000  0.0000  0.0000
  327OM     OM1  327   5.838   5.500   0.088  0.0000  0.0000  0.0000
  328OM     OM1  328   4.270   7.350   8.861  0.0000  0.0000  0.0000
  329OM     OM1  329   4.196   7.276   9.102  0.0000  0.0000  0.0000
  330OM     OM1  330   4.026   7.402   8.925  0.0000  0.0000  0.0000
  331OM     OM1  331   4.114   7.159   8.887  0.0000  0.0000  0.0000
  332OM     OM1  332   4.050   8.987   0.071  0.0000  0.0000  0.0000
  333OM     OM1  333   4.081   8.835   0.283  0.0000  0.0000  0.0000
  334OM     OM1  334   4.201   8.782   0.047  0.0000  0.0000  0.0000
  335OM     OM1  335   4.277   8.985   0.194  0.0000  0.0000  0.0000
  336OM     OM1  336   0.183   4.704   9.372  0.0000  0.0000  0.0000
  337OM     OM1  337   0.029   4.798   9.554  0.0000  0.0000  0.0000
  338OM     OM1  338   0.024   4.782   9.044  0.0000  0.0000  0.0000
  339OM     OM1  339   0.080   4.950   9.346  0.0000  0.0000  0.0000
  340OM     OM1  340   8.753   2.714   9.384  0.0000  0.0000  0.0000
  341OM     OM1  341   8.912   2.897   9.280  0.0000  0.0000  0.0000
  342OM     OM1  342   9.011   2.685   9.382  0.0000  0.0000  0.0000
  343OM     OM1  343   8.883   2.651   9.162  0.0000  0.0000  0.0000
  344OM     OM1  344   0.052   7.166   9.156  0.0000  0.0000  0.0000
  345OM     OM1  345   0.072   7.054   8.919  0.0000  0.0000  0.0000
  346OM     OM1  346   9.529   7.263   8.951  0.0000  0.0000  0.0000
  347OM     OM1  347   0.189   7.281   8.960  0.0000  0.0000  0.0000
  348OM     OM1  348   4.227   2.120   8.336  0.0000  0.0000  0.0000
  349OM     OM1  349   4.280   1.944   8.519  0.0000  0.0000  0.0000
  350OM     OM1  350   4.426   1.959   8.313  0.0000  0.0000  0.0000
  351OM     OM1  351   4.664   1.967   8.424  0.0000  0.0000  0.0000
  352OM     OM1  352   7.338   3.139   0.703  0.0000  0.0000  0.0000
  353OM     OM1  353   7.206   3.336   0.582  0.0000  0.0000  0.0000
  354OM     OM1  354   7.408   3.394   0.728  0.0000  0.0000  0.0000
  355OM     OM1  355   7.449   3.255   0.506  0.0000  0.0000  0.0000
  356OM     OM1  356   9.117   0.694   1.174  0.0000  0.0000  0.0000
  357OM     OM1  357   9.370   0.648   1.265  0.0000  0.0000  0.0000
  358OM     OM1  358   9.328   0.618   1.019  0.0000  0.0000  0.0000
  359OM     OM1  359   9.202   0.462   1.183  0.0000  0.0000  0.0000
  360OM     OM1  360   4.166   5.054   0.260  0.0000  0.0000  0.0000
  361OM     OM1  361   4.417   5.143   0.271  0.0000  0.0000  0.0000
  362OM     OM1  362   4.346   4.980   0.082  0.0000  0.0000  0.0000
  363OM     OM1  363   4.259   5.229   0.091  0.0000  0.0000  0.0000
  364OM     OM1  364   8.231   8.459   0.799  0.0000  0.0000  0.0000
  365OM     OM1  365   8.412   8.582   0.934  0.0000  0.0000  0.0000
  366OM     OM1  366   8.255   8.728   0.780  0.0000  0.0000  0.0000
  367OM     OM1  367   8.421   8.578   0.668  0.0000  0.0000  0.0000
  368OM     OM1  368   5.497   4.634   8.592  0.0000  0.0000  0.0000
  369OM     OM1  369   5.572   4.408   8.492  0.0000  0.0000  0.0000
  370OM     OM1  370   5.312   4.465   8.513  0.0000  0.0000  0.0000
  371OM     OM1  371   8.915   7.695   8.571  0.0000  0.0000  0.0000
  372OM     OM1  372   9.087   7.514   8.509  0.0000  0.0000  0.0000
  373OM     OM1  373   9.154   7.685   8.685  0.0000  0.0000  0.0000
  374OM     OM1  374   9.324   7.490   8.397  0.0000  0.0000  0.0000
  375OM     OM1  375   4.600   8.953   8.755  0.0000  0.0000  0.0000
  376OM     OM1  376   4.695   8.708   8.692  0.0000  0.0000  0.0000
  377OM     OM1  377   4.318   8.889   8.518  0.0000  0.0000  0.0000
  378OM     OM1  378   4.448   8.748   8.695  0.0000  0.0000  0.0000
  379OM     OM1  379   1.308   6.287   0.119  0.0000  0.0000  0.0000
  380OM     OM1  380   1.368   6.538   0.062  0.0000  0.0000  0.0000
  381OM     OM1  381   1.297   6.441   0.312  0.0000  0.0000  0.0000
  382OM     OM1  382   1.527   6.394   0.206  0.0000  0.0000  0.0000
  383OM     OM1  383   9.034   2.996   1.146  0.0000  0.0000  0.0000
  384OM     OM1  384   9.124   2.810   0.980  0.0000  0.0000  0.0000
  385OM     OM1  385   9.020   3.024   0.885  0.0000  0.0000  0.0000
  386OM     OM1  386   9.252   3.037   0.998  0.0000  0.0000  0.0000
  387OM     OM1  387   8.043   7.722   0.105  0.0000  0.0000  0.0000
  388OM     OM1  388   8.280   7.816   0.057  0.0000  0.0000  0.0000
  389OM     OM1  389   8.086   7.987   0.055  0.0000  0.0000  0.0000
  390OM     OM1  390   8.107   7.809   9.469  0.0000  0.0000  0.0000
  391OM     OM1  391   0.539   9.503   9.428  0.0000  0.0000  0.0000
  392OM     OM1  392   0.573   9.504   9.162  0.0000  0.0000  0.0000
  393OM     OM1  393   0.337   9.439   9.269  0.0000  0.0000  0.0000
  394OM     OM1  394   0.532   9.282   9.294  0.0000  0.0000  0.0000
  395OM     OM1  395   7.506   2.344   1.253  0.0000  0.0000  0.0000
  396OM     OM1  396   7.585   2.573   1.154  0.0000  0.0000  0.0000
  397OM     OM1  397   3.855   8.862   9.019  0.0000  0.0000  0.0000
  398OM     OM1  398   3.979   8.984   9.290  0.0000  0.0000  0.0000
  399OM     OM1  399   4.102   8.829   8.997  0.0000  0.0000  0.0000
  400OM     OM1  400   3.958   8.743   9.215  0.0000  0.0000  0.0000
  401OM     OM1  401   8.653   0.894   0.112  0.0000  0.0000  0.0000
  402OM     OM1  402   8.699   1.120   0.233  0.0000  0.0000  0.0000
  403OM     OM1  403   8.894   0.946   0.249  0.0000  0.0000  0.0000
  404OM     OM1  404   8.844   1.026   0.020  0.0000  0.0000  0.0000
  405OM     OM1  405   9.594   4.316   0.142  0.0000  0.0000  0.0000
  406OM     OM1  406   9.485   4.079   0.111  0.0000  0.0000  0.0000
  407OM     OM1  407   0.377   4.066   0.192  0.0000  0.0000  0.0000
  408OM     OM1  408   0.121   4.116   0.223  0.0000  0.0000  0.0000
  409OM     OM1  409   6.371   9.075   0.065  0.0000  0.0000  0.0000
  410OM     OM1  410   6.348   9.324   0.145  0.0000  0.0000  0.0000
  411OM     OM1  411   6.253   9.246   9.522  0.0000  0.0000  0.0000
  412OM     OM1  412   6.144   9.173   0.155  0.0000  0.0000  0.0000
  413OM     OM1  413   6.672   4.479   8.636  0.0000  0.0000  0.0000
  414OM     OM1  414   6.683   4.215   8.619  0.0000  0.0000  0.0000
  415OM     OM1  415   6.899   4.348   8.586  0.0000  0.0000  0.0000
  416OM     OM1  416   6.732   4.367   8.403  0.0000  0.0000  0.0000
  417OM     OM1  417   0.241   0.114   1.188  0.0000  0.0000  0.0000
  418OM     OM1  418   0.218   0.379   1.242  0.0000  0.0000  0.0000
  419OM     OM1  419   0.449   0.254   1.185  0.0000  0.0000  0.0000
  420OM     OM1  420   5.111   9.124   0.351  0.0000  0.0000  0.0000
  421OM     OM1  421   5.196   9.290   0.177  0.0000  0.0000  0.0000
  422OM     OM1  422   4.939   9.271   0.210  0.0000  0.0000  0.0000
  423OM     OM1  423   5.059   9.067   0.101  0.0000  0.0000  0.0000
  424OM     OM1  424   9.064   6.344   9.466  0.0000  0.0000  0.0000
  425OM     OM1  425   8.984   6.108   9.536  0.0000  0.0000  0.0000
  426OM     OM1  426   8.871   6.226   9.333  0.0000  0.0000  0.0000
  427OM     OM1  427   2.040   0.158   9.300  0.0000  0.0000  0.0000
  428OM     OM1  428   1.881   0.246   9.488  0.0000  0.0000  0.0000
  429OM     OM1  429   1.859   0.003   9.404  0.0000  0.0000  0.0000
  430OM     OM1  430   1.797   0.205   9.240  0.0000  0.0000  0.0000
  431OM     OM1  431   5.093   4.113   8.931  0.0000  0.0000  0.0000
  432OM     OM1  432   5.170   4.068   9.172  0.0000  0.0000  0.0000
  433OM     OM1  433   5.134   4.310   9.101  0.0000  0.0000  0.0000
  434OM     OM1  434   4.927   4.150   9.126  0.0000  0.0000  0.0000
  435OM     OM1  435   8.476   7.817   8.577  0.0000  0.0000  0.0000
  436OM     OM1  436   8.571   7.709   8.791  0.0000  0.0000  0.0000
  437OM     OM1  437   8.745   7.524   8.853  0.0000  0.0000  0.0000
  438OM     OM1  438   8.813   7.770   8.882  0.0000  0.0000  0.0000
  439OM     OM1  439   5.272   8.416   1.231  0.0000  0.0000  0.0000
  440OM     OM1  440   5.024   8.414   1.320  0.0000  0.0000  0.0000
  441OM     OM1  441   1.530   6.691   8.265  0.0000  0.0000  0.0000
  442OM     OM1  442   1.781   6.686   8.327  0.0000  0.0000  0.0000
  443OM     OM1  443   1.595   6.579   8.497  0.0000  0.0000  0.0000
  444OM     OM1  444   1.611   6.834   8.457  0.0000  0.0000  0.0000
  445OM     OM1  445   9.038   1.891   9.374  0.0000  0.0000  0.0000
  446OM     OM1  446   9.247   2.050   9.373  0.0000  0.0000  0.0000
  447OM     OM1  447   9.273   1.789   9.428  0.0000  0.0000  0.0000
  448OM     OM1  448   9.155   1.952   9.596  0.0000  0.0000  0.0000
  449OM     OM1  449   8.203   2.455   8.307  0.0000  0.0000  0.0000
  450OM     OM1  450   8.088   2.212   8.280  0.0000  0.0000  0.0000
  451OM     OM1  451   7.243   5.350   0.422  0.0000  0.0000  0.0000
  452OM     OM1  452   7.043   5.226   0.306  0.0000  0.0000  0.0000
  453OM     OM1  453   6.991   5.439   0.435  0.0000  0.0000  0.0000
  454OM     OM1  454   7.128   5.447   0.208  0.0000  0.0000  0.0000
  455OM     OM1  455   2.227   8.066   0.938  0.0000  0.0000  0.0000
  456OM     OM1  456   2.021   8.184   0.849  0.0000  0.0000  0.0000
  457OM     OM1  457   2.211   8.332   0.945  0.0000  0.0000  0.0000
  458OM     OM1  458   2.068   8.203   1.105  0.0000  0.0000  0.0000
  459OM     OM1  459   8.117   4.362   1.282  0.0000  0.0000  0.0000
  460OM     OM1  460   8.268   4.565   1.380  0.0000  0.0000  0.0000
  461OM     OM1  461   4.856   3.289   9.202  0.0000  0.0000  0.0000
  462OM     OM1  462   4.601   3.291   9.255  0.0000  0.0000  0.0000
  463OM     OM1  463   4.725   3.071   9.188  0.0000  0.0000  0.0000
  464OM     OM1  464   4.673   3.270   9.013  0.0000  0.0000  0.0000
  465OM     OM1  465   5.763   5.910   0.386  0.0000  0.0000  0.0000
  466OM     OM1  466   5.727   6.092   0.191  0.0000  0.0000  0.0000
  467OM     OM1  467   5.686   6.132   0.454  0.0000  0.0000  0.0000
  468OM     OM1  468   5.928   6.113   0.348  0.0000  0.0000  0.0000
  469OM     OM1  469   8.911   6.664   8.493  0.0000  0.0000  0.0000
  470OM     OM1  470   9.025   6.786   8.693  0.0000  0.0000  0.0000
  471OM     OM1  471   8.803   6.890   8.578  0.0000  0.0000  0.0000
  472OM     OM1  472   8.797   6.674   8.726  0.0000  0.0000  0.0000
  473OM     OM1  473   2.313   3.862   8.383  0.0000  0.0000  0.0000
  474OM     OM1  474   2.242   3.621   8.417  0.0000  0.0000  0.0000
  475OM     OM1  475   0.525   3.438   9.516  0.0000  0.0000  0.0000
  476OM     OM1  476   0.740   3.457   0.053  0.0000  0.0000  0.0000
  477OM     OM1  477   0.663   3.224   9.575  0.0000  0.0000  0.0000
  478OM     OM1  478   0.752   3.397   9.399  0.0000  0.0000  0.0000
  479OM     OM1  479   7.765   1.383   1.007  0.0000  0.0000  0.0000
  480OM     OM1  480   7.419   1.421   1.105  0.0000  0.0000  0.0000
  481OM     OM1  481   7.639   0.999   1.038  0.0000  0.0000  0.0000
  482OM     OM1  482   7.754   1.188   1.173  0.0000  0.0000  0.0000
  483OM     OM1  483   2.015   5.361   0.090  0.0000  0.0000  0.0000
  484OM     OM1  484   2.005   5.131   0.214  0.0000  0.0000  0.0000
  485OM     OM1  485   1.795   5.209   0.089  0.0000  0.0000  0.0000
  486OM     OM1  486   1.868   5.337   0.311  0.0000  0.0000  0.0000
  487OM     OM1  487   5.137   7.479   9.190  0.0000  0.0000  0.0000
  488OM     OM1  488   5.028   7.715   9.215  0.0000  0.0000  0.0000
  489OM     OM1  489   5.289   7.688   9.244  0.0000  0.0000  0.0000
  490OM     OM1  490   5.179   7.675   9.013  0.0000  0.0000  0.0000
  491OM     OM1  491   6.658   3.791   8.311  0.0000  0.0000  0.0000
  492OM     OM1  492   6.626   3.699   8.547  0.0000  0.0000  0.0000
  493OM     OM1  493   6.666   3.966   8.513  0.0000  0.0000  0.0000
  494OM     OM1  494   6.854   3.787   8.502  0.0000  0.0000  0.0000
  495OM     OM1  495   0.458   1.220   8.979  0.0000  0.0000  0.0000
  496OM     OM1  496   0.150   0.942   9.011  0.0000  0.0000  0.0000
  497OM     OM1  497   0.408   0.968   8.965  0.0000  0.0000  0.0000
  498OM     OM1  498   0.309   0.733   9.026  0.0000  0.0000  0.0000
  499OM     OM1  499   8.129   1.214   1.136  0.0000  0.0000  0.0000
  500OM     OM1  500   3.494   9.447   8.971  0.0000  0.0000  0.0000
  501OM     OM1  501   3.533   9.514   9.222  0.0000  0.0000  0.0000
  502OM     OM1  502   3.630   9.297   9.124  0.0000  0.0000  0.0000
  503OM     OM1  503   3.726   9.543   9.054  0.0000  0.0000  0.0000
  504OM     OM1  504   6.442   5.606   9.366  0.0000  0.0000  0.0000
  505OM     OM1  505   6.394   5.622   9.114  0.0000  0.0000  0.0000
  506OM     OM1  506   6.371   5.392   9.233  0.0000  0.0000  0.0000
  507OM     OM1  507   6.207   5.607   9.287  0.0000  0.0000  0.0000
  508OM     OM1  508   9.536   3.042   0.123  0.0000  0.0000  0.0000
  509OM     OM1  509   9.466   2.864   0.306  0.0000  0.0000  0.0000
  510OM     OM1  510   9.343   3.103   0.287  0.0000  0.0000  0.0000
  511OM     OM1  511   9.311   2.924   0.102  0.0000  0.0000  0.0000
  512OM     OM1  512   0.830   6.803   8.265  0.0000  0.0000  0.0000
  513OM     OM1  513   0.776   6.816   8.533  0.0000  0.0000  0.0000
  514OM     OM1  514   0.730   6.610   8.395  0.0000  0.0000  0.0000
  515OM     OM1  515   3.148   5.116   1.081  0.0000  0.0000  0.0000
  516OM     OM1  516   2.955   5.291   1.102  0.0000  0.0000  0.0000
  517OM     OM1  517   2.915   5.029   1.140  0.0000  0.0000  0.0000
  518OM     OM1  518   5.587   5.133   1.195  0.0000  0.0000  0.0000
  519OM     OM1  519   5.731   5.009   1.369  0.0000  0.0000  0.0000
  520OM     OM1  520   5.561   4.871   1.215  0.0000  0.0000  0.0000
  521OM     OM1  521   6.458   7.678   1.233  0.0000  0.0000  0.0000
  522OM     OM1  522   6.328   7.667   1.010  0.0000  0.0000  0.0000
  523OM     OM1  523   6.611   7.865   1.308  0.0000  0.0000  0.0000
  524OM     OM1  524   6.204   7.753   1.210  0.0000  0.0000  0.0000
  525OM     OM1  525   7.460   8.519   0.554  0.0000  0.0000  0.0000
  526OM     OM1  526   7.513   8.284   0.638  0.0000  0.0000  0.0000
  527OM     OM1  527   7.571   8.341   0.388  0.0000  0.0000  0.0000
  528OM     OM1  528   7.720   8.435   0.570  0.0000  0.0000  0.0000
  529OM     OM1  529   1.184   4.233   9.305  0.0000  0.0000  0.0000
  530OM     OM1  530   1.159   3.982   9.256  0.0000  0.0000  0.0000
  531OM     OM1  531   0.968   4.102   9.401  0.0000  0.0000  0.0000
  532OM     OM1  532   0.998   4.153   9.150  0.0000  0.0000  0.0000
  533OM     OM1  533   3.933   9.577   9.201  0.0000  0.0000  0.0000
  534OM     OM1  534   3.955   9.506   8.952  0.0000  0.0000  0.0000
  535OM     OM1  535   3.906   0.141   8.989  0.0000  0.0000  0.0000
  536OM     OM1  536   3.474   6.351   1.059  0.0000  0.0000  0.0000
  537OM     OM1  537   3.505   6.612   1.030  0.0000  0.0000  0.0000
  538OM     OM1  538   3.712   6.459   1.017  0.0000  0.0000  0.0000
  539OM     OM1  539   1.575   8.690   8.858  0.0000  0.0000  0.0000
  540OM     OM1  540   1.330   8.606   8.881  0.0000  0.0000  0.0000
  541OM     OM1  541   1.459   8.707   9.086  0.0000  0.0000  0.0000
  542OM     OM1  542   1.383   8.864   8.884  0.0000  0.0000  0.0000
  543OM     OM1  543   5.557   3.463   0.180  0.0000  0.0000  0.0000
  544OM     OM1  544   5.746   3.281   0.144  0.0000  0.0000  0.0000
  545OM     OM1  545   5.804   3.510   0.246  0.0000  0.0000  0.0000
  546OM     OM1  546   8.809   6.342   9.112  0.0000  0.0000  0.0000
  547OM     OM1  547   8.619   6.289   9.286  0.0000  0.0000  0.0000
  548OM     OM1  548   7.974   3.984   0.575  0.0000  0.0000  0.0000
  549OM     OM1  549   7.945   4.206   0.712  0.0000  0.0000  0.0000
  550OM     OM1  550   7.822   3.998   0.797  0.0000  0.0000  0.0000
  551OM     OM1  551   7.747   4.126   0.585  0.0000  0.0000  0.0000
  552OM     OM1  552   5.103   6.192   9.553  0.0000  0.0000  0.0000
  553OM     OM1  553   4.944   6.402   9.572  0.0000  0.0000  0.0000
  554OM     OM1  554   5.091   6.378   9.360  0.0000  0.0000  0.0000
  555OM     OM1  555   4.868   6.561   0.176  0.0000  0.0000  0.0000
  556OM     OM1  556   8.482   8.423   1.138  0.0000  0.0000  0.0000
  557OM     OM1  557   8.440   8.169   1.143  0.0000  0.0000  0.0000
  558OM     OM1  558   8.674   8.269   1.213  0.0000  0.0000  0.0000
  559OM     OM1  559   6.797   1.297   8.484  0.0000  0.0000  0.0000
  560OM     OM1  560   6.760   1.037   8.423  0.0000  0.0000  0.0000
  561OM     OM1  561   6.968   1.122   8.563  0.0000  0.0000  0.0000
  562OM     OM1  562   2.863   2.494   8.888  0.0000  0.0000  0.0000
  563OM     OM1  563   2.696   2.409   8.722  0.0000  0.0000  0.0000
  564OM     OM1  564   2.863   2.235   8.827  0.0000  0.0000  0.0000
  565OM     OM1  565   2.675   2.333   8.977  0.0000  0.0000  0.0000
  566OM     OM1  566   6.211   6.817   8.532  0.0000  0.0000  0.0000
  567OM     OM1  567   6.343   6.953   8.711  0.0000  0.0000  0.0000
  568OM     OM1  568   6.335   7.049   8.471  0.0000  0.0000  0.0000
  569OM     OM1  569   6.467   6.829   8.513  0.0000  0.0000  0.0000
  570OM     OM1  570   9.144   7.905   0.573  0.0000  0.0000  0.0000
  571OM     OM1  571   9.391   7.996   0.568  0.0000  0.0000  0.0000
  572OM     OM1  572   9.183   8.142   0.657  0.0000  0.0000  0.0000
  573OM     OM1  573   9.226   8.082   0.400  0.0000  0.0000  0.0000
  574OM     OM1  574   7.133   3.974   0.245  0.0000  0.0000  0.0000
  575OM     OM1  575   7.367   4.061   0.181  0.0000  0.0000  0.0000
  576OM     OM1  576   7.330   3.796   0.218  0.0000  0.0000  0.0000
  577OM     OM1  577   7.342   3.949   0.415  0.0000  0.0000  0.0000
  578OM     OM1  578   1.100   4.973   1.098  0.0000  0.0000  0.0000
  579OM     OM1  579   1.087   5.202   1.213  0.0000  0.0000  0.0000
  580OM     OM1  580   0.384   7.382   8.775  0.0000  0.0000  0.0000
  581OM     OM1  581   0.159   7.311   8.711  0.0000  0.0000  0.0000
  582OM     OM1  582   0.199   7.524   8.882  0.0000  0.0000  0.0000
  583OM     OM1  583   6.072   9.107   8.363  0.0000  0.0000  0.0000
  584OM     OM1  584   5.882   9.270   8.442  0.0000  0.0000  0.0000
  585OM     OM1  585   8.055   5.841   9.222  0.0000  0.0000  0.0000
  586OM     OM1  586   8.185   5.647   9.128  0.0000  0.0000  0.0000
  587OM     OM1  587   8.257   5.892   9.064  0.0000  0.0000  0.0000
  588OM     OM1  588   8.052   5.778   8.953  0.0000  0.0000  0.0000
  589OM     OM1  589   1.715   9.357   0.006  0.0000  0.0000  0.0000
  590OM     OM1  590   1.495   9.237   0.037  0.0000  0.0000  0.0000
  591OM     OM1  591   1.552   9.463   0.173  0.0000  0.0000  0.0000
  592OM     OM1  592   1.485   9.475   9.530  0.0000  0.0000  0.0000
  593OM     OM1  593   2.275   5.611   9.167  0.0000  0.0000  0.0000
  594OM     OM1  594   2.519   5.628   9.246  0.0000  0.0000  0.0000
  595OM     OM1  595   2.432   5.797   9.065  0.0000  0.0000  0.0000
  596OM     OM1  596   2.357   5.822   9.304  0.0000  0.0000  0.0000
  597OM     OM1  597   9.042   5.126   1.049  0.0000  0.0000  0.0000
  598OM     OM1  598   9.093   5.056   1.293  0.0000  0.0000  0.0000
  599OM     OM1  599   9.228   4.950   1.098  0.0000  0.0000  0.0000
  600OM     OM1  600   8.983   4.873   1.135  0.0000  0.0000  0.0000
  601OM     OM1  601   3.508   0.286   1.343  0.0000  0.0000  0.0000
  602OM     OM1  602   3.681   0.260   1.150  0.0000  0.0000  0.0000
  603OM     OM1  603   3.738   0.388   1.366  0.0000  0.0000  0.0000
  604OM     OM1  604   7.614   0.006   9.054  0.0000  0.0000  0.0000
  605OM     OM1  605   7.639   0.270   9.115  0.0000  0.0000  0.0000
  606OM     OM1  606   7.831   0.115   9.153  0.0000  0.0000  0.0000
  607OM     OM1  607   7.609   0.080   9.298  0.0000  0.0000  0.0000
  608OM     OM1  608   7.926   0.118   8.909  0.0000  0.0000  0.0000
  609OM     OM1  609   8.077   0.051   9.115  0.0000  0.0000  0.0000
  610OM     OM1  610   8.015   0.293   9.081  0.0000  0.0000  0.0000
  611OM     OM1  611   6.188   3.234   0.789  0.0000  0.0000  0.0000
  612OM     OM1  612   6.048   3.247   1.014  0.0000  0.0000  0.0000
  613OM     OM1  613   5.966   3.391   0.815  0.0000  0.0000  0.0000
  614OM     OM1  614   5.958   3.123   0.802  0.0000  0.0000  0.0000
  615OM     OM1  615   1.646   2.426   9.311  0.0000  0.0000  0.0000
  616OM     OM1  616   1.678   2.310   9.556  0.0000  0.0000  0.0000
  617OM     OM1  617   1.511   2.509   9.522  0.0000  0.0000  0.0000
  618OM     OM1  618   1.773   2.542   9.502  0.0000  0.0000  0.0000
  619OM     OM1  619   6.797   1.334   1.260  0.0000  0.0000  0.0000
  620OM     OM1  620   6.604   1.495   1.322  0.0000  0.0000  0.0000
  621OM     OM1  621   6.775   1.564   1.131  0.0000  0.0000  0.0000
  622OM     OM1  622   0.138   7.047   0.307  0.0000  0.0000  0.0000
  623OM     OM1  623   9.522   6.975   0.170  0.0000  0.0000  0.0000
  624OM     OM1  624   9.572   6.869   0.401  0.0000  0.0000  0.0000
  625OM     OM1  625   0.117   6.815   0.189  0.0000  0.0000  0.0000
  626OM     OM1  626   4.524   9.196   8.854  0.0000  0.0000  0.0000
  627OM     OM1  627   4.654   9.029   8.989  0.0000  0.0000  0.0000
  628OM     OM1  628   4.789   9.124   8.790  0.0000  0.0000  0.0000
  629OM     OM1  629   8.476   7.716   9.523  0.0000  0.0000  0.0000
  630OM     OM1  630   8.498   7.737   9.254  0.0000  0.0000  0.0000
  631OM     OM1  631   8.406   7.529   9.363  0.0000  0.0000  0.0000
  632OM     OM1  632   4.801   0.008   9.081  0.0000  0.0000  0.0000
  633OM     OM1  633   4.855   0.274   9.074  0.0000  0.0000  0.0000
  634OM     OM1  634   4.998   0.111   9.208  0.0000  0.0000  0.0000
  635OM     OM1  635   4.756   0.157   9.289  0.0000  0.0000  0.0000
  636OM     OM1  636   8.710   6.556   0.057  0.0000  0.0000  0.0000
  637OM     OM1  637   8.890   6.745   0.086  0.0000  0.0000  0.0000
  638OM     OM1  638   8.962   6.493   0.056  0.0000  0.0000  0.0000
  639OM     OM1  639   8.849   6.578   0.280  0.0000  0.0000  0.0000
  640OM     OM1  640   0.406   0.713   0.172  0.0000  0.0000  0.0000
  641OM     OM1  641   0.512   0.477   0.192  0.0000  0.0000  0.0000
  642OM     OM1  642   0.328   0.507   0.016  0.0000  0.0000  0.0000
  643OM     OM1  643   0.561   0.625   9.584  0.0000  0.0000  0.0000
  644OM     OM1  644   8.863   2.071   9.433  0.0000  0.0000  0.0000
  645OM     OM1  645   8.883   1.989   9.190  0.0000  0.0000  0.0000
  646OM     OM1  646   8.776   1.832   9.372  0.0000  0.0000  0.0000
  647OM     OM1  647   7.809   7.710   0.402  0.0000  0.0000  0.0000
  648OM     OM1  648   7.639   7.814   0.232  0.0000  0.0000  0.0000
  649OM     OM1  649   7.578   7.673   0.456  0.0000  0.0000  0.0000
  650OM     OM1  650   7.664   7.558   0.235  0.0000  0.0000  0.0000
  651OM     OM1  651   9.454   0.749   8.514  0.0000  0.0000  0.0000
  652OM     OM1  652   0.057   0.706   8.371  0.0000  0.0000  0.0000
  653OM     OM1  653   0.081   0.838   8.596  0.0000  0.0000  0.0000
  654OM     OM1  654   9.556   0.945   8.395  0.0000  0.0000  0.0000
  655OM     OM1  655   8.437   7.631   0.159  0.0000  0.0000  0.0000
  656OM     OM1  656   8.540   7.864   0.120  0.0000  0.0000  0.0000
  657OM     OM1  657   8.519   1.612   0.138  0.0000  0.0000  0.0000
  658OM     OM1  658   8.265   1.639   0.201  0.0000  0.0000  0.0000
  659OM     OM1  659   8.346   1.442   0.050  0.0000  0.0000  0.0000
  660OM     OM1  660   8.070   1.558   0.361  0.0000  0.0000  0.0000
  661OM     OM1  661   0.312   8.846   0.740  0.0000  0.0000  0.0000
  662OM     OM1  662   0.090   8.918   0.638  0.0000  0.0000  0.0000
  663OM     OM1  663   0.081   9.164   0.570  0.0000  0.0000  0.0000
  664OM     OM1  664   0.266   8.798   0.483  0.0000  0.0000  0.0000
  665OM     OM1  665   9.581   1.253   0.351  0.0000  0.0000  0.0000
  666OM     OM1  666   9.487   1.069   0.513  0.0000  0.0000  0.0000
  667OM     OM1  667   0.126   1.429   0.478  0.0000  0.0000  0.0000
  668OM     OM1  668   0.212   1.335   0.255  0.0000  0.0000  0.0000
  669OM     OM1  669   0.424   5.300   8.488  0.0000  0.0000  0.0000
  670OM     OM1  670   0.638   5.147   8.474  0.0000  0.0000  0.0000
  671OM     OM1  671   5.621   4.250   9.153  0.0000  0.0000  0.0000
  672OM     OM1  672   5.662   4.022   9.041  0.0000  0.0000  0.0000
  673OM     OM1  673   5.828   4.234   9.321  0.0000  0.0000  0.0000
  674OM     OM1  674   5.423   4.090   9.101  0.0000  0.0000  0.0000
  675OM     OM1  675   0.515   4.238   1.287  0.0000  0.0000  0.0000
  676OM     OM1  676   0.735   4.168   1.418  0.0000  0.0000  0.0000
  677OM     OM1  677   0.570   3.994   1.315  0.0000  0.0000  0.0000
  678OM     OM1  678   3.410   3.698   0.069  0.0000  0.0000  0.0000
  679OM     OM1  679   3.318   3.461   0.015  0.0000  0.0000  0.0000
  680OM     OM1  680   3.306   3.632   9.431  0.0000  0.0000  0.0000
  681OM     OM1  681   3.383   3.938   0.146  0.0000  0.0000  0.0000
  682OM     OM1  682   8.945   5.656   9.150  0.0000  0.0000  0.0000
  683OM     OM1  683   9.138   5.841   8.882  0.0000  0.0000  0.0000
  684OM     OM1  684   9.162   5.498   9.152  0.0000  0.0000  0.0000
  685OM     OM1  685   9.063   5.595   8.930  0.0000  0.0000  0.0000
  686OM     OM1  686   7.510   2.220   8.573  0.0000  0.0000  0.0000
  687OM     OM1  687   7.351   2.015   8.592  0.0000  0.0000  0.0000
  688OM     OM1  688   7.329   2.201   8.760  0.0000  0.0000  0.0000
  689OM     OM1  689   7.550   2.060   8.771  0.0000  0.0000  0.0000
  690OM     OM1  690   8.540   0.726   9.540  0.0000  0.0000  0.0000
  691OM     OM1  691   8.422   0.836   0.327  0.0000  0.0000  0.0000
  692OM     OM1  692   8.396   0.886   0.076  0.0000  0.0000  0.0000
  693OM     OM1  693   0.443   4.189   8.777  0.0000  0.0000  0.0000
  694OM     OM1  694   0.632   4.343   8.688  0.0000  0.0000  0.0000
  695OM     OM1  695   0.383   4.382   8.603  0.0000  0.0000  0.0000
  696OM     OM1  696   0.517   4.163   8.538  0.0000  0.0000  0.0000
  697OM     OM1  697   2.827   6.880   8.694  0.0000  0.0000  0.0000
  698OM     OM1  698   2.596   6.951   8.620  0.0000  0.0000  0.0000
  699OM     OM1  699   2.722   7.072   8.822  0.0000  0.0000  0.0000
  700OM     OM1  700   2.614   6.832   8.850  0.0000  0.0000  0.0000
  701OM     OM1  701   5.881   0.412   0.705  0.0000  0.0000  0.0000
  702OM     OM1  702   6.112   0.392   0.809  0.0000  0.0000  0.0000
  703OM     OM1  703   6.051   0.248   0.591  0.0000  0.0000  0.0000
  704OM     OM1  704   3.341   4.532   0.115  0.0000  0.0000  0.0000
  705OM     OM1  705   3.408   4.530   0.377  0.0000  0.0000  0.0000
  706OM     OM1  706   3.527   4.377   0.197  0.0000  0.0000  0.0000
  707OM     OM1  707   3.281   4.336   0.282  0.0000  0.0000  0.0000
  708OM     OM1  708   8.140   8.958   1.189  0.0000  0.0000  0.0000
  709OM     OM1  709   8.211   8.927   0.936  0.0000  0.0000  0.0000
  710OM     OM1  710   8.210   9.157   1.047  0.0000  0.0000  0.0000
  711OM     OM1  711   7.984   9.037   0.993  0.0000  0.0000  0.0000
  712OM     OM1  712   9.007   3.405   0.479  0.0000  0.0000  0.0000
  713OM     OM1  713   8.979   3.365   0.222  0.0000  0.0000  0.0000
  714OM     OM1  714   9.051   3.172   0.382  0.0000  0.0000  0.0000
  715OM     OM1  715   8.824   3.086   0.442  0.0000  0.0000  0.0000
  716OM     OM1  716   3.537   0.346   0.952  0.0000  0.0000  0.0000
  717OM     OM1  717   3.706   0.503   1.048  0.0000  0.0000  0.0000
  718OM     OM1  718   3.602   0.744   1.055  0.0000  0.0000  0.0000
  719OM     OM1  719   3.662   0.669   8.498  0.0000  0.0000  0.0000
  720OM     OM1  720   3.460   0.552   8.373  0.0000  0.0000  0.0000
  721OM     OM1  721   3.707   0.475   8.332  0.0000  0.0000  0.0000
  722OM     OM1  722   0.197   8.078   1.242  0.0000  0.0000  0.0000
  723OM     OM1  723   9.556   8.479   1.076  0.0000  0.0000  0.0000
  724OM     OM1  724   0.053   8.258   1.145  0.0000  0.0000  0.0000
  725OM     OM1  725   3.345   6.708   0.746  0.0000  0.0000  0.0000
  726OM     OM1  726   3.540   6.856   0.690  0.0000  0.0000  0.0000
  727OM     OM1  727   3.455   6.852   0.938  0.0000  0.0000  0.0000
  728OM     OM1  728   3.293   6.955   0.762  0.0000  0.0000  0.0000
  729OM     OM1  729   2.681   3.603   8.633  0.0000  0.0000  0.0000
  730OM     OM1  730   2.557   3.390   8.735  0.0000  0.0000  0.0000
  731OM     OM1  731   2.527   3.630   8.832  0.0000  0.0000  0.0000
  732OM     OM1  732   2.743   3.505   8.881  0.0000  0.0000  0.0000
  733OM     OM1  733   2.155   5.967   8.920  0.0000  0.0000  0.0000
  734OM     OM1  734   1.938   5.975   9.063  0.0000  0.0000  0.0000
  735OM     OM1  735   2.039   5.747   8.976  0.0000  0.0000  0.0000
  736OM     OM1  736   2.147   5.884   9.177  0.0000  0.0000  0.0000
  737OM     OM1  737   4.058   3.643   9.502  0.0000  0.0000  0.0000
  738OM     OM1  738   4.273   3.502   9.525  0.0000  0.0000  0.0000
  739OM     OM1  739   4.294   3.758   9.555  0.0000  0.0000  0.0000
  740OM     OM1  740   4.172   3.607   0.129  0.0000  0.0000  0.0000
  741OM     OM1  741   9.274   8.884   8.474  0.0000  0.0000  0.0000
  742OM     OM1  742   9.306   9.145   8.465  0.0000  0.0000  0.0000
  743OM     OM1  743   9.444   9.005   8.639  0.0000  0.0000  0.0000
  744OM     OM1  744   9.499   9.003   8.385  0.0000  0.0000  0.0000
  745OM     OM1  745   5.153   1.032   0.473  0.0000  0.0000  0.0000
  746OM     OM1  746   5.375   0.975   0.615  0.0000  0.0000  0.0000
  747OM     OM1  747   5.212   0.788   0.527  0.0000  0.0000  0.0000
  748OM     OM1  748   5.137   0.938   0.722  0.0000  0.0000  0.0000
  749OM     OM1  749   3.285   9.297   0.617  0.0000  0.0000  0.0000
  750OM     OM1  750   3.534   9.211   0.608  0.0000  0.0000  0.0000
  751OM     OM1  751   3.488   9.394   0.782  0.0000  0.0000  0.0000
  752OM     OM1  752   3.372   9.166   0.816  0.0000  0.0000  0.0000
  753OM     OM1  753   7.113   8.039   9.348  0.0000  0.0000  0.0000
  754OM     OM1  754   6.866   8.071   9.429  0.0000  0.0000  0.0000
  755OM     OM1  755   7.061   8.103   9.589  0.0000  0.0000  0.0000
  756OM     OM1  756   7.016   8.286   9.390  0.0000  0.0000  0.0000
  757OM     OM1  757   8.978   5.168   9.131  0.0000  0.0000  0.0000
  758OM     OM1  758   8.957   5.224   8.882  0.0000  0.0000  0.0000
  759OM     OM1  759   8.746   5.226   9.021  0.0000  0.0000  0.0000
  760OM     OM1  760   8.932   5.413   9.063  0.0000  0.0000  0.0000
  761OM     OM1  761   3.460   5.500   9.380  0.0000  0.0000  0.0000
  762OM     OM1  762   3.274   5.336   9.440  0.0000  0.0000  0.0000
  763OM     OM1  763   3.444   5.283   9.243  0.0000  0.0000  0.0000
  764OM     OM1  764   3.535   5.275   9.485  0.0000  0.0000  0.0000
  765OM     OM1  765   1.706   7.766   9.603  0.0000  0.0000  0.0000
  766OM     OM1  766   1.598   7.842   9.373  0.0000  0.0000  0.0000
  767OM     OM1  767   1.467   7.701   9.552  0.0000  0.0000  0.0000
  768OM     OM1  768   1.505   7.950   9.590  0.0000  0.0000  0.0000
  769OM     OM1  769   0.147   4.452   8.688  0.0000  0.0000  0.0000
  770OM     OM1  770   0.122   4.570   8.916  0.0000  0.0000  0.0000
  771OM     OM1  771   9.517   4.484   8.814  0.0000  0.0000  0.0000
  772OM     OM1  772   0.080   4.296   8.879  0.0000  0.0000  0.0000
  773OM     OM1  773   1.079   3.158   8.573  0.0000  0.0000  0.0000
  774OM     OM1  774   1.105   2.933   8.444  0.0000  0.0000  0.0000
  775OM     OM1  775   0.958   3.121   8.344  0.0000  0.0000  0.0000
  776OM     OM1  776   4.509   5.015   9.493  0.0000  0.0000  0.0000
  777OM     OM1  777   4.339   4.812   9.483  0.0000  0.0000  0.0000
  778OM     OM1  778   4.086   4.788   9.432  0.0000  0.0000  0.0000
  779OM     OM1  779   1.760   1.211   1.254  0.0000  0.0000  0.0000
  780OM     OM1  780   1.635   1.250   1.033  0.0000  0.0000  0.0000
  781OM     OM1  781   1.889   1.279   1.042  0.0000  0.0000  0.0000
  782OM     OM1  782   1.790   1.035   1.057  0.0000  0.0000  0.0000
  783OM     OM1  783   3.609   9.426   8.375  0.0000  0.0000  0.0000
  784OM     OM1  784   3.432   9.571   8.496  0.0000  0.0000  0.0000
  785OM     OM1  785   3.382   9.310   8.442  0.0000  0.0000  0.0000
  786OM     OM1  786   8.430   8.241   0.061  0.0000  0.0000  0.0000
  787OM     OM1  787   8.224   8.363   9.573  0.0000  0.0000  0.0000
  788OM     OM1  788   8.452   8.377   9.451  0.0000  0.0000  0.0000
  789OM     OM1  789   8.320   8.152   9.441  0.0000  0.0000  0.0000
  790OM     OM1  790   9.430   4.850   8.538  0.0000  0.0000  0.0000
  791OM     OM1  791   9.415   4.605   8.478  0.0000  0.0000  0.0000
  792OM     OM1  792   9.226   4.765   8.392  0.0000  0.0000  0.0000
  793OM     OM1  793   6.554   3.861   1.222  0.0000  0.0000  0.0000
  794OM     OM1  794   9.373   5.122   0.973  0.0000  0.0000  0.0000
  795OM     OM1  795   9.429   4.871   0.943  0.0000  0.0000  0.0000
  796OM     OM1  796   9.467   4.991   1.180  0.0000  0.0000  0.0000
  797OM     OM1  797   6.412   5.113   1.071  0.0000  0.0000  0.0000
  798OM     OM1  798   6.190   5.010   1.171  0.0000  0.0000  0.0000
  799OM     OM1  799   6.424   4.911   1.230  0.0000  0.0000  0.0000
  800OM     OM1  800   3.304   5.721   1.220  0.0000  0.0000  0.0000
  801OM     OM1  801   3.087   5.703   1.363  0.0000  0.0000  0.0000
  802OM     OM1  802   4.358   2.745   0.628  0.0000  0.0000  0.0000
  803OM     OM1  803   4.149   2.746   0.780  0.0000  0.0000  0.0000
  804OM     OM1  804   4.378   2.842   0.872  0.0000  0.0000  0.0000
  805OM     OM1  805   4.248   2.975   0.705  0.0000  0.0000  0.0000
  806OM     OM1  806   1.102   3.513   0.184  0.0000  0.0000  0.0000
  807OM     OM1  807   1.294   3.420   0.057  0.0000  0.0000  0.0000
  808OM     OM1  808   1.136   3.594   9.545  0.0000  0.0000  0.0000
  809OM     OM1  809   1.275   3.710   0.200  0.0000  0.0000  0.0000
  810OM     OM1  810   6.938   0.796   9.426  0.0000  0.0000  0.0000
  811OM     OM1  811   6.746   0.609   9.414  0.0000  0.0000  0.0000
  812OM     OM1  812   6.948   0.565   9.568  0.0000  0.0000  0.0000
  813OM     OM1  813   6.792   0.746   0.025  0.0000  0.0000  0.0000
  814OM     OM1  814   8.440   4.017   1.190  0.0000  0.0000  0.0000
  815OM     OM1  815   8.510   4.252   1.167  0.0000  0.0000  0.0000
  816OM     OM1  816   8.427   4.124   0.950  0.0000  0.0000  0.0000
  817OM     OM1  817   8.254   4.199   1.132  0.0000  0.0000  0.0000
  818OM     OM1  818   4.484   0.881   0.373  0.0000  0.0000  0.0000
  819OM     OM1  819   4.562   0.798   0.612  0.0000  0.0000  0.0000
  820OM     OM1  820   4.348   0.684   0.518  0.0000  0.0000  0.0000
  821OM     OM1  821   4.578   0.644   0.406  0.0000  0.0000  0.0000
  822OM     OM1  822   8.852   1.018   9.363  0.0000  0.0000  0.0000
  823OM     OM1  823   9.031   1.158   9.524  0.0000  0.0000  0.0000
  824OM     OM1  824   9.042   0.901   9.483  0.0000  0.0000  0.0000
  825OM     OM1  825   9.440   1.915   0.831  0.0000  0.0000  0.0000
  826OM     OM1  826   0.094   1.850   0.808  0.0000  0.0000  0.0000
  827OM     OM1  827   9.290   1.977   1.033  0.0000  0.0000  0.0000
  828OM     OM1  828   9.366   1.738   0.998  0.0000  0.0000  0.0000
  829OM     OM1  829   7.114   1.940   0.064  0.0000  0.0000  0.0000
  830OM     OM1  830   6.993   1.832   9.451  0.0000  0.0000  0.0000
  831OM     OM1  831   7.179   1.712   9.567  0.0000  0.0000  0.0000
  832OM     OM1  832   6.939   1.741   0.079  0.0000  0.0000  0.0000
  833OM     OM1  833   0.960   8.333   8.763  0.0000  0.0000  0.0000
  834OM     OM1  834   1.044   8.160   8.935  0.0000  0.0000  0.0000
  835OM     OM1  835   1.185   8.381   8.885  0.0000  0.0000  0.0000
  836OM     OM1  836   0.951   8.384   9.018  0.0000  0.0000  0.0000
  837OM     OM1  837   1.097   1.499   1.280  0.0000  0.0000  0.0000
  838OM     OM1  838   1.042   1.744   1.242  0.0000  0.0000  0.0000
  839OM     OM1  839   0.904   1.552   1.108  0.0000  0.0000  0.0000
  840OM     OM1  840   3.158   9.262   1.394  0.0000  0.0000  0.0000
  841OM     OM1  841   6.310   0.610   0.045  0.0000  0.0000  0.0000
  842OM     OM1  842   6.362   0.807   0.225  0.0000  0.0000  0.0000
  843OM     OM1  843   6.550   0.701   0.102  0.0000  0.0000  0.0000
  844OM     OM1  844   6.412   0.555   0.278  0.0000  0.0000  0.0000
  845OM     OM1  845   2.488   8.534   8.261  0.0000  0.0000  0.0000
  846OM     OM1  846   1.895   0.401   9.095  0.0000  0.0000  0.0000
  847OM     OM1  847   1.737   0.232   8.976  0.0000  0.0000  0.0000
  848OM     OM1  848   1.643   0.398   9.148  0.0000  0.0000  0.0000
  849OM     OM1  849   3.588   3.791   0.246  0.0000  0.0000  0.0000
  850OM     OM1  850   3.540   3.558   9.506  0.0000  0.0000  0.0000
  851OM     OM1  851   3.581   3.874   9.599  0.0000  0.0000  0.0000
  852OM     OM1  852   7.212   4.606   8.628  0.0000  0.0000  0.0000
  853OM     OM1  853   7.290   4.434   8.450  0.0000  0.0000  0.0000
  854OM     OM1  854   7.447   4.640   8.538  0.0000  0.0000  0.0000
  855OM     OM1  855   7.413   4.436   8.681  0.0000  0.0000  0.0000
  856OM     OM1  856   6.934   8.927   0.805  0.0000  0.0000  0.0000
  857OM     OM1  857   6.967   9.043   1.044  0.0000  0.0000  0.0000
  858OM     OM1  858   7.158   9.036   0.874  0.0000  0.0000  0.0000
  859OM     OM1  859   6.948   9.184   0.826  0.0000  0.0000  0.0000
  860OM     OM1  860   6.139   6.658   0.031  0.0000  0.0000  0.0000
  861OM     OM1  861   5.886   6.665   0.056  0.0000  0.0000  0.0000
  862OM     OM1  862   6.006   6.868   9.562  0.0000  0.0000  0.0000
  863OM     OM1  863   5.988   6.638   9.423  0.0000  0.0000  0.0000
  864OM     OM1  864   1.233   3.253   1.180  0.0000  0.0000  0.0000
  865OM     OM1  865   1.111   3.087   1.022  0.0000  0.0000  0.0000
  866OM     OM1  866   1.318   3.069   0.868  0.0000  0.0000  0.0000
  867OM     OM1  867   1.275   3.011   1.209  0.0000  0.0000  0.0000
  868OM     OM1  868   9.597   8.726   1.154  0.0000  0.0000  0.0000
  869OM     OM1  869   0.177   8.554   1.172  0.0000  0.0000  0.0000
  870OM     OM1  870   0.103   8.630   0.931  0.0000  0.0000  0.0000
  871OM     OM1  871   7.273   9.247   0.772  0.0000  0.0000  0.0000
  872OM     OM1  872   7.182   9.505   0.785  0.0000  0.0000  0.0000
  873OM     OM1  873   7.436   9.445   0.743  0.0000  0.0000  0.0000
  874OM     OM1  874   7.243   9.397   0.569  0.0000  0.0000  0.0000
  875OM     OM1  875   4.853   8.540   0.236  0.0000  0.0000  0.0000
  876OM     OM1  876   4.655   8.687   0.146  0.0000  0.0000  0.0000
  877OM     OM1  877   4.602   8.461   0.257  0.0000  0.0000  0.0000
  878OM     OM1  878   4.705   8.644   0.410  0.0000  0.0000  0.0000
  879OM     OM1  879   2.378   0.905   0.140  0.0000  0.0000  0.0000
  880OM     OM1  880   2.184   0.891   0.323  0.0000  0.0000  0.0000
  881OM     OM1  881   2.415   0.794   0.379  0.0000  0.0000  0.0000
  882OM     OM1  882   2.264   0.681   0.190  0.0000  0.0000  0.0000
  883OM     OM1  883   2.137   8.702   8.837  0.0000  0.0000  0.0000
  884OM     OM1  884   2.024   8.929   8.914  0.0000  0.0000  0.0000
  885OM     OM1  885   2.165   8.896   8.688  0.0000  0.0000  0.0000
  886OM     OM1  886   2.277   8.908   8.937  0.0000  0.0000  0.0000
  887OM     OM1  887   7.054   8.030   1.211  0.0000  0.0000  0.0000
  888OM     OM1  888   6.938   7.840   1.075  0.0000  0.0000  0.0000
  889OM     OM1  889   6.812   8.004   1.261  0.0000  0.0000  0.0000
  890OM     OM1  890   5.991   2.802   0.154  0.0000  0.0000  0.0000
  891OM     OM1  891   6.039   2.689   9.529  0.0000  0.0000  0.0000
  892OM     OM1  892   6.205   2.646   0.111  0.0000  0.0000  0.0000
  893OM     OM1  893   5.975   2.540   0.137  0.0000  0.0000  0.0000
  894OM     OM1  894   5.466   5.718   8.663  0.0000  0.0000  0.0000
  895OM     OM1  895   5.308   5.503   8.400  0.0000  0.0000  0.0000
  896OM     OM1  896   5.597   5.926   8.588  0.0000  0.0000  0.0000
  897OM     OM1  897   5.508   5.354   8.498  0.0000  0.0000  0.0000
  898OM     OM1  898   2.601   8.231   9.201  0.0000  0.0000  0.0000
  899OM     OM1  899   2.427   8.179   8.996  0.0000  0.0000  0.0000
  900OM     OM1  900   2.592   8.000   9.073  0.0000  0.0000  0.0000
  901OM     OM1  901   2.394   8.080   9.226  0.0000  0.0000  0.0000
  902OM     OM1  902   0.068   8.769   8.836  0.0000  0.0000  0.0000
  903OM     OM1  903   0.175   8.739   8.611  0.0000  0.0000  0.0000
  904OM     OM1  904   0.325   8.813   8.811  0.0000  0.0000  0.0000
  905OM     OM1  905   0.238   8.572   8.823  0.0000  0.0000  0.0000
  906OM     OM1  906   0.373   7.606   8.636  0.0000  0.0000  0.0000
  907OM     OM1  907   0.661   7.906   8.909  0.0000  0.0000  0.0000
  908OM     OM1  908   0.773   7.839   8.689  0.0000  0.0000  0.0000
  909OM     OM1  909   0.519   7.804   8.690  0.0000  0.0000  0.0000
  910OM     OM1  910   6.602   6.587   0.553  0.0000  0.0000  0.0000
  911OM     OM1  911   6.728   6.801   0.608  0.0000  0.0000  0.0000
  912OM     OM1  912   6.663   6.762   0.368  0.0000  0.0000  0.0000
  913OM     OM1  913   6.470   6.808   0.562  0.0000  0.0000  0.0000
  914OM     OM1  914   7.436   3.376   8.632  0.0000  0.0000  0.0000
  915OM     OM1  915   7.491   3.471   8.871  0.0000  0.0000  0.0000
  916OM     OM1  916   7.554   3.595   8.665  0.0000  0.0000  0.0000
  917OM     OM1  917   7.284   3.560   8.718  0.0000  0.0000  0.0000
  918OM     OM1  918   4.804   7.775   9.095  0.0000  0.0000  0.0000
  919OM     OM1  919   4.910   7.965   9.229  0.0000  0.0000  0.0000
  920OM     OM1  920   4.827   7.762   9.365  0.0000  0.0000  0.0000
  921OM     OM1  921   2.696   0.114   9.374  0.0000  0.0000  0.0000
  922OM     OM1  922   2.778   0.254   9.185  0.0000  0.0000  0.0000
  923OM     OM1  923   2.848   9.595   9.193  0.0000  0.0000  0.0000
  924OM     OM1  924   2.612   0.065   9.130  0.0000  0.0000  0.0000
  925OM     OM1  925   2.342   5.785   0.497  0.0000  0.0000  0.0000
  926OM     OM1  926   2.391   5.878   0.743  0.0000  0.0000  0.0000
  927OM     OM1  927   2.553   5.941   0.545  0.0000  0.0000  0.0000
  928OM     OM1  928   2.302   6.031   0.559  0.0000  0.0000  0.0000
  929OM     OM1  929   6.182   1.761   0.136  0.0000  0.0000  0.0000
  930OM     OM1  930   6.313   1.563   0.021  0.0000  0.0000  0.0000
  931OM     OM1  931   6.255   1.540   0.263  0.0000  0.0000  0.0000
  932OM     OM1  932   6.054   1.536   0.091  0.0000  0.0000  0.0000
  933OM     OM1  933   2.263   7.977   8.982  0.0000  0.0000  0.0000
  934OM     OM1  934   2.018   7.925   9.034  0.0000  0.0000  0.0000
  935OM     OM1  935   2.136   7.822   8.815  0.0000  0.0000  0.0000
  936OM     OM1  936   2.192   7.731   9.055  0.0000  0.0000  0.0000
  937OM     OM1  937   3.218   1.159   1.158  0.0000  0.0000  0.0000
  938OM     OM1  938   3.252   1.419   1.191  0.0000  0.0000  0.0000
  939OM     OM1  939   3.421   1.294   1.041  0.0000  0.0000  0.0000
  940OM     OM1  940   3.409   1.256   1.302  0.0000  0.0000  0.0000
  941OM     OM1  941   6.171   6.344   8.664  0.0000  0.0000  0.0000
  942OM     OM1  942   6.183   6.103   8.723  0.0000  0.0000  0.0000
  943OM     OM1  943   6.187   6.178   8.462  0.0000  0.0000  0.0000
  944OM     OM1  944   6.398   6.193   8.618  0.0000  0.0000  0.0000
  945OM     OM1  945   0.264   6.276   0.654  0.0000  0.0000  0.0000
  946OM     OM1  946   0.153   6.253   0.408  0.0000  0.0000  0.0000
  947OM     OM1  947   0.087   6.441   0.578  0.0000  0.0000  0.0000
  948OM     OM1  948   0.020   6.201   0.634  0.0000  0.0000  0.0000
  949OM     OM1  949   4.779   6.897   8.563  0.0000  0.0000  0.0000
  950OM     OM1  950   4.973   6.664   8.895  0.0000  0.0000  0.0000
  951OM     OM1  951   4.953   6.899   8.763  0.0000  0.0000  0.0000
  952OM     OM1  952   5.032   6.693   8.642  0.0000  0.0000  0.0000
  953OM     OM1  953   8.020   3.565   8.523  0.0000  0.0000  0.0000
  954OM     OM1  954   8.073   3.687   8.753  0.0000  0.0000  0.0000
  955OM     OM1  955   7.943   3.458   8.740  0.0000  0.0000  0.0000
  956OM     OM1  956   7.819   3.666   8.667  0.0000  0.0000  0.0000
  957OM     OM1  957   7.507   5.876   9.027  0.0000  0.0000  0.0000
  958OM     OM1  958   7.473   5.886   9.281  0.0000  0.0000  0.0000
  959OM     OM1  959   7.705   5.769   8.897  0.0000  0.0000  0.0000
  960OM     OM1  960   7.727   5.922   9.230  0.0000  0.0000  0.0000
  961OM     OM1  961   2.332   5.654   0.263  0.0000  0.0000  0.0000
  962OM     OM1  962   2.110   5.728   0.382  0.0000  0.0000  0.0000
  963OM     OM1  963   2.268   5.539   0.483  0.0000  0.0000  0.0000
  964OM     OM1  964   6.584   5.445   1.290  0.0000  0.0000  0.0000
  965OM     OM1  965   6.402   5.619   1.268  0.0000  0.0000  0.0000
  966OM     OM1  966   7.360   9.000   0.725  0.0000  0.0000  0.0000
  967OM     OM1  967   7.567   8.845   0.752  0.0000  0.0000  0.0000
  968OM     OM1  968   7.497   8.934   0.521  0.0000  0.0000  0.0000
  969OM     OM1  969   7.360   8.744   0.644  0.0000  0.0000  0.0000
  970OM     OM1  970   9.140   7.089   9.164  0.0000  0.0000  0.0000
  971OM     OM1  971   9.115   7.187   9.394  0.0000  0.0000  0.0000
  972OM     OM1  972   8.950   7.260   9.208  0.0000  0.0000  0.0000
  973OM     OM1  973   8.931   7.017   9.296  0.0000  0.0000  0.0000
  974OM     OM1  974   1.669   2.761   0.808  0.0000  0.0000  0.0000
  975OM     OM1  975   1.844   2.703   1.018  0.0000  0.0000  0.0000
  976OM     OM1  976   1.584   2.684   1.041  0.0000  0.0000  0.0000
  977OM     OM1  977   1.704   2.917   1.013  0.0000  0.0000  0.0000
  978OM     OM1  978   0.131   5.388   1.236  0.0000  0.0000  0.0000
  979OM     OM1  979   0.040   5.562   1.072  0.0000  0.0000  0.0000
  980OM     OM1  980   0.122   5.652   1.298  0.0000  0.0000  0.0000
  981OM     OM1  981   2.359   7.720   0.270  0.0000  0.0000  0.0000
  982OM     OM1  982   2.527   7.752   0.464  0.0000  0.0000  0.0000
  983OM     OM1  983   2.407   7.490   0.148  0.0000  0.0000  0.0000
  984OM     OM1  984   2.415   7.707   0.016  0.0000  0.0000  0.0000
  985OM     OM1  985   1.876   2.187   8.383  0.0000  0.0000  0.0000
  986OM     OM1  986   1.032   3.065   1.262  0.0000  0.0000  0.0000
  987OM     OM1  987   1.099   2.967   0.785  0.0000  0.0000  0.0000
  988OM     OM1  988   1.227   2.854   0.972  0.0000  0.0000  0.0000
  989OM     OM1  989   8.631   5.360   8.739  0.0000  0.0000  0.0000
  990OM     OM1  990   8.577   5.183   8.560  0.0000  0.0000  0.0000
  991OM     OM1  991   8.794   5.331   8.530  0.0000  0.0000  0.0000
  992OM     OM1  992   8.789   5.148   8.703  0.0000  0.0000  0.0000
  993OM     OM1  993   4.156   6.959   8.724  0.0000  0.0000  0.0000
  994OM     OM1  994   3.973   7.153   8.672  0.0000  0.0000  0.0000
  995OM     OM1  995   4.223   7.204   8.663  0.0000  0.0000  0.0000
  996OM     OM1  996   3.851   7.593   8.920  0.0000  0.0000  0.0000
  997OM     OM1  997   3.696   7.697   9.108  0.0000  0.0000  0.0000
  998OM     OM1  998   3.923   7.583   9.158  0.0000  0.0000  0.0000
  999OM     OM1  999   3.718   7.434   9.095  0.0000  0.0000  0.0000
 1000OM     OM1 1000   7.167   6.323   9.350  0.0000  0.0000  0.0000
 1001OM     OM1 1001   7.413   6.229   9.353  0.0000  0.0000  0.0000
 1002OM     OM1 1002   7.291   6.236   9.578  0.0000  0.0000  0.0000
 1003OM     OM1 1003   7.364   6.457   9.449  0.0000  0.0000  0.0000
 1004OM     OM1 1004   5.359   8.414   0.203  0.0000  0.0000  0.0000
 1005OM     OM1 1005   5.125   8.513   0.276  0.0000  0.0000  0.0000
 1006OM     OM1 1006   5.348   8.508   0.433  0.0000  0.0000  0.0000
 1007OM     OM1 1007   5.327   8.670   0.224  0.0000  0.0000  0.0000
 1008OM     OM1 1008   3.501   1.900   0.391  0.0000  0.0000  0.0000
 1009OM     OM1 1009   3.248   1.873   0.500  0.0000  0.0000  0.0000
 1010OM     OM1 1010   3.447   2.259   0.398  0.0000  0.0000  0.0000
 1011OM     OM1 1011   3.303   2.051   0.325  0.0000  0.0000  0.0000
 1012OM     OM1 1012   1.883   5.821   0.485  0.0000  0.0000  0.0000
 1013OM     OM1 1013   1.803   6.076   0.444  0.0000  0.0000  0.0000
 1014OM     OM1 1014   2.043   6.015   0.513  0.0000  0.0000  0.0000
 1015OM     OM1 1015   1.847   5.990   0.686  0.0000  0.0000  0.0000
 1016OM     OM1 1016   1.073   4.305   0.856  0.0000  0.0000  0.0000
 1017OM     OM1 1017   1.044   4.382   1.105  0.0000  0.0000  0.0000
 1018OM     OM1 1018   1.284   4.380   1.005  0.0000  0.0000  0.0000
 1019OM     OM1 1019   1.097   4.550   0.916  0.0000  0.0000  0.0000
 1020OM     OM1 1020   7.901   3.579   8.301  0.0000  0.0000  0.0000
 1021OM     OM1 1021   8.008   3.345   8.364  0.0000  0.0000  0.0000
 1022OM     OM1 1022   8.165   3.531   8.302  0.0000  0.0000  0.0000
 1023OM     OM1 1023   5.942   8.854   0.091  0.0000  0.0000  0.0000
 1024OM     OM1 1024   6.153   8.829   0.256  0.0000  0.0000  0.0000
 1025OM     OM1 1025   5.905   8.781   0.343  0.0000  0.0000  0.0000
 1026OM     OM1 1026   5.987   9.016   0.287  0.0000  0.0000  0.0000
 1027OM     OM1 1027   6.550   6.540   1.227  0.0000  0.0000  0.0000
 1028OM     OM1 1028   6.674   6.743   1.102  0.0000  0.0000  0.0000
 1029OM     OM1 1029   6.411   6.682   1.072  0.0000  0.0000  0.0000
 1030OM     OM1 1030   0.574   8.858   8.890  0.0000  0.0000  0.0000
 1031OM     OM1 1031   0.782   8.802   9.035  0.0000  0.0000  0.0000
 1032OM     OM1 1032   0.768   8.697   8.795  0.0000  0.0000  0.0000
 1033OM     OM1 1033   0.807   8.947   8.816  0.0000  0.0000  0.0000
 1034OM     OM1 1034   0.228   4.592   1.379  0.0000  0.0000  0.0000
 1035OM     OM1 1035   0.413   4.737   1.270  0.0000  0.0000  0.0000
 1036OM     OM1 1036   4.548   6.405   1.195  0.0000  0.0000  0.0000
 1037OM     OM1 1037   4.799   6.404   1.141  0.0000  0.0000  0.0000
 1038OM     OM1 1038   4.687   6.636   1.150  0.0000  0.0000  0.0000
 1039OM     OM1 1039   4.637   6.467   0.955  0.0000  0.0000  0.0000
 1040OM     OM1 1040   0.355   8.724   1.260  0.0000  0.0000  0.0000
 1041OM     OM1 1041   0.416   8.562   1.075  0.0000  0.0000  0.0000
 1042OM     OM1 1042   0.394   8.478   1.321  0.0000  0.0000  0.0000
 1043OM     OM1 1043   0.615   8.351   1.281  0.0000  0.0000  0.0000
 1044OM     OM1 1044   0.618   8.599   1.379  0.0000  0.0000  0.0000
 1045OM     OM1 1045   3.328   4.235   9.367  0.0000  0.0000  0.0000
 1046OM     OM1 1046   3.281   4.013   9.520  0.0000  0.0000  0.0000
 1047OM     OM1 1047   3.320   4.000   9.259  0.0000  0.0000  0.0000
 1048OM     OM1 1048   3.512   4.054   9.426  0.0000  0.0000  0.0000
 1049OM     OM1 1049   4.235   8.970   9.249  0.0000  0.0000  0.0000
 1050OM     OM1 1050   4.128   9.103   9.450  0.0000  0.0000  0.0000
 1051OM     OM1 1051   4.138   9.195   9.199  0.0000  0.0000  0.0000
 1052OM     OM1 1052   0.689   6.868   9.394  0.0000  0.0000  0.0000
 1053OM     OM1 1053   0.487   6.973   9.277  0.0000  0.0000  0.0000
 1054OM     OM1 1054   0.455   6.817   9.492  0.0000  0.0000  0.0000
 1055OM     OM1 1055   0.513   6.708   9.267  0.0000  0.0000  0.0000
 1056OM     OM1 1056   6.764   2.044   0.779  0.0000  0.0000  0.0000
 1057OM     OM1 1057   6.827   1.837   0.630  0.0000  0.0000  0.0000
 1058OM     OM1 1058   6.832   2.086   0.538  0.0000  0.0000  0.0000
 1059OM     OM1 1059   7.013   2.009   0.713  0.0000  0.0000  0.0000
 1060OM     OM1 1060   6.832   8.690   0.746  0.0000  0.0000  0.0000
 1061OM     OM1 1061   6.999   8.791   0.580  0.0000  0.0000  0.0000
 1062OM     OM1 1062   6.946   8.471   0.686  0.0000  0.0000  0.0000
 1063OM     OM1 1063   5.000   7.523   8.928  0.0000  0.0000  0.0000
 1064OM     OM1 1064   5.002   7.752   8.822  0.0000  0.0000  0.0000
 1065OM     OM1 1065   5.205   7.585   8.773  0.0000  0.0000  0.0000
 1066OM     OM1 1066   9.129   6.738   0.702  0.0000  0.0000  0.0000
 1067OM     OM1 1067   9.218   6.530   0.789  0.0000  0.0000  0.0000
 1068OM     OM1 1068   8.963   6.587   0.850  0.0000  0.0000  0.0000
 1069OM     OM1 1069   9.152   6.714   0.967  0.0000  0.0000  0.0000
 1070OM     OM1 1070   9.044   7.664   0.593  0.0000  0.0000  0.0000
 1071OM     OM1 1071   8.907   7.862   0.472  0.0000  0.0000  0.0000
 1072OM     OM1 1072   8.935   7.848   0.731  0.0000  0.0000  0.0000
 1073OM     OM1 1073   4.521   6.145   1.140  0.0000  0.0000  0.0000
 1074OM     OM1 1074   4.369   6.033   0.947  0.0000  0.0000  0.0000
 1075OM     OM1 1075   4.322   5.993   1.193  0.0000  0.0000  0.0000
 1076OM     OM1 1076   4.527   5.881   1.082  0.0000  0.0000  0.0000
 1077OM     OM1 1077   5.615   7.386   1.033  0.0000  0.0000  0.0000
 1078OM     OM1 1078   5.618   7.511   0.803  0.0000  0.0000  0.0000
 1079OM     OM1 1079   5.387   7.459   0.923  0.0000  0.0000  0.0000
 1080OM     OM1 1080   5.536   7.278   0.807  0.0000  0.0000  0.0000
 1081OM     OM1 1081   1.802   6.949   8.581  0.0000  0.0000  0.0000
 1082OM     OM1 1082   1.840   7.205   8.564  0.0000  0.0000  0.0000
 1083OM     OM1 1083   2.020   7.058   8.462  0.0000  0.0000  0.0000
 1084OM     OM1 1084   1.991   7.058   8.718  0.0000  0.0000  0.0000
 1085OM     OM1 1085   0.943   7.304   8.975  0.0000  0.0000  0.0000
 1086OM     OM1 1086   1.007   7.089   9.116  0.0000  0.0000  0.0000
 1087OM     OM1 1087   0.764   7.197   9.123  0.0000  0.0000  0.0000
 1088OM     OM1 1088   0.963   7.308   9.245  0.0000  0.0000  0.0000
 1089OM     OM1 1089   0.763   5.111   9.494  0.0000  0.0000  0.0000
 1090OM     OM1 1090   0.808   5.092   0.140  0.0000  0.0000  0.0000
 1091OM     OM1 1091   1.022   5.123   9.593  0.0000  0.0000  0.0000
 1092OM     OM1 1092   0.873   5.317   0.024  0.0000  0.0000  0.0000
 1093OM     OM1 1093   8.102   9.451   9.274  0.0000  0.0000  0.0000
 1094OM     OM1 1094   8.095   0.090   9.371  0.0000  0.0000  0.0000
 1095OM     OM1 1095   8.303   0.015   9.251  0.0000  0.0000  0.0000
 1096OM     OM1 1096   8.460   0.512   8.928  0.0000  0.0000  0.0000
 1097OM     OM1 1097   8.319   0.313   8.838  0.0000  0.0000  0.0000
 1098OM     OM1 1098   8.480   0.278   9.044  0.0000  0.0000  0.0000
 1099OM     OM1 1099   8.255   0.413   9.063  0.0000  0.0000  0.0000
 1100OM     OM1 1100   3.381   8.537   9.344  0.0000  0.0000  0.0000
 1101OM     OM1 1101   3.583   8.650   9.464  0.0000  0.0000  0.0000
 1102OM     OM1 1102   3.390   8.518   9.597  0.0000  0.0000  0.0000
 1103OM     OM1 1103   3.563   8.386   9.447  0.0000  0.0000  0.0000
 1104OM     OM1 1104   0.748   3.336   0.373  0.0000  0.0000  0.0000
 1105OM     OM1 1105   0.799   3.158   0.179  0.0000  0.0000  0.0000
 1106OM     OM1 1106   0.786   3.085   0.428  0.0000  0.0000  0.0000
 1107OM     OM1 1107   4.600   7.692   8.940  0.0000  0.0000  0.0000
 1108OM     OM1 1108   4.667   7.945   8.936  0.0000  0.0000  0.0000
 1109OM     OM1 1109   4.569   7.846   9.148  0.0000  0.0000  0.0000
 1110OM     OM1 1110   5.637   3.567   8.190  0.0000  0.0000  0.0000
 1111OM     OM1 1111   5.441   3.501   8.343  0.0000  0.0000  0.0000
 1112OM     OM1 1112   5.490   3.761   8.288  0.0000  0.0000  0.0000
 1113OM     OM1 1113   8.892   0.032   0.661  0.0000  0.0000  0.0000
 1114OM     OM1 1114   8.998   0.224   0.799  0.0000  0.0000  0.0000
 1115OM     OM1 1115   8.940   0.013   0.411  0.0000  0.0000  0.0000
 1116OM     OM1 1116   8.690   0.038   0.489  0.0000  0.0000  0.0000
 1117OM     OM1 1117   0.215   1.053   1.063  0.0000  0.0000  0.0000
 1118OM     OM1 1118   0.339   1.148   1.268  0.0000  0.0000  0.0000
 1119OM     OM1 1119   0.350   0.889   1.233  0.0000  0.0000  0.0000
 1120OM     OM1 1120   0.121   0.987   1.290  0.0000  0.0000  0.0000
 1121OM     OM1 1121   8.419   0.100   8.557  0.0000  0.0000  0.0000
 1122OM     OM1 1122   8.452   0.360   8.509  0.0000  0.0000  0.0000
 1123OM     OM1 1123   8.598   0.165   8.392  0.0000  0.0000  0.0000
 1124OM     OM1 1124   8.629   0.228   8.650  0.0000  0.0000  0.0000
 1125OM     OM1 1125   3.736   2.039   0.362  0.0000  0.0000  0.0000
 1126OM     OM1 1126   3.707   1.819   0.244  0.0000  0.0000  0.0000
 1127OM     OM1 1127   3.726   1.821   0.503  0.0000  0.0000  0.0000
 1128OM     OM1 1128   8.930   4.967   8.839  0.0000  0.0000  0.0000
 1129OM     OM1 1129   9.041   5.116   8.658  0.0000  0.0000  0.0000
 1130OM     OM1 1130   4.734   6.568   9.557  0.0000  0.0000  0.0000
 1131OM     OM1 1131   4.891   6.222   9.390  0.0000  0.0000  0.0000
 1132OM     OM1 1132   4.730   6.354   0.100  0.0000  0.0000  0.0000
 1133OM     OM1 1133   3.080   3.395   9.529  0.0000  0.0000  0.0000
 1134OM     OM1 1134   2.845   3.507   9.580  0.0000  0.0000  0.0000
 1135OM     OM1 1135   2.855   3.276   9.463  0.0000  0.0000  0.0000
 1136OM     OM1 1136   2.930   3.493   9.337  0.0000  0.0000  0.0000
 1137OM     OM1 1137   3.480   7.576   8.424  0.0000  0.0000  0.0000
 1138OM     OM1 1138   7.526   0.515   9.536  0.0000  0.0000  0.0000
 1139OM     OM1 1139   7.286   0.507   9.599  0.0000  0.0000  0.0000
 1140OM     OM1 1140   7.357   0.648   9.386  0.0000  0.0000  0.0000
 1141OM     OM1 1141   7.393   0.743   0.011  0.0000  0.0000  0.0000
 1142OM     OM1 1142   7.546   4.713   0.247  0.0000  0.0000  0.0000
 1143OM     OM1 1143   7.681   4.863   0.062  0.0000  0.0000  0.0000
 1144OM     OM1 1144   7.517   4.678   9.600  0.0000  0.0000  0.0000
 1145OM     OM1 1145   7.751   4.620   0.119  0.0000  0.0000  0.0000
 1146OM     OM1 1146   3.890   5.556   8.575  0.0000  0.0000  0.0000
 1147OM     OM1 1147   4.089   5.663   8.698  0.0000  0.0000  0.0000
 1148OM     OM1 1148   4.117   5.642   8.446  0.0000  0.0000  0.0000
 1149OM     OM1 1149   3.932   5.809   8.532  0.0000  0.0000  0.0000
 1150OM     OM1 1150   2.493   3.228   0.068  0.0000  0.0000  0.0000
 1151OM     OM1 1151   2.653   3.066   0.199  0.0000  0.0000  0.0000
 1152OM     OM1 1152   2.594   3.454   0.004  0.0000  0.0000  0.0000
 1153OM     OM1 1153   5.228   4.923   0.922  0.0000  0.0000  0.0000
 1154OM     OM1 1154   5.030   5.077   1.003  0.0000  0.0000  0.0000
 1155OM     OM1 1155   5.273   5.171   1.018  0.0000  0.0000  0.0000
 1156OM     OM1 1156   5.172   5.131   0.782  0.0000  0.0000  0.0000
 1157OM     OM1 1157   5.956   6.497   8.640  0.0000  0.0000  0.0000
 1158OM     OM1 1158   5.985   6.380   8.866  0.0000  0.0000  0.0000
 1159OM     OM1 1159   6.149   6.563   8.802  0.0000  0.0000  0.0000
 1160OM     OM1 1160   6.655   8.868   9.287  0.0000  0.0000  0.0000
 1161OM     OM1 1161   6.997   8.526   9.240  0.0000  0.0000  0.0000
 1162OM     OM1 1162   6.887   8.771   9.253  0.0000  0.0000  0.0000
 1163OM     OM1 1163   6.847   8.913   9.463  0.0000  0.0000  0.0000
 1164OM     OM1 1164   5.741   4.556   0.279  0.0000  0.0000  0.0000
 1165OM     OM1 1165   5.949   4.625   0.126  0.0000  0.0000  0.0000
 1166OM     OM1 1166   5.716   4.750   0.111  0.0000  0.0000  0.0000
 1167OM     OM1 1167   5.735   4.496   0.036  0.0000  0.0000  0.0000
 1168OM     OM1 1168   0.701   0.290   1.125  0.0000  0.0000  0.0000
 1169OM     OM1 1169   0.858   0.426   0.958  0.0000  0.0000  0.0000
 1170OM     OM1 1170   0.746   0.542   1.162  0.0000  0.0000  0.0000
 1171OM     OM1 1171   0.947   0.351   1.185  0.0000  0.0000  0.0000
 1172OM     OM1 1172   0.630   4.952   9.008  0.0000  0.0000  0.0000
 1173OM     OM1 1173   0.824   5.112   9.065  0.0000  0.0000  0.0000
 1174OM     OM1 1174   0.587   5.202   9.068  0.0000  0.0000  0.0000
 1175OM     OM1 1175   0.655   5.038   9.263  0.0000  0.0000  0.0000
 1176OM     OM1 1176   0.709   4.161   9.425  0.0000  0.0000  0.0000
 1177OM     OM1 1177   0.795   3.917   9.446  0.0000  0.0000  0.0000
 1178OM     OM1 1178   0.859   4.098   0.026  0.0000  0.0000  0.0000
 1179OM     OM1 1179   7.237   1.138   8.372  0.0000  0.0000  0.0000
 1180OM     OM1 1180   7.282   1.226   8.128  0.0000  0.0000  0.0000
 1181OM     OM1 1181   1.927   7.135   0.190  0.0000  0.0000  0.0000
 1182OM     OM1 1182   2.098   7.119   0.394  0.0000  0.0000  0.0000
 1183OM     OM1 1183   1.893   6.946   0.366  0.0000  0.0000  0.0000
 1184OM     OM1 1184   2.097   6.931   0.222  0.0000  0.0000  0.0000
 1185OM     OM1 1185   8.815   8.394   0.735  0.0000  0.0000  0.0000
 1186OM     OM1 1186   8.974   8.600   0.734  0.0000  0.0000  0.0000
 1187OM     OM1 1187   8.958   8.444   0.527  0.0000  0.0000  0.0000
 1188OM     OM1 1188   9.073   8.361   0.745  0.0000  0.0000  0.0000
 1189OM     OM1 1189   8.367   6.965   9.374  0.0000  0.0000  0.0000
 1190OM     OM1 1190   8.325   6.802   9.585  0.0000  0.0000  0.0000
 1191OM     OM1 1191   8.483   6.743   9.380  0.0000  0.0000  0.0000
 1192OM     OM1 1192   8.241   7.030   9.165  0.0000  0.0000  0.0000
 1193OM     OM1 1193   2.675   0.305   8.959  0.0000  0.0000  0.0000
 1194OM     OM1 1194   2.475   0.311   8.806  0.0000  0.0000  0.0000
 1195OM     OM1 1195   2.643   0.104   8.794  0.0000  0.0000  0.0000
 1196OM     OM1 1196   2.712   0.331   8.699  0.0000  0.0000  0.0000
 1197OM     OM1 1197   7.556   5.059   9.559  0.0000  0.0000  0.0000
 1198OM     OM1 1198   7.796   5.106   0.047  0.0000  0.0000  0.0000
 1199OM     OM1 1199   0.653   9.540   0.533  0.0000  0.0000  0.0000
 1200OM     OM1 1200   0.724   9.078   0.631  0.0000  0.0000  0.0000
 1201OM     OM1 1201   0.807   9.334   0.556  0.0000  0.0000  0.0000
 1202OM     OM1 1202   0.600   9.299   0.685  0.0000  0.0000  0.0000
 1203OM     OM1 1203   7.274   5.950   9.107  0.0000  0.0000  0.0000
 1204OM     OM1 1204   7.557   5.961   8.777  0.0000  0.0000  0.0000
 1205OM     OM1 1205   7.454   5.737   8.820  0.0000  0.0000  0.0000
 1206OM     OM1 1206   1.848   4.144   1.236  0.0000  0.0000  0.0000
 1207OM     OM1 1207   2.027   4.301   1.349  0.0000  0.0000  0.0000
 1208OM     OM1 1208   1.352   1.058   0.816  0.0000  0.0000  0.0000
 1209OM     OM1 1209   1.372   1.236   1.011  0.0000  0.0000  0.0000
 1210OM     OM1 1210   1.224   1.016   1.032  0.0000  0.0000  0.0000
 1211OM     OM1 1211   8.902   7.902   9.089  0.0000  0.0000  0.0000
 1212OM     OM1 1212   8.881   7.715   9.275  0.0000  0.0000  0.0000
 1213OM     OM1 1213   8.759   7.939   9.304  0.0000  0.0000  0.0000
 1214OM     OM1 1214   9.018   7.930   9.329  0.0000  0.0000  0.0000
 1215OM     OM1 1215   7.752   2.058   0.984  0.0000  0.0000  0.0000
 1216OM     OM1 1216   7.999   2.103   1.073  0.0000  0.0000  0.0000
 1217OM     OM1 1217   7.959   2.037   0.825  0.0000  0.0000  0.0000
 1218OM     OM1 1218   7.867   2.270   0.900  0.0000  0.0000  0.0000
 1219OM     OM1 1219   5.446   5.934   8.796  0.0000  0.0000  0.0000
 1220OM     OM1 1220   5.281   5.566   8.757  0.0000  0.0000  0.0000
 1221OM     OM1 1221   5.339   5.924   8.556  0.0000  0.0000  0.0000
 1222OM     OM1 1222   3.043   5.763   8.264  0.0000  0.0000  0.0000
 1223OM     OM1 1223   3.169   5.989   8.280  0.0000  0.0000  0.0000
 1224OM     OM1 1224   3.287   5.768   8.176  0.0000  0.0000  0.0000
 1225OM     OM1 1225   4.531   6.466   0.498  0.0000  0.0000  0.0000
 1226OM     OM1 1226   4.546   6.452   0.248  0.0000  0.0000  0.0000
 1227OM     OM1 1227   4.441   6.675   0.368  0.0000  0.0000  0.0000
 1228OM     OM1 1228   4.692   6.627   0.355  0.0000  0.0000  0.0000
 1229OM     OM1 1229   0.428   1.586   8.649  0.0000  0.0000  0.0000
 1230OM     OM1 1230   0.622   1.644   8.495  0.0000  0.0000  0.0000
 1231OM     OM1 1231   0.381   1.688   8.409  0.0000  0.0000  0.0000
 1232OM     OM1 1232   0.478   1.837   8.596  0.0000  0.0000  0.0000
 1233OM     OM1 1233   4.964   2.686   0.194  0.0000  0.0000  0.0000
 1234OM     OM1 1234   4.719   2.698   0.270  0.0000  0.0000  0.0000
 1235OM     OM1 1235   4.790   2.773   0.018  0.0000  0.0000  0.0000
 1236OM     OM1 1236   4.758   2.530   0.081  0.0000  0.0000  0.0000
 1237OM     OM1 1237   9.228   4.008   8.463  0.0000  0.0000  0.0000
 1238OM     OM1 1238   9.479   3.948   8.406  0.0000  0.0000  0.0000
 1239OM     OM1 1239   9.299   3.766   8.451  0.0000  0.0000  0.0000
 1240OM     OM1 1240   7.178   1.916   8.421  0.0000  0.0000  0.0000
 1241OM     OM1 1241   7.089   2.015   8.642  0.0000  0.0000  0.0000
 1242OM     OM1 1242   7.231   1.798   8.653  0.0000  0.0000  0.0000
 1243OM     OM1 1243   8.053   7.867   9.211  0.0000  0.0000  0.0000
 1244OM     OM1 1244   8.201   7.663   9.283  0.0000  0.0000  0.0000
 1245OM     OM1 1245   8.282   7.918   9.323  0.0000  0.0000  0.0000
 1246OM     OM1 1246   2.091   4.511   9.022  0.0000  0.0000  0.0000
 1247OM     OM1 1247   2.105   4.374   9.237  0.0000  0.0000  0.0000
 1248OM     OM1 1248   2.186   4.257   9.026  0.0000  0.0000  0.0000
 1249OM     OM1 1249   2.320   4.465   9.140  0.0000  0.0000  0.0000
 1250OM     OM1 1250   3.495   0.377   9.261  0.0000  0.0000  0.0000
 1251OM     OM1 1251   3.564   0.548   9.452  0.0000  0.0000  0.0000
 1252OM     OM1 1252   3.311   0.516   9.391  0.0000  0.0000  0.0000
 1253OM     OM1 1253   3.479   0.632   9.230  0.0000  0.0000  0.0000
 1254OM     OM1 1254   8.368   9.195   0.247  0.0000  0.0000  0.0000
 1255OM     OM1 1255   8.396   9.158   0.508  0.0000  0.0000  0.0000
 1256OM     OM1 1256   8.163   9.219   0.436  0.0000  0.0000  0.0000
 1257OM     OM1 1257   8.329   9.402   0.406  0.0000  0.0000  0.0000
 1258OM     OM1 1258   1.798   1.990   1.108  0.0000  0.0000  0.0000
 1259OM     OM1 1259   1.415   6.837   1.284  0.0000  0.0000  0.0000
 1260OM     OM1 1260   1.177   6.801   1.262  0.0000  0.0000  0.0000
 1261OM     OM1 1261   1.324   6.587   1.192  0.0000  0.0000  0.0000
 1262OM     OM1 1262   1.335   6.801   1.045  0.0000  0.0000  0.0000
 1263OM     OM1 1263   4.904   3.105   8.609  0.0000  0.0000  0.0000
 1264OM     OM1 1264   4.811   3.138   8.846  0.0000  0.0000  0.0000
 1265OM     OM1 1265   4.765   2.916   8.716  0.0000  0.0000  0.0000
 1266OM     OM1 1266   6.718   4.652   0.910  0.0000  0.0000  0.0000
 1267OM     OM1 1267   6.503   4.510   0.963  0.0000  0.0000  0.0000
 1268OM     OM1 1268   6.498   4.742   0.827  0.0000  0.0000  0.0000
 1269OM     OM1 1269   6.548   4.732   1.089  0.0000  0.0000  0.0000
 1270OM     OM1 1270   5.441   0.217   0.499  0.0000  0.0000  0.0000
 1271OM     OM1 1271   5.571   0.054   0.653  0.0000  0.0000  0.0000
 1272OM     OM1 1272   5.369   0.170   0.752  0.0000  0.0000  0.0000
 1273OM     OM1 1273   5.330   9.599   0.560  0.0000  0.0000  0.0000
 1274OM     OM1 1274   6.050   7.124   9.552  0.0000  0.0000  0.0000
 1275OM     OM1 1275   6.247   7.293   9.548  0.0000  0.0000  0.0000
 1276OM     OM1 1276   6.231   7.076   9.377  0.0000  0.0000  0.0000
 1277OM     OM1 1277   6.078   7.272   9.342  0.0000  0.0000  0.0000
 1278OM     OM1 1278   3.122   0.597   9.560  0.0000  0.0000  0.0000
 1279OM     OM1 1279   2.948   0.654   0.138  0.0000  0.0000  0.0000
 1280OM     OM1 1280   2.914   0.448   0.013  0.0000  0.0000  0.0000
 1281OM     OM1 1281   3.130   0.455   0.172  0.0000  0.0000  0.0000
 1282OM     OM1 1282   1.120   7.387   0.085  0.0000  0.0000  0.0000
 1283OM     OM1 1283   1.064   7.645   0.042  0.0000  0.0000  0.0000
 1284OM     OM1 1284   1.172   7.510   0.426  0.0000  0.0000  0.0000
 1285OM     OM1 1285   1.261   7.580   0.185  0.0000  0.0000  0.0000
 1286OM     OM1 1286   8.251   8.538   8.492  0.0000  0.0000  0.0000
 1287OM     OM1 1287   8.187   8.355   8.659  0.0000  0.0000  0.0000
 1288OM     OM1 1288   8.468   8.527   8.327  0.0000  0.0000  0.0000
 1289OM     OM1 1289   4.618   6.975   8.742  0.0000  0.0000  0.0000
 1290OM     OM1 1290   4.591   6.734   8.643  0.0000  0.0000  0.0000
 1291OM     OM1 1291   4.521   6.951   8.504  0.0000  0.0000  0.0000
 1292OM     OM1 1292   4.629   4.097   8.806  0.0000  0.0000  0.0000
 1293OM     OM1 1293   4.726   4.326   8.743  0.0000  0.0000  0.0000
 1294OM     OM1 1294   4.488   4.269   8.659  0.0000  0.0000  0.0000
 1295OM     OM1 1295   4.688   4.142   8.554  0.0000  0.0000  0.0000
 1296OM     OM1 1296   0.404   1.413   0.095  0.0000  0.0000  0.0000
 1297OM     OM1 1297   0.455   1.223   0.270  0.0000  0.0000  0.0000
 1298OM     OM1 1298   0.303   1.177   0.069  0.0000  0.0000  0.0000
 1299OM     OM1 1299   1.669   2.992   8.900  0.0000  0.0000  0.0000
 1300OM     OM1 1300   1.479   3.089   8.738  0.0000  0.0000  0.0000
 1301OM     OM1 1301   1.508   3.163   8.986  0.0000  0.0000  0.0000
 1302OM     OM1 1302   1.421   2.925   8.933  0.0000  0.0000  0.0000
 1303OM     OM1 1303   0.614   8.607   0.508  0.0000  0.0000  0.0000
 1304OM     OM1 1304   0.535   8.971   0.781  0.0000  0.0000  0.0000
 1305OM     OM1 1305   0.701   8.814   0.663  0.0000  0.0000  0.0000
 1306OM     OM1 1306   0.864   8.675   0.514  0.0000  0.0000  0.0000
 1307OM     OM1 1307   3.524   4.042   9.102  0.0000  0.0000  0.0000
 1308OM     OM1 1308   3.357   3.841   9.054  0.0000  0.0000  0.0000
 1309OM     OM1 1309   3.292   4.094   9.017  0.0000  0.0000  0.0000
 1310OM     OM1 1310   4.503   6.205   0.555  0.0000  0.0000  0.0000
 1311OM     OM1 1311   4.401   6.391   0.706  0.0000  0.0000  0.0000
 1312OM     OM1 1312   4.653   6.373   0.705  0.0000  0.0000  0.0000
 1313OM     OM1 1313   9.336   9.467   0.756  0.0000  0.0000  0.0000
 1314OM     OM1 1314   9.152   0.038   0.695  0.0000  0.0000  0.0000
 1315OM     OM1 1315   9.229   9.463   0.522  0.0000  0.0000  0.0000
 1316OM     OM1 1316   9.387   0.063   0.589  0.0000  0.0000  0.0000
 1317OM     OM1 1317   4.148   6.796   0.731  0.0000  0.0000  0.0000
 1318OM     OM1 1318   4.360   6.917   0.787  0.0000  0.0000  0.0000
 1319OM     OM1 1319   4.321   6.828   0.541  0.0000  0.0000  0.0000
 1320OM     OM1 1320   4.357   6.649   0.728  0.0000  0.0000  0.0000
 1321OM     OM1 1321   5.639   0.203   0.324  0.0000  0.0000  0.0000
 1322OM     OM1 1322   5.884   0.258   0.387  0.0000  0.0000  0.0000
 1323OM     OM1 1323   5.842   0.144   0.162  0.0000  0.0000  0.0000
 1324OM     OM1 1324   5.757   0.393   0.196  0.0000  0.0000  0.0000
 1325OM     OM1 1325   9.456   2.113   8.496  0.0000  0.0000  0.0000
 1326OM     OM1 1326   9.299   1.923   8.567  0.0000  0.0000  0.0000
 1327OM     OM1 1327   9.425   1.912   8.338  0.0000  0.0000  0.0000
 1328OM     OM1 1328   9.565   1.878   8.545  0.0000  0.0000  0.0000
 1329OM     OM1 1329   8.225   4.025   8.306  0.0000  0.0000  0.0000
 1330OM     OM1 1330   8.280   4.280   8.270  0.0000  0.0000  0.0000
 1331OM     OM1 1331   8.021   3.883   8.377  0.0000  0.0000  0.0000
 1332OM     OM1 1332   6.108   4.822   0.552  0.0000  0.0000  0.0000
 1333OM     OM1 1333   6.194   4.671   0.751  0.0000  0.0000  0.0000
 1334OM     OM1 1334   6.226   4.601   0.497  0.0000  0.0000  0.0000
 1335OM     OM1 1335   6.366   4.790   0.604  0.0000  0.0000  0.0000
 1336OM     OM1 1336   3.666   3.067   8.555  0.0000  0.0000  0.0000
 1337OM     OM1 1337   3.926   2.993   8.508  0.0000  0.0000  0.0000
 1338OM     OM1 1338   3.724   2.823   8.527  0.0000  0.0000  0.0000
 1339OM     OM1 1339   3.819   2.937   8.733  0.0000  0.0000  0.0000
 1340OM     OM1 1340   5.636   9.383   9.481  0.0000  0.0000  0.0000
 1341OM     OM1 1341   5.840   9.490   9.365  0.0000  0.0000  0.0000
 1342OM     OM1 1342   5.804   9.540   0.008  0.0000  0.0000  0.0000
 1343OM     OM1 1343   7.920   7.319   8.275  0.0000  0.0000  0.0000
 1344OM     OM1 1344   7.675   7.240   8.215  0.0000  0.0000  0.0000
 1345OM     OM1 1345   8.124   8.679   0.367  0.0000  0.0000  0.0000
 1346OM     OM1 1346   7.934   8.581   0.526  0.0000  0.0000  0.0000
 1347OM     OM1 1347   7.873   8.701   0.305  0.0000  0.0000  0.0000
 1348OM     OM1 1348   7.974   8.847   0.496  0.0000  0.0000  0.0000
 1349OM     OM1 1349   0.213   4.437   0.709  0.0000  0.0000  0.0000
 1350OM     OM1 1350   0.225   4.449   0.437  0.0000  0.0000  0.0000
 1351OM     OM1 1351   0.425   4.368   0.592  0.0000  0.0000  0.0000
 1352OM     OM1 1352   0.299   4.305   0.240  0.0000  0.0000  0.0000
 1353OM     OM1 1353   7.137   2.811   0.302  0.0000  0.0000  0.0000
 1354OM     OM1 1354   6.690   2.623   0.317  0.0000  0.0000  0.0000
 1355OM     OM1 1355   6.904   2.919   0.338  0.0000  0.0000  0.0000
 1356OM     OM1 1356   6.916   2.695   0.216  0.0000  0.0000  0.0000
 1357OM     OM1 1357   2.160   5.169   8.886  0.0000  0.0000  0.0000
 1358OM     OM1 1358   1.837   4.840   8.727  0.0000  0.0000  0.0000
 1359OM     OM1 1359   1.967   5.169   9.062  0.0000  0.0000  0.0000
 1360OM     OM1 1360   2.000   4.960   8.906  0.0000  0.0000  0.0000
 1361OM     OM1 1361   1.851   7.737   9.033  0.0000  0.0000  0.0000
 1362OM     OM1 1362   1.894   7.480   9.100  0.0000  0.0000  0.0000
 1363OM     OM1 1363   1.711   7.553   8.925  0.0000  0.0000  0.0000
 1364OM     OM1 1364   1.683   7.601   9.181  0.0000  0.0000  0.0000
 1365OM     OM1 1365   5.581   2.426   0.475  0.0000  0.0000  0.0000
 1366OM     OM1 1366   5.766   2.478   0.651  0.0000  0.0000  0.0000
 1367OM     OM1 1367   5.498   2.437   0.710  0.0000  0.0000  0.0000
 1368OM     OM1 1368   5.575   2.654   0.597  0.0000  0.0000  0.0000
 1369OM     OM1 1369   4.427   3.631   8.390  0.0000  0.0000  0.0000
 1370OM     OM1 1370   4.373   3.883   8.417  0.0000  0.0000  0.0000
 1371OM     OM1 1371   4.563   3.765   8.569  0.0000  0.0000  0.0000
 1372OM     OM1 1372   4.594   3.822   8.314  0.0000  0.0000  0.0000
 1373OM     OM1 1373   3.928   3.210   0.702  0.0000  0.0000  0.0000
 1374OM     OM1 1374   4.152   3.176   0.575  0.0000  0.0000  0.0000
 1375OM     OM1 1375   3.952   3.307   0.460  0.0000  0.0000  0.0000
 1376OM     OM1 1376   6.185   8.840   9.386  0.0000  0.0000  0.0000
 1377OM     OM1 1377   6.415   8.758   9.286  0.0000  0.0000  0.0000
 1378OM     OM1 1378   6.310   8.976   9.199  0.0000  0.0000  0.0000
 1379OM     OM1 1379   6.408   8.957   9.445  0.0000  0.0000  0.0000
 1380OM     OM1 1380   4.006   8.720   8.327  0.0000  0.0000  0.0000
 1381OM     OM1 1381   4.159   8.934   8.321  0.0000  0.0000  0.0000
 1382OM     OM1 1382   4.252   8.720   8.231  0.0000  0.0000  0.0000
 1383OM     OM1 1383   1.616   2.023   8.722  0.0000  0.0000  0.0000
 1384OM     OM1 1384   1.749   2.010   8.949  0.0000  0.0000  0.0000
 1385OM     OM1 1385   1.872   1.978   8.727  0.0000  0.0000  0.0000
 1386OM     OM1 1386   1.705   1.794   8.824  0.0000  0.0000  0.0000
 1387OM     OM1 1387   2.600   0.734   1.082  0.0000  0.0000  0.0000
 1388OM     OM1 1388   2.754   0.945   1.088  0.0000  0.0000  0.0000
 1389OM     OM1 1389   2.846   0.718   0.986  0.0000  0.0000  0.0000
 1390OM     OM1 1390   2.688   6.721   0.896  0.0000  0.0000  0.0000
 1391OM     OM1 1391   2.618   6.703   0.632  0.0000  0.0000  0.0000
 1392OM     OM1 1392   2.814   6.851   0.716  0.0000  0.0000  0.0000
 1393OM     OM1 1393   2.823   6.582   0.721  0.0000  0.0000  0.0000
 1394OM     OM1 1394   4.585   6.338   8.879  0.0000  0.0000  0.0000
 1395OM     OM1 1395   4.576   6.494   9.088  0.0000  0.0000  0.0000
 1396OM     OM1 1396   4.745   6.537   8.898  0.0000  0.0000  0.0000
 1397OM     OM1 1397   4.497   6.589   8.850  0.0000  0.0000  0.0000
 1398OM     OM1 1398   3.851   3.289   8.931  0.0000  0.0000  0.0000
 1399OM     OM1 1399   3.737   3.522   8.998  0.0000  0.0000  0.0000
 1400OM     OM1 1400   3.709   3.309   9.145  0.0000  0.0000  0.0000
 1401OM     OM1 1401   3.587   3.327   8.916  0.0000  0.0000  0.0000
 1402OM     OM1 1402   2.781   8.578   8.996  0.0000  0.0000  0.0000
 1403OM     OM1 1403   2.475   8.403   9.347  0.0000  0.0000  0.0000
 1404OM     OM1 1404   2.555   8.538   8.872  0.0000  0.0000  0.0000
 1405OM     OM1 1405   2.588   8.469   9.125  0.0000  0.0000  0.0000
 1406OM     OM1 1406   2.376   4.564   8.399  0.0000  0.0000  0.0000
 1407OM     OM1 1407   2.562   4.407   8.281  0.0000  0.0000  0.0000
 1408OM     OM1 1408   2.622   4.636   8.403  0.0000  0.0000  0.0000
 1409OM     OM1 1409   3.274   6.161   9.131  0.0000  0.0000  0.0000
 1410OM     OM1 1410   3.196   6.362   9.268  0.0000  0.0000  0.0000
 1411OM     OM1 1411   3.117   6.269   9.494  0.0000  0.0000  0.0000
 1412OM     OM1 1412   3.000   6.186   9.277  0.0000  0.0000  0.0000
 1413OM     OM1 1413   8.914   2.136   8.359  0.0000  0.0000  0.0000
 1414OM     OM1 1414   8.726   2.040   8.204  0.0000  0.0000  0.0000
 1415OM     OM1 1415   7.863   2.464   0.711  0.0000  0.0000  0.0000
 1416OM     OM1 1416   7.732   2.491   0.943  0.0000  0.0000  0.0000
 1417OM     OM1 1417   7.648   2.329   0.758  0.0000  0.0000  0.0000
 1418OM     OM1 1418   7.398   2.836   9.099  0.0000  0.0000  0.0000
 1419OM     OM1 1419   7.316   2.617   9.232  0.0000  0.0000  0.0000
 1420OM     OM1 1420   7.423   2.609   8.998  0.0000  0.0000  0.0000
 1421OM     OM1 1421   7.180   2.729   9.034  0.0000  0.0000  0.0000
 1422OM     OM1 1422   5.646   8.221   8.836  0.0000  0.0000  0.0000
 1423OM     OM1 1423   5.770   8.426   8.753  0.0000  0.0000  0.0000
 1424OM     OM1 1424   5.908   8.255   8.901  0.0000  0.0000  0.0000
 1425OM     OM1 1425   5.733   8.402   9.012  0.0000  0.0000  0.0000
 1426OM     OM1 1426   3.895   0.466   9.239  0.0000  0.0000  0.0000
 1427OM     OM1 1427   4.152   0.476   9.249  0.0000  0.0000  0.0000
 1428OM     OM1 1428   4.041   0.270   9.359  0.0000  0.0000  0.0000
 1429OM     OM1 1429   4.012   0.497   9.473  0.0000  0.0000  0.0000
 1430OM     OM1 1430   2.507   7.812   9.404  0.0000  0.0000  0.0000
 1431OM     OM1 1431   2.385   7.961   9.576  0.0000  0.0000  0.0000
 1432OM     OM1 1432   2.615   7.882   0.037  0.0000  0.0000  0.0000
 1433OM     OM1 1433   0.066   5.138   9.153  0.0000  0.0000  0.0000
 1434OM     OM1 1434   0.064   5.194   9.413  0.0000  0.0000  0.0000
 1435OM     OM1 1435   9.464   5.098   9.294  0.0000  0.0000  0.0000
 1436OM     OM1 1436   0.042   8.943   0.178  0.0000  0.0000  0.0000
 1437OM     OM1 1437   9.476   9.131   0.255  0.0000  0.0000  0.0000
 1438OM     OM1 1438   9.403   8.947   0.086  0.0000  0.0000  0.0000
 1439OM     OM1 1439   9.429   8.892   0.339  0.0000  0.0000  0.0000
 1440OM     OM1 1440   3.120   3.432   0.178  0.0000  0.0000  0.0000
 1441OM     OM1 1441   3.294   3.358   0.358  0.0000  0.0000  0.0000
 1442OM     OM1 1442   3.180   3.591   0.371  0.0000  0.0000  0.0000
 1443OM     OM1 1443   4.427   4.282   8.405  0.0000  0.0000  0.0000
 1444OM     OM1 1444   4.279   4.386   8.229  0.0000  0.0000  0.0000
 1445OM     OM1 1445   3.496   2.522   9.183  0.0000  0.0000  0.0000
 1446OM     OM1 1446   3.355   2.636   9.359  0.0000  0.0000  0.0000
 1447OM     OM1 1447   3.497   2.421   9.418  0.0000  0.0000  0.0000
 1448OM     OM1 1448   3.630   2.639   9.378  0.0000  0.0000  0.0000
 1449OM     OM1 1449   7.065   7.865   8.350  0.0000  0.0000  0.0000
 1450OM     OM1 1450   7.166   7.653   8.247  0.0000  0.0000  0.0000
 1451OM     OM1 1451   5.260   4.762   9.165  0.0000  0.0000  0.0000
 1452OM     OM1 1452   5.136   4.874   8.956  0.0000  0.0000  0.0000
 1453OM     OM1 1453   5.121   4.988   9.187  0.0000  0.0000  0.0000
 1454OM     OM1 1454   4.220   2.626   8.410  0.0000  0.0000  0.0000
 1455OM     OM1 1455   3.997   2.713   8.299  0.0000  0.0000  0.0000
 1456OM     OM1 1456   4.147   2.877   8.438  0.0000  0.0000  0.0000
 1457OM     OM1 1457   7.926   9.187   0.368  0.0000  0.0000  0.0000
 1458OM     OM1 1458   7.979   9.370   0.552  0.0000  0.0000  0.0000
 1459OM     OM1 1459   7.992   9.101   0.597  0.0000  0.0000  0.0000
 1460OM     OM1 1460   8.465   2.378   0.643  0.0000  0.0000  0.0000
 1461OM     OM1 1461   8.277   2.676   0.901  0.0000  0.0000  0.0000
 1462OM     OM1 1462   8.501   2.627   0.778  0.0000  0.0000  0.0000
 1463OM     OM1 1463   8.225   2.615   0.382  0.0000  0.0000  0.0000
 1464OM     OM1 1464   6.504   9.582   9.369  0.0000  0.0000  0.0000
 1465OM     OM1 1465   6.530   9.575   0.022  0.0000  0.0000  0.0000
 1466OM     OM1 1466   6.288   0.031   9.517  0.0000  0.0000  0.0000
 1467OM     OM1 1467   6.494   0.191   9.517  0.0000  0.0000  0.0000
 1468OM     OM1 1468   5.969   6.704   8.491  0.0000  0.0000  0.0000
 1469OM     OM1 1469   5.949   7.062   8.504  0.0000  0.0000  0.0000
 1470OM     OM1 1470   6.086   6.884   8.325  0.0000  0.0000  0.0000
 1471OM     OM1 1471   5.909   7.058   8.253  0.0000  0.0000  0.0000
 1472OM     OM1 1472   9.242   8.984   0.504  0.0000  0.0000  0.0000
 1473OM     OM1 1473   9.195   9.213   0.597  0.0000  0.0000  0.0000
 1474OM     OM1 1474   9.017   9.015   0.644  0.0000  0.0000  0.0000
 1475OM     OM1 1475   9.237   9.018   0.762  0.0000  0.0000  0.0000
 1476OM     OM1 1476   2.043   6.976   1.445  0.0000  0.0000  0.0000
 1477OM     OM1 1477   1.847   7.021   1.283  0.0000  0.0000  0.0000
 1478OM     OM1 1478   7.726   3.000   0.989  0.0000  0.0000  0.0000
 1479OM     OM1 1479   7.515   3.096   0.886  0.0000  0.0000  0.0000
 1480OM     OM1 1480   7.727   3.254   0.935  0.0000  0.0000  0.0000
 1481OM     OM1 1481   7.581   3.172   1.134  0.0000  0.0000  0.0000
 1482OM     OM1 1482   4.254   6.625   9.459  0.0000  0.0000  0.0000
 1483OM     OM1 1483   4.502   6.698   9.506  0.0000  0.0000  0.0000
 1484OM     OM1 1484   4.283   6.773   0.057  0.0000  0.0000  0.0000
 1485OM     OM1 1485   4.317   6.869   9.423  0.0000  0.0000  0.0000
 1486OM     OM1 1486   2.543   3.877   0.560  0.0000  0.0000  0.0000
 1487OM     OM1 1487   2.753   3.753   0.638  0.0000  0.0000  0.0000
 1488OM     OM1 1488   2.717   3.795   0.373  0.0000  0.0000  0.0000
 1489OM     OM1 1489   2.578   3.619   0.509  0.0000  0.0000  0.0000
 1490OM     OM1 1490   5.367   8.077   0.604  0.0000  0.0000  0.0000
 1491OM     OM1 1491   5.319   8.178   0.832  0.0000  0.0000  0.0000
 1492OM     OM1 1492   5.153   8.222   0.632  0.0000  0.0000  0.0000
 1493OM     OM1 1493   5.390   8.339   0.630  0.0000  0.0000  0.0000
 1494OM     OM1 1494   5.749   1.953   8.633  0.0000  0.0000  0.0000
 1495OM     OM1 1495   5.811   1.823   8.413  0.0000  0.0000  0.0000
 1496OM     OM1 1496   5.571   1.908   8.437  0.0000  0.0000  0.0000
 1497OM     OM1 1497   5.642   1.724   8.603  0.0000  0.0000  0.0000
 1498OM     OM1 1498   8.587   3.490   0.381  0.0000  0.0000  0.0000
 1499OM     OM1 1499   8.241   3.453   0.104  0.0000  0.0000  0.0000
 1500OM     OM1 1500   8.406   3.328   0.258  0.0000  0.0000  0.0000
 1501OM     OM1 1501   8.605   3.434   0.131  0.0000  0.0000  0.0000
 1502OM     OM1 1502   6.939   8.146   0.599  0.0000  0.0000  0.0000
 1503OM     OM1 1503   7.128   8.280   0.705  0.0000  0.0000  0.0000
 1504OM     OM1 1504   7.188   8.031   0.614  0.0000  0.0000  0.0000
 1505OM     OM1 1505   7.130   8.228   0.453  0.0000  0.0000  0.0000
 1506OM     OM1 1506   5.011   7.213   0.495  0.0000  0.0000  0.0000
 1507OM     OM1 1507   5.084   7.219   0.734  0.0000  0.0000  0.0000
 1508OM     OM1 1508   5.026   7.452   0.618  0.0000  0.0000  0.0000
 1509OM     OM1 1509   5.243   7.319   0.555  0.0000  0.0000  0.0000
 1510OM     OM1 1510   0.110   0.931   0.848  0.0000  0.0000  0.0000
 1511OM     OM1 1511   0.082   0.907   0.600  0.0000  0.0000  0.0000
 1512OM     OM1 1512   0.330   0.875   0.746  0.0000  0.0000  0.0000
 1513OM     OM1 1513   0.151   0.698   0.730  0.0000  0.0000  0.0000
 1514OM     OM1 1514   4.471   8.250   0.872  0.0000  0.0000  0.0000
 1515OM     OM1 1515   4.410   8.415   0.666  0.0000  0.0000  0.0000
 1516OM     OM1 1516   4.449   8.159   0.637  0.0000  0.0000  0.0000
 1517OM     OM1 1517   4.237   8.267   0.771  0.0000  0.0000  0.0000
 1518OM     OM1 1518   7.214   5.279   0.778  0.0000  0.0000  0.0000
 1519OM     OM1 1519   7.002   5.280   0.631  0.0000  0.0000  0.0000
 1520OM     OM1 1520   6.995   5.202   0.878  0.0000  0.0000  0.0000
 1521OM     OM1 1521   7.114   5.050   0.690  0.0000  0.0000  0.0000
 1522OM     OM1 1522   2.967   3.899   8.997  0.0000  0.0000  0.0000
 1523OM     OM1 1523   2.895   3.954   9.249  0.0000  0.0000  0.0000
 1524OM     OM1 1524   2.975   3.711   9.187  0.0000  0.0000  0.0000
 1525OM     OM1 1525   2.750   3.800   9.102  0.0000  0.0000  0.0000
 1526OM     OM1 1526   8.857   6.298   1.239  0.0000  0.0000  0.0000
 1527OM     OM1 1527   8.832   6.423   1.002  0.0000  0.0000  0.0000
 1528OM     OM1 1528   8.825   6.165   1.017  0.0000  0.0000  0.0000
 1529OM     OM1 1529   9.055   6.295   1.066  0.0000  0.0000  0.0000
 1530OM     OM1 1530   7.450   1.725   9.021  0.0000  0.0000  0.0000
 1531OM     OM1 1531   7.332   1.522   9.118  0.0000  0.0000  0.0000
 1532OM     OM1 1532   7.493   1.487   8.906  0.0000  0.0000  0.0000
 1533OM     OM1 1533   7.594   1.548   9.131  0.0000  0.0000  0.0000
 1534OM     OM1 1534   0.147   8.475   9.048  0.0000  0.0000  0.0000
 1535OM     OM1 1535   0.083   8.224   9.084  0.0000  0.0000  0.0000
 1536OM     OM1 1536   0.015   8.359   8.870  0.0000  0.0000  0.0000
 1537OM     OM1 1537   9.501   8.408   9.107  0.0000  0.0000  0.0000
 1538OM     OM1 1538   3.397   3.617   9.183  0.0000  0.0000  0.0000
 1539OM     OM1 1539   3.532   3.675   8.965  0.0000  0.0000  0.0000
 1540OM     OM1 1540   3.276   3.603   8.960  0.0000  0.0000  0.0000
 1541OM     OM1 1541   2.088   4.172   8.426  0.0000  0.0000  0.0000
 1542OM     OM1 1542   1.836   4.109   8.409  0.0000  0.0000  0.0000
 1543OM     OM1 1543   4.019   5.256   9.321  0.0000  0.0000  0.0000
 1544OM     OM1 1544   4.182   5.374   9.494  0.0000  0.0000  0.0000
 1545OM     OM1 1545   4.064   5.510   9.299  0.0000  0.0000  0.0000
 1546OM     OM1 1546   4.256   5.338   9.251  0.0000  0.0000  0.0000
 1547OM     OM1 1547   2.217   0.421   0.168  0.0000  0.0000  0.0000
 1548OM     OM1 1548   2.462   0.332   0.187  0.0000  0.0000  0.0000
 1549OM     OM1 1549   2.283   0.193   0.301  0.0000  0.0000  0.0000
 1550OM     OM1 1550   2.282   0.192   0.048  0.0000  0.0000  0.0000
 1551OM     OM1 1551   4.814   2.324   9.429  0.0000  0.0000  0.0000
 1552OM     OM1 1552   4.676   2.112   9.414  0.0000  0.0000  0.0000
 1553OM     OM1 1553   4.807   2.141   0.030  0.0000  0.0000  0.0000
 1554OM     OM1 1554   4.629   2.314   9.597  0.0000  0.0000  0.0000
 1555OM     OM1 1555   0.560   0.303   0.390  0.0000  0.0000  0.0000
 1556OM     OM1 1556   0.795   0.341   0.304  0.0000  0.0000  0.0000
 1557OM     OM1 1557   0.772   0.236   0.538  0.0000  0.0000  0.0000
 1558OM     OM1 1558   0.695   0.091   0.340  0.0000  0.0000  0.0000
 1559OM     OM1 1559   8.120   4.296   9.491  0.0000  0.0000  0.0000
 1560OM     OM1 1560   8.013   4.075   9.533  0.0000  0.0000  0.0000
 1561OM     OM1 1561   8.056   4.221   0.135  0.0000  0.0000  0.0000
 1562OM     OM1 1562   8.263   4.120   0.019  0.0000  0.0000  0.0000
 1563OM     OM1 1563   7.815   7.892   1.100  0.0000  0.0000  0.0000
 1564OM     OM1 1564   7.816   7.991   0.849  0.0000  0.0000  0.0000
 1565OM     OM1 1565   8.034   7.915   0.959  0.0000  0.0000  0.0000
 1566OM     OM1 1566   7.915   8.127   1.058  0.0000  0.0000  0.0000
 1567OM     OM1 1567   5.343   2.073   9.064  0.0000  0.0000  0.0000
 1568OM     OM1 1568   5.599   2.222   8.767  0.0000  0.0000  0.0000
 1569OM     OM1 1569   5.365   2.219   8.850  0.0000  0.0000  0.0000
 1570OM     OM1 1570   5.422   2.330   9.073  0.0000  0.0000  0.0000
 1571OM     OM1 1571   4.969   1.275   0.629  0.0000  0.0000  0.0000
 1572OM     OM1 1572   4.970   1.507   0.726  0.0000  0.0000  0.0000
 1573OM     OM1 1573   5.091   1.458   0.489  0.0000  0.0000  0.0000
 1574OM     OM1 1574   5.201   1.379   0.705  0.0000  0.0000  0.0000
 1575OM     OM1 1575   8.554   0.070   0.704  0.0000  0.0000  0.0000
 1576OM     OM1 1576   8.407   0.149   0.904  0.0000  0.0000  0.0000
 1577OM     OM1 1577   8.420   0.024   0.493  0.0000  0.0000  0.0000
 1578OM     OM1 1578   8.554   0.253   0.521  0.0000  0.0000  0.0000
 1579OM     OM1 1579   6.556   5.446   0.562  0.0000  0.0000  0.0000
 1580OM     OM1 1580   6.307   5.486   0.625  0.0000  0.0000  0.0000
 1581OM     OM1 1581   6.506   5.564   0.793  0.0000  0.0000  0.0000
 1582OM     OM1 1582   6.456   5.685   0.572  0.0000  0.0000  0.0000
 1583OM     OM1 1583   2.825   2.592   1.076  0.0000  0.0000  0.0000
 1584OM     OM1 1584   2.718   2.665   0.846  0.0000  0.0000  0.0000
 1585OM     OM1 1585   2.731   2.843   1.032  0.0000  0.0000  0.0000
 1586OM     OM1 1586   0.907   7.007   9.333  0.0000  0.0000  0.0000
 1587OM     OM1 1587   0.866   6.940   9.575  0.0000  0.0000  0.0000
 1588OM     OM1 1588   0.979   6.713   9.603  0.0000  0.0000  0.0000
 1589OM     OM1 1589   5.320   5.888   0.593  0.0000  0.0000  0.0000
 1590OM     OM1 1590   5.194   6.049   0.416  0.0000  0.0000  0.0000
 1591OM     OM1 1591   5.118   5.800   0.456  0.0000  0.0000  0.0000
 1592OM     OM1 1592   5.082   5.994   0.633  0.0000  0.0000  0.0000
 1593OM     OM1 1593   6.318   5.918   8.833  0.0000  0.0000  0.0000
 1594OM     OM1 1594   6.465   5.713   8.883  0.0000  0.0000  0.0000
 1595OM     OM1 1595   6.332   5.719   8.653  0.0000  0.0000  0.0000
 1596OM     OM1 1596   6.284   3.449   0.369  0.0000  0.0000  0.0000
 1597OM     OM1 1597   6.037   3.410   0.298  0.0000  0.0000  0.0000
 1598OM     OM1 1598   6.209   3.200   0.379  0.0000  0.0000  0.0000
 1599OM     OM1 1599   0.146   6.098   0.201  0.0000  0.0000  0.0000
 1600OM     OM1 1600   0.113   6.349   0.160  0.0000  0.0000  0.0000
 1601OM     OM1 1601   0.352   6.269   0.243  0.0000  0.0000  0.0000
 1602OM     OM1 1602   0.087   0.348   9.013  0.0000  0.0000  0.0000
 1603OM     OM1 1603   0.168   0.254   9.233  0.0000  0.0000  0.0000
 1604OM     OM1 1604   9.571   0.441   9.222  0.0000  0.0000  0.0000
 1605OM     OM1 1605   2.596   6.586   9.605  0.0000  0.0000  0.0000
 1606OM     OM1 1606   2.409   6.725   9.508  0.0000  0.0000  0.0000
 1607OM     OM1 1607   2.642   6.821   9.480  0.0000  0.0000  0.0000
 1608OM     OM1 1608   2.555   6.811   0.120  0.0000  0.0000  0.0000
 1609OM     OM1 1609   8.945   0.392   8.916  0.0000  0.0000  0.0000
 1610OM     OM1 1610   8.720   0.534   8.946  0.0000  0.0000  0.0000
 1611OM     OM1 1611   8.959   0.642   8.996  0.0000  0.0000  0.0000
 1612OM     OM1 1612   9.012   0.146   8.975  0.0000  0.0000  0.0000
 1613OM     OM1 1613   9.180   8.519   0.434  0.0000  0.0000  0.0000
 1614OM     OM1 1614   8.992   8.427   0.268  0.0000  0.0000  0.0000
 1615OM     OM1 1615   8.978   8.666   0.386  0.0000  0.0000  0.0000
 1616OM     OM1 1616   0.038   6.795   8.891  0.0000  0.0000  0.0000
 1617OM     OM1 1617   9.586   6.961   8.692  0.0000  0.0000  0.0000
 1618OM     OM1 1618   0.226   6.908   8.761  0.0000  0.0000  0.0000
 1619OM     OM1 1619   8.698   1.687   9.572  0.0000  0.0000  0.0000
 1620OM     OM1 1620   8.758   1.716   0.216  0.0000  0.0000  0.0000
 1621OM     OM1 1621   8.956   1.546   0.215  0.0000  0.0000  0.0000
 1622OM     OM1 1622   8.981   1.797   0.119  0.0000  0.0000  0.0000
 1623OM     OM1 1623   3.725   5.436   1.226  0.0000  0.0000  0.0000
 1624OM     OM1 1624   3.625   5.444   0.978  0.0000  0.0000  0.0000
 1625OM     OM1 1625   3.632   5.229   1.119  0.0000  0.0000  0.0000
 1626OM     OM1 1626   4.662   5.473   9.365  0.0000  0.0000  0.0000
 1627OM     OM1 1627   4.686   5.585   9.139  0.0000  0.0000  0.0000
 1628OM     OM1 1628   4.503   5.400   9.165  0.0000  0.0000  0.0000
 1629OM     OM1 1629   4.760   5.337   9.172  0.0000  0.0000  0.0000
 1630OM     OM1 1630   1.456   1.970   0.234  0.0000  0.0000  0.0000
 1631OM     OM1 1631   1.515   1.882   0.461  0.0000  0.0000  0.0000
 1632OM     OM1 1632   1.347   2.076   0.456  0.0000  0.0000  0.0000
 1633OM     OM1 1633   1.497   1.635   0.420  0.0000  0.0000  0.0000
 1634OM     OM1 1634   2.817   3.244   1.292  0.0000  0.0000  0.0000
 1635OM     OM1 1635   2.929   3.037   1.190  0.0000  0.0000  0.0000
 1636OM     OM1 1636   2.682   3.074   1.137  0.0000  0.0000  0.0000
 1637OM     OM1 1637   7.238   7.565   0.785  0.0000  0.0000  0.0000
 1638OM     OM1 1638   7.319   7.810   0.737  0.0000  0.0000  0.0000
 1639OM     OM1 1639   7.480   7.617   0.705  0.0000  0.0000  0.0000
 1640OM     OM1 1640   7.376   7.661   0.964  0.0000  0.0000  0.0000
 1641OM     OM1 1641   3.331   4.216   8.511  0.0000  0.0000  0.0000
 1642OM     OM1 1642   3.530   4.314   8.390  0.0000  0.0000  0.0000
 1643OM     OM1 1643   3.505   4.052   8.402  0.0000  0.0000  0.0000
 1644OM     OM1 1644   7.247   3.972   8.314  0.0000  0.0000  0.0000
 1645OM     OM1 1645   7.360   4.185   8.399  0.0000  0.0000  0.0000
 1646OM     OM1 1646   7.501   3.968   8.434  0.0000  0.0000  0.0000
 1647OM     OM1 1647   4.435   7.566   9.087  0.0000  0.0000  0.0000
 1648OM     OM1 1648   4.654   7.191   8.906  0.0000  0.0000  0.0000
 1649OM     OM1 1649   4.543   7.436   8.899  0.0000  0.0000  0.0000
 1650OM     OM1 1650   6.965   2.182   1.141  0.0000  0.0000  0.0000
 1651OM     OM1 1651   6.771   2.272   1.277  0.0000  0.0000  0.0000
 1652OM     OM1 1652   6.846   7.036   8.318  0.0000  0.0000  0.0000
 1653OM     OM1 1653   7.010   7.173   8.467  0.0000  0.0000  0.0000
 1654OM     OM1 1654   6.791   7.276   8.386  0.0000  0.0000  0.0000
 1655OM     OM1 1655   6.670   6.842   8.357  0.0000  0.0000  0.0000
 1656OM     OM1 1656   1.011   3.894   0.589  0.0000  0.0000  0.0000
 1657OM     OM1 1657   0.990   3.916   0.842  0.0000  0.0000  0.0000
 1658OM     OM1 1658   1.219   3.854   0.752  0.0000  0.0000  0.0000
 1659OM     OM1 1659   1.023   3.678   0.743  0.0000  0.0000  0.0000
 1660OM     OM1 1660   4.493   5.654   0.756  0.0000  0.0000  0.0000
 1661OM     OM1 1661   4.298   5.821   0.812  0.0000  0.0000  0.0000
 1662OM     OM1 1662   4.244   5.579   0.731  0.0000  0.0000  0.0000
 1663OM     OM1 1663   4.342   5.621   0.972  0.0000  0.0000  0.0000
 1664OM     OM1 1664   0.561   5.573   9.233  0.0000  0.0000  0.0000
 1665OM     OM1 1665   0.397   5.414   9.354  0.0000  0.0000  0.0000
 1666OM     OM1 1666   0.429   5.405   9.089  0.0000  0.0000  0.0000
 1667OM     OM1 1667   0.302   5.606   9.192  0.0000  0.0000  0.0000
 1668OM     OM1 1668   5.170   3.768   0.054  0.0000  0.0000  0.0000
 1669OM     OM1 1669   5.195   4.001   9.548  0.0000  0.0000  0.0000
 1670OM     OM1 1670   5.146   3.805   9.394  0.0000  0.0000  0.0000
 1671OM     OM1 1671   4.956   3.880   9.557  0.0000  0.0000  0.0000
 1672OM     OM1 1672   8.754   1.582   9.325  0.0000  0.0000  0.0000
 1673OM     OM1 1673   8.536   1.709   9.381  0.0000  0.0000  0.0000
 1674OM     OM1 1674   3.136   2.514   0.210  0.0000  0.0000  0.0000
 1675OM     OM1 1675   3.060   2.320   0.041  0.0000  0.0000  0.0000
 1676OM     OM1 1676   3.276   2.288   0.203  0.0000  0.0000  0.0000
 1677OM     OM1 1677   3.033   2.296   0.293  0.0000  0.0000  0.0000
 1678OM     OM1 1678   7.343   1.443   0.227  0.0000  0.0000  0.0000
 1679OM     OM1 1679   7.420   1.313   0.014  0.0000  0.0000  0.0000
 1680OM     OM1 1680   7.387   1.565   9.602  0.0000  0.0000  0.0000
 1681OM     OM1 1681   7.630   7.104   8.432  0.0000  0.0000  0.0000
 1682OM     OM1 1682   7.461   7.283   8.354  0.0000  0.0000  0.0000
 1683OM     OM1 1683   7.465   7.057   8.249  0.0000  0.0000  0.0000
 1684OM     OM1 1684   4.476   7.165   8.354  0.0000  0.0000  0.0000
 1685OM     OM1 1685   4.060   6.935   8.244  0.0000  0.0000  0.0000
 1686OM     OM1 1686   9.074   0.236   1.161  0.0000  0.0000  0.0000
 1687OM     OM1 1687   9.315   0.253   1.095  0.0000  0.0000  0.0000
 1688OM     OM1 1688   9.282   0.002   1.169  0.0000  0.0000  0.0000
 1689OM     OM1 1689   1.355   0.576   8.357  0.0000  0.0000  0.0000
 1690OM     OM1 1690   1.523   0.699   8.504  0.0000  0.0000  0.0000
 1691OM     OM1 1691   1.317   0.823   8.445  0.0000  0.0000  0.0000
 1692OM     OM1 1692   9.071   4.826   0.709  0.0000  0.0000  0.0000
 1693OM     OM1 1693   9.030   4.658   0.509  0.0000  0.0000  0.0000
 1694OM     OM1 1694   9.112   4.577   0.745  0.0000  0.0000  0.0000
 1695OM     OM1 1695   8.861   4.656   0.710  0.0000  0.0000  0.0000
 1696OM     OM1 1696   1.219   9.511   8.552  0.0000  0.0000  0.0000
 1697OM     OM1 1697   1.463   9.477   8.480  0.0000  0.0000  0.0000
 1698OM     OM1 1698   1.507   9.235   8.571  0.0000  0.0000  0.0000
 1699OM     OM1 1699   1.526   9.290   8.316  0.0000  0.0000  0.0000
 1700OM     OM1 1700   8.187   5.465   8.595  0.0000  0.0000  0.0000
 1701OM     OM1 1701   8.176   5.426   8.336  0.0000  0.0000  0.0000
 1702OM     OM1 1702   8.145   5.230   8.498  0.0000  0.0000  0.0000
 1703OM     OM1 1703   7.955   5.415   8.466  0.0000  0.0000  0.0000
 1704OM     OM1 1704   1.743   4.104   8.900  0.0000  0.0000  0.0000
 1705OM     OM1 1705   1.955   4.046   8.745  0.0000  0.0000  0.0000
 1706OM     OM1 1706   1.830   4.263   8.718  0.0000  0.0000  0.0000
 1707OM     OM1 1707   1.718   4.049   8.637  0.0000  0.0000  0.0000
 1708OM     OM1 1708   6.829   0.384   9.312  0.0000  0.0000  0.0000
 1709OM     OM1 1709   6.674   0.378   9.515  0.0000  0.0000  0.0000
 1710OM     OM1 1710   6.577   0.438   9.292  0.0000  0.0000  0.0000
 1711OM     OM1 1711   8.022   4.782   1.199  0.0000  0.0000  0.0000
 1712OM     OM1 1712   8.112   5.034   1.240  0.0000  0.0000  0.0000
 1713OM     OM1 1713   7.965   4.610   1.005  0.0000  0.0000  0.0000
 1714OM     OM1 1714   8.207   4.636   1.057  0.0000  0.0000  0.0000
 1715OM     OM1 1715   6.768   0.777   8.424  0.0000  0.0000  0.0000
 1716OM     OM1 1716   6.593   0.912   8.578  0.0000  0.0000  0.0000
 1717OM     OM1 1717   6.553   0.888   8.329  0.0000  0.0000  0.0000
 1718OM     OM1 1718   9.523   7.661   8.370  0.0000  0.0000  0.0000
 1719OM     OM1 1719   0.369   8.379   8.977  0.0000  0.0000  0.0000
 1720OM     OM1 1720   0.712   8.269   8.732  0.0000  0.0000  0.0000
 1721OM     OM1 1721   0.449   8.269   8.688  0.0000  0.0000  0.0000
 1722OM     OM1 1722   0.537   8.196   8.910  0.0000  0.0000  0.0000
 1723OM     OM1 1723   2.719   8.516   0.325  0.0000  0.0000  0.0000
 1724OM     OM1 1724   2.560   8.615   0.136  0.0000  0.0000  0.0000
 1725OM     OM1 1725   2.750   8.762   0.244  0.0000  0.0000  0.0000
 1726OM     OM1 1726   2.524   8.698   0.367  0.0000  0.0000  0.0000
 1727OM     OM1 1727   4.339   6.280   1.266  0.0000  0.0000  0.0000
 1728OM     OM1 1728   8.778   6.824   9.210  0.0000  0.0000  0.0000
 1729OM     OM1 1729   9.022   6.775   9.313  0.0000  0.0000  0.0000
 1730OM     OM1 1730   8.834   6.854   9.467  0.0000  0.0000  0.0000
 1731OM     OM1 1731   7.622   2.191   8.985  0.0000  0.0000  0.0000
 1732OM     OM1 1732   7.811   2.278   9.133  0.0000  0.0000  0.0000
 1733OM     OM1 1733   7.551   2.273   9.222  0.0000  0.0000  0.0000
 1734OM     OM1 1734   7.628   2.444   9.037  0.0000  0.0000  0.0000
 1735OM     OM1 1735   1.936   8.534   1.117  0.0000  0.0000  0.0000
 1736OM     OM1 1736   2.101   8.691   1.234  0.0000  0.0000  0.0000
 1737OM     OM1 1737   1.848   8.731   1.270  0.0000  0.0000  0.0000
 1738OM     OM1 1738   3.865   5.965   9.150  0.0000  0.0000  0.0000
 1739OM     OM1 1739   3.752   5.751   9.215  0.0000  0.0000  0.0000
 1740OM     OM1 1740   4.054   6.017   9.315  0.0000  0.0000  0.0000
 1741OM     OM1 1741   3.746   5.894   9.436  0.0000  0.0000  0.0000
 1742OM     OM1 1742   4.889   7.878   1.322  0.0000  0.0000  0.0000
 1743OM     OM1 1743   6.911   4.004   9.419  0.0000  0.0000  0.0000
 1744OM     OM1 1744   7.060   4.206   9.339  0.0000  0.0000  0.0000
 1745OM     OM1 1745   6.806   4.204   9.296  0.0000  0.0000  0.0000
 1746OM     OM1 1746   6.948   4.044   9.158  0.0000  0.0000  0.0000
 1747OM     OM1 1747   8.230   0.717   0.193  0.0000  0.0000  0.0000
 1748OM     OM1 1748   8.221   0.978   0.246  0.0000  0.0000  0.0000
 1749OM     OM1 1749   8.545   0.993   9.499  0.0000  0.0000  0.0000
 1750OM     OM1 1750   9.030   2.331   1.152  0.0000  0.0000  0.0000
 1751OM     OM1 1751   0.333   9.555   8.321  0.0000  0.0000  0.0000
 1752OM     OM1 1752   0.099   9.424   8.365  0.0000  0.0000  0.0000
 1753OM     OM1 1753   0.316   9.303   8.397  0.0000  0.0000  0.0000
 1754OM     OM1 1754   5.410   1.757   0.946  0.0000  0.0000  0.0000
 1755OM     OM1 1755   5.376   1.896   1.166  0.0000  0.0000  0.0000
 1756OM     OM1 1756   5.465   1.641   1.170  0.0000  0.0000  0.0000
 1757OM     OM1 1757   5.610   1.843   1.092  0.0000  0.0000  0.0000
 1758OM     OM1 1758   0.590   8.895   8.382  0.0000  0.0000  0.0000
 1759OM     OM1 1759   0.394   9.063   8.423  0.0000  0.0000  0.0000
 1760OM     OM1 1760   0.640   9.154   8.383  0.0000  0.0000  0.0000
 1761OM     OM1 1761   1.877   2.966   8.745  0.0000  0.0000  0.0000
 1762OM     OM1 1762   1.870   2.815   8.950  0.0000  0.0000  0.0000
 1763OM     OM1 1763   1.682   2.780   8.770  0.0000  0.0000  0.0000
 1764OM     OM1 1764   4.686   3.862   9.546  0.0000  0.0000  0.0000
 1765OM     OM1 1765   4.593   3.915   0.177  0.0000  0.0000  0.0000
 1766OM     OM1 1766   4.694   4.100   0.028  0.0000  0.0000  0.0000
 1767OM     OM1 1767   4.449   3.975   9.579  0.0000  0.0000  0.0000
 1768OM     OM1 1768   9.259   5.935   0.156  0.0000  0.0000  0.0000
 1769OM     OM1 1769   9.398   6.023   9.558  0.0000  0.0000  0.0000
 1770OM     OM1 1770   9.296   6.196   0.119  0.0000  0.0000  0.0000
 1771OM     OM1 1771   9.493   6.052   0.196  0.0000  0.0000  0.0000
 1772OM     OM1 1772   5.078   1.986   8.296  0.0000  0.0000  0.0000
 1773OM     OM1 1773   5.129   2.116   8.520  0.0000  0.0000  0.0000
 1774OM     OM1 1774   4.957   2.204   8.336  0.0000  0.0000  0.0000
 1775OM     OM1 1775   4.906   1.987   8.492  0.0000  0.0000  0.0000
 1776OM     OM1 1776   1.878   2.237   1.101  0.0000  0.0000  0.0000
 1777OM     OM1 1777   2.058   2.071   1.156  0.0000  0.0000  0.0000
 1778OM     OM1 1778   0.545   6.444   0.201  0.0000  0.0000  0.0000
 1779OM     OM1 1779   0.481   6.365   0.448  0.0000  0.0000  0.0000
 1780OM     OM1 1780   0.614   6.215   0.292  0.0000  0.0000  0.0000
 1781OM     OM1 1781   7.141   6.093   8.519  0.0000  0.0000  0.0000
 1782OM     OM1 1782   7.336   6.088   8.697  0.0000  0.0000  0.0000
 1783OM     OM1 1783   7.249   6.310   8.597  0.0000  0.0000  0.0000
 1784OM     OM1 1784   7.092   6.160   8.762  0.0000  0.0000  0.0000
 1785OM     OM1 1785   0.457   0.785   0.414  0.0000  0.0000  0.0000
 1786OM     OM1 1786   0.472   0.965   0.232  0.0000  0.0000  0.0000
 1787OM     OM1 1787   0.234   0.862   0.297  0.0000  0.0000  0.0000
 1788OM     OM1 1788   5.057   0.827   8.767  0.0000  0.0000  0.0000
 1789OM     OM1 1789   4.960   0.792   8.995  0.0000  0.0000  0.0000
 1790OM     OM1 1790   5.180   0.929   8.983  0.0000  0.0000  0.0000
 1791OM     OM1 1791   4.954   1.037   8.895  0.0000  0.0000  0.0000
 1792OM     OM1 1792   6.513   2.088   0.745  0.0000  0.0000  0.0000
 1793OM     OM1 1793   6.610   1.992   0.971  0.0000  0.0000  0.0000
 1794OM     OM1 1794   6.657   2.246   0.908  0.0000  0.0000  0.0000
 1795OM     OM1 1795   5.591   1.094   0.528  0.0000  0.0000  0.0000
 1796OM     OM1 1796   5.579   1.122   0.266  0.0000  0.0000  0.0000
 1797OM     OM1 1797   5.514   1.320   0.417  0.0000  0.0000  0.0000
 1798OM     OM1 1798   5.764   1.247   0.398  0.0000  0.0000  0.0000
 1799OM     OM1 1799   2.979   1.251   8.950  0.0000  0.0000  0.0000
 1800OM     OM1 1800   2.948   1.503   9.045  0.0000  0.0000  0.0000
 1801OM     OM1 1801   3.077   1.452   8.817  0.0000  0.0000  0.0000
 1802OM     OM1 1802   3.175   1.387   9.043  0.0000  0.0000  0.0000
 1803OM     OM1 1803   5.803   9.418   0.461  0.0000  0.0000  0.0000
 1804OM     OM1 1804   5.918   0.038   0.523  0.0000  0.0000  0.0000
 1805OM     OM1 1805   5.774   9.516   0.706  0.0000  0.0000  0.0000
 1806OM     OM1 1806   6.005   9.428   0.632  0.0000  0.0000  0.0000
 1807OM     OM1 1807   4.698   3.224   1.206  0.0000  0.0000  0.0000
 1808OM     OM1 1808   4.480   3.351   1.154  0.0000  0.0000  0.0000
 1809OM     OM1 1809   7.275   0.921   0.164  0.0000  0.0000  0.0000
 1810OM     OM1 1810   7.537   0.809   0.197  0.0000  0.0000  0.0000
 1811OM     OM1 1811   7.313   0.683   0.250  0.0000  0.0000  0.0000
 1812OM     OM1 1812   5.298   1.848   8.947  0.0000  0.0000  0.0000
 1813OM     OM1 1813   5.454   1.855   9.163  0.0000  0.0000  0.0000
 1814OM     OM1 1814   5.194   1.906   9.181  0.0000  0.0000  0.0000
 1815OM     OM1 1815   9.569   6.548   8.860  0.0000  0.0000  0.0000
 1816OM     OM1 1816   0.100   6.519   8.649  0.0000  0.0000  0.0000
 1817OM     OM1 1817   0.007   6.309   8.781  0.0000  0.0000  0.0000
 1818OM     OM1 1818   9.437   6.459   8.657  0.0000  0.0000  0.0000
 1819OM     OM1 1819   4.124   1.198   0.346  0.0000  0.0000  0.0000
 1820OM     OM1 1820   4.030   1.425   0.269  0.0000  0.0000  0.0000
 1821OM     OM1 1821   4.216   1.309   0.123  0.0000  0.0000  0.0000
 1822OM     OM1 1822   3.862   2.337   9.158  0.0000  0.0000  0.0000
 1823OM     OM1 1823   3.901   2.144   9.341  0.0000  0.0000  0.0000
 1824OM     OM1 1824   3.665   2.264   9.305  0.0000  0.0000  0.0000
 1825OM     OM1 1825   6.028   1.016   8.983  0.0000  0.0000  0.0000
 1826OM     OM1 1826   5.973   1.091   8.745  0.0000  0.0000  0.0000
 1827OM     OM1 1827   6.197   1.173   8.838  0.0000  0.0000  0.0000
 1828OM     OM1 1828   6.160   0.917   8.779  0.0000  0.0000  0.0000
 1829OM     OM1 1829   8.776   2.667   1.297  0.0000  0.0000  0.0000
 1830OM     OM1 1830   8.846   2.925   1.319  0.0000  0.0000  0.0000
 1831OM     OM1 1831   8.622   2.861   1.209  0.0000  0.0000  0.0000
 1832OM     OM1 1832   5.779   8.243   9.314  0.0000  0.0000  0.0000
 1833OM     OM1 1833   5.794   8.414   9.515  0.0000  0.0000  0.0000
 1834OM     OM1 1834   5.999   8.366   9.361  0.0000  0.0000  0.0000
 1835OM     OM1 1835   5.787   8.490   9.257  0.0000  0.0000  0.0000
 1836OM     OM1 1836   9.401   9.599   8.980  0.0000  0.0000  0.0000
 1837OM     OM1 1837   9.336   9.378   9.104  0.0000  0.0000  0.0000
 1838OM     OM1 1838   9.186   9.600   9.112  0.0000  0.0000  0.0000
 1839OM     OM1 1839   7.465   3.586   0.569  0.0000  0.0000  0.0000
 1840OM     OM1 1840   7.517   3.637   0.317  0.0000  0.0000  0.0000
 1841OM     OM1 1841   7.555   3.815   0.496  0.0000  0.0000  0.0000
 1842OM     OM1 1842   7.715   3.593   0.491  0.0000  0.0000  0.0000
 1843OM     OM1 1843   6.653   4.171   0.625  0.0000  0.0000  0.0000
 1844OM     OM1 1844   6.809   4.385   0.636  0.0000  0.0000  0.0000
 1845OM     OM1 1845   6.595   4.398   0.499  0.0000  0.0000  0.0000
 1846OM     OM1 1846   6.577   4.371   0.763  0.0000  0.0000  0.0000
 1847OM     OM1 1847   8.196   6.066   0.334  0.0000  0.0000  0.0000
 1848OM     OM1 1848   8.169   6.311   0.401  0.0000  0.0000  0.0000
 1849OM     OM1 1849   8.102   6.241   0.156  0.0000  0.0000  0.0000
 1850OM     OM1 1850   8.360   6.235   0.240  0.0000  0.0000  0.0000
 1851OM     OM1 1851   5.361   7.138   9.469  0.0000  0.0000  0.0000
 1852OM     OM1 1852   5.265   7.224   0.086  0.0000  0.0000  0.0000
 1853OM     OM1 1853   5.315   6.974   0.067  0.0000  0.0000  0.0000
 1854OM     OM1 1854   5.108   7.072   9.553  0.0000  0.0000  0.0000
 1855OM     OM1 1855   5.495   5.218   8.716  0.0000  0.0000  0.0000
 1856OM     OM1 1856   5.296   5.060   8.759  0.0000  0.0000  0.0000
 1857OM     OM1 1857   5.255   5.317   8.754  0.0000  0.0000  0.0000
 1858OM     OM1 1858   6.345   2.300   1.387  0.0000  0.0000  0.0000
 1859OM     OM1 1859   0.553   7.503   0.795  0.0000  0.0000  0.0000
 1860OM     OM1 1860   0.682   7.637   0.978  0.0000  0.0000  0.0000
 1861OM     OM1 1861   0.729   7.387   0.955  0.0000  0.0000  0.0000
 1862OM     OM1 1862   0.804   7.532   0.754  0.0000  0.0000  0.0000
 1863OM     OM1 1863   5.829   0.722   8.368  0.0000  0.0000  0.0000
 1864OM     OM1 1864   5.780   0.941   8.264  0.0000  0.0000  0.0000
 1865OM     OM1 1865   6.032   0.865   8.293  0.0000  0.0000  0.0000
 1866OM     OM1 1866   3.021   7.720   1.122  0.0000  0.0000  0.0000
 1867OM     OM1 1867   3.227   7.601   1.212  0.0000  0.0000  0.0000
 1868OM     OM1 1868   6.896   1.998   9.283  0.0000  0.0000  0.0000
 1869OM     OM1 1869   6.681   2.117   9.378  0.0000  0.0000  0.0000
 1870OM     OM1 1870   6.882   2.256   9.285  0.0000  0.0000  0.0000
 1871OM     OM1 1871   6.897   2.128   9.512  0.0000  0.0000  0.0000
 1872OM     OM1 1872   3.876   7.923   0.454  0.0000  0.0000  0.0000
 1873OM     OM1 1873   3.915   7.671   0.514  0.0000  0.0000  0.0000
 1874OM     OM1 1874   3.917   7.856   0.706  0.0000  0.0000  0.0000
 1875OM     OM1 1875   3.699   7.797   0.590  0.0000  0.0000  0.0000
 1876OM     OM1 1876   2.596   5.993   1.125  0.0000  0.0000  0.0000
 1877OM     OM1 1877   2.702   5.847   1.308  0.0000  0.0000  0.0000
 1878OM     OM1 1878   2.851   5.978   1.124  0.0000  0.0000  0.0000
 1879OM     OM1 1879   8.137   3.545   0.749  0.0000  0.0000  0.0000
 1880OM     OM1 1880   8.110   3.787   0.667  0.0000  0.0000  0.0000
 1881OM     OM1 1881   8.187   3.729   0.918  0.0000  0.0000  0.0000
 1882OM     OM1 1882   8.351   3.710   0.721  0.0000  0.0000  0.0000
 1883OM     OM1 1883   5.398   5.340   9.439  0.0000  0.0000  0.0000
 1884OM     OM1 1884   5.253   5.438   9.221  0.0000  0.0000  0.0000
 1885OM     OM1 1885   5.509   5.429   9.228  0.0000  0.0000  0.0000
 1886OM     OM1 1886   1.924   4.265   9.382  0.0000  0.0000  0.0000
 1887OM     OM1 1887   1.898   4.510   9.314  0.0000  0.0000  0.0000
 1888OM     OM1 1888   2.091   4.442   9.485  0.0000  0.0000  0.0000
 1889OM     OM1 1889   5.484   7.551   1.267  0.0000  0.0000  0.0000
 1890OM     OM1 1890   5.268   7.578   1.114  0.0000  0.0000  0.0000
 1891OM     OM1 1891   5.425   7.777   1.149  0.0000  0.0000  0.0000
 1892OM     OM1 1892   1.039   0.342   0.258  0.0000  0.0000  0.0000
 1893OM     OM1 1893   1.271   0.300   0.353  0.0000  0.0000  0.0000
 1894OM     OM1 1894   0.912   0.573   0.316  0.0000  0.0000  0.0000
 1895OM     OM1 1895   1.065   0.373   0.509  0.0000  0.0000  0.0000
 1896OM     OM1 1896   8.156   8.201   8.258  0.0000  0.0000  0.0000
 1897OM     OM1 1897   8.286   8.200   8.479  0.0000  0.0000  0.0000
 1898OM     OM1 1898   8.329   4.725   9.411  0.0000  0.0000  0.0000
 1899OM     OM1 1899   8.256   4.966   9.342  0.0000  0.0000  0.0000
 1900OM     OM1 1900   8.297   4.787   9.155  0.0000  0.0000  0.0000
 1901OM     OM1 1901   8.498   4.875   9.278  0.0000  0.0000  0.0000
 1902OM     OM1 1902   7.910   1.630   0.547  0.0000  0.0000  0.0000
 1903OM     OM1 1903   7.522   1.412   0.649  0.0000  0.0000  0.0000
 1904OM     OM1 1904   7.840   1.325   0.745  0.0000  0.0000  0.0000
 1905OM     OM1 1905   7.675   1.625   0.648  0.0000  0.0000  0.0000
 1906OM     OM1 1906   6.250   8.484   0.109  0.0000  0.0000  0.0000
 1907OM     OM1 1907   6.051   8.488   0.269  0.0000  0.0000  0.0000
 1908OM     OM1 1908   6.273   8.620   0.327  0.0000  0.0000  0.0000
 1909OM     OM1 1909   6.275   8.370   0.353  0.0000  0.0000  0.0000
 1910OM     OM1 1910   8.150   0.299   0.428  0.0000  0.0000  0.0000
 1911OM     OM1 1911   8.351   0.238   0.276  0.0000  0.0000  0.0000
 1912OM     OM1 1912   8.438   0.296   0.050  0.0000  0.0000  0.0000
 1913OM     OM1 1913   8.104   0.216   0.188  0.0000  0.0000  0.0000
 1914OM     OM1 1914   5.836   7.040   0.072  0.0000  0.0000  0.0000
 1915OM     OM1 1915   5.898   7.232   0.232  0.0000  0.0000  0.0000
 1916OM     OM1 1916   5.725   7.023   0.296  0.0000  0.0000  0.0000
 1917OM     OM1 1917   5.664   7.233   0.145  0.0000  0.0000  0.0000
 1918OM     OM1 1918   7.687   2.744   0.971  0.0000  0.0000  0.0000
 1919OM     OM1 1919   7.495   2.581   0.912  0.0000  0.0000  0.0000
 1920OM     OM1 1920   1.153   4.035   1.178  0.0000  0.0000  0.0000
 1921OM     OM1 1921   0.929   4.037   1.307  0.0000  0.0000  0.0000
 1922OM     OM1 1922   1.003   3.828   1.167  0.0000  0.0000  0.0000
 1923OM     OM1 1923   0.920   4.048   1.049  0.0000  0.0000  0.0000
 1924OM     OM1 1924   0.947   8.010   8.746  0.0000  0.0000  0.0000
 1925OM     OM1 1925   1.013   7.865   8.548  0.0000  0.0000  0.0000
 1926OM     OM1 1926   1.251   7.967   8.484  0.0000  0.0000  0.0000
 1927OM     OM1 1927   1.498   7.994   8.526  0.0000  0.0000  0.0000
 1928OM     OM1 1928   4.437   9.162   0.927  0.0000  0.0000  0.0000
 1929OM     OM1 1929   4.260   8.915   1.185  0.0000  0.0000  0.0000
 1930OM     OM1 1930   4.247   8.892   0.600  0.0000  0.0000  0.0000
 1931OM     OM1 1931   4.229   9.149   1.069  0.0000  0.0000  0.0000
 1932OM     OM1 1932   7.234   7.133   0.008  0.0000  0.0000  0.0000
 1933OM     OM1 1933   7.462   7.226   0.118  0.0000  0.0000  0.0000
 1934OM     OM1 1934   7.313   7.387   9.587  0.0000  0.0000  0.0000
 1935OM     OM1 1935   7.225   7.305   0.206  0.0000  0.0000  0.0000
 1936OM     OM1 1936   1.450   7.574   9.334  0.0000  0.0000  0.0000
 1937OM     OM1 1937   1.450   7.615   9.083  0.0000  0.0000  0.0000
 1938OM     OM1 1938   1.540   7.387   9.197  0.0000  0.0000  0.0000
 1939OM     OM1 1939   3.113   8.233   8.191  0.0000  0.0000  0.0000
 1940OM     OM1 1940   2.642   9.500   8.940  0.0000  0.0000  0.0000
 1941OM     OM1 1941   2.407   9.563   9.011  0.0000  0.0000  0.0000
 1942OM     OM1 1942   2.548   9.431   9.185  0.0000  0.0000  0.0000
 1943OM     OM1 1943   2.319   2.088   1.114  0.0000  0.0000  0.0000
 1944OM     OM1 1944   2.481   2.067   1.322  0.0000  0.0000  0.0000
 1945OM     OM1 1945   2.494   1.891   1.140  0.0000  0.0000  0.0000
 1946OM     OM1 1946   4.231   8.861   8.762  0.0000  0.0000  0.0000
 1947OM     OM1 1947   4.564   8.763   8.927  0.0000  0.0000  0.0000
 1948OM     OM1 1948   4.226   8.657   8.592  0.0000  0.0000  0.0000
 1949OM     OM1 1949   0.862   3.676   8.437  0.0000  0.0000  0.0000
 1950OM     OM1 1950   1.005   3.797   8.604  0.0000  0.0000  0.0000
 1951OM     OM1 1951   0.846   3.946   8.467  0.0000  0.0000  0.0000
 1952OM     OM1 1952   4.346   1.811   0.234  0.0000  0.0000  0.0000
 1953OM     OM1 1953   4.295   1.733   9.593  0.0000  0.0000  0.0000
 1954OM     OM1 1954   4.113   1.861   0.137  0.0000  0.0000  0.0000
 1955OM     OM1 1955   4.165   1.622   0.179  0.0000  0.0000  0.0000
 1956OM     OM1 1956   5.982   8.856   8.655  0.0000  0.0000  0.0000
 1957OM     OM1 1957   5.801   8.674   8.662  0.0000  0.0000  0.0000
 1958OM     OM1 1958   5.759   8.876   8.499  0.0000  0.0000  0.0000
 1959OM     OM1 1959   5.745   8.918   8.749  0.0000  0.0000  0.0000
 1960OM     OM1 1960   7.940   0.266   8.416  0.0000  0.0000  0.0000
 1961OM     OM1 1961   7.753   0.354   8.574  0.0000  0.0000  0.0000
 1962OM     OM1 1962   7.743   0.108   8.452  0.0000  0.0000  0.0000
 1963OM     OM1 1963   7.888   0.147   8.651  0.0000  0.0000  0.0000
 1964OM     OM1 1964   1.343   1.328   9.153  0.0000  0.0000  0.0000
 1965OM     OM1 1965   1.501   1.249   9.337  0.0000  0.0000  0.0000
 1966OM     OM1 1966   1.459   1.499   9.319  0.0000  0.0000  0.0000
 1967OM     OM1 1967   1.601   1.395   9.133  0.0000  0.0000  0.0000
 1968OM     OM1 1968   0.537   3.924   1.067  0.0000  0.0000  0.0000
 1969OM     OM1 1969   0.331   3.936   1.246  0.0000  0.0000  0.0000
 1970OM     OM1 1970   0.508   3.744   1.246  0.0000  0.0000  0.0000
 1971OM     OM1 1971   0.429   7.147   1.161  0.0000  0.0000  0.0000
 1972OM     OM1 1972   0.180   7.067   1.172  0.0000  0.0000  0.0000
 1973OM     OM1 1973   0.253   7.243   0.989  0.0000  0.0000  0.0000
 1974OM     OM1 1974   0.191   7.130   0.770  0.0000  0.0000  0.0000
 1975OM     OM1 1975   6.763   4.379   9.109  0.0000  0.0000  0.0000
 1976OM     OM1 1976   6.690   4.749   9.155  0.0000  0.0000  0.0000
 1977OM     OM1 1977   6.883   4.598   9.053  0.0000  0.0000  0.0000
 1978OM     OM1 1978   6.922   4.732   9.272  0.0000  0.0000  0.0000
 1979OM     OM1 1979   8.706   1.917   1.023  0.0000  0.0000  0.0000
 1980OM     OM1 1980   8.943   1.890   1.143  0.0000  0.0000  0.0000
 1981OM     OM1 1981   8.931   1.882   0.884  0.0000  0.0000  0.0000
 1982OM     OM1 1982   8.884   2.106   0.999  0.0000  0.0000  0.0000
 1983OM     OM1 1983   6.823   7.359   1.040  0.0000  0.0000  0.0000
 1984OM     OM1 1984   6.790   7.203   1.248  0.0000  0.0000  0.0000
 1985OM     OM1 1985   6.583   7.312   1.111  0.0000  0.0000  0.0000
 1986OM     OM1 1986   6.737   7.450   1.282  0.0000  0.0000  0.0000
 1987OM     OM1 1987   5.586   0.994   8.445  0.0000  0.0000  0.0000
 1988OM     OM1 1988   5.541   0.815   8.639  0.0000  0.0000  0.0000
 1989OM     OM1 1989   5.723   1.148   8.692  0.0000  0.0000  0.0000
 1990OM     OM1 1990   5.476   1.060   8.669  0.0000  0.0000  0.0000
 1991OM     OM1 1991   8.810   8.465   1.119  0.0000  0.0000  0.0000
 1992OM     OM1 1992   8.615   8.637   1.096  0.0000  0.0000  0.0000
 1993OM     OM1 1993   8.851   8.711   1.206  0.0000  0.0000  0.0000
 1994OM     OM1 1994   8.843   8.662   0.954  0.0000  0.0000  0.0000
 1995OM     OM1 1995   6.440   6.982   9.235  0.0000  0.0000  0.0000
 1996OM     OM1 1996   6.579   7.114   9.394  0.0000  0.0000  0.0000
 1997OM     OM1 1997   6.693   6.905   9.270  0.0000  0.0000  0.0000
 1998OM     OM1 1998   6.650   7.121   9.140  0.0000  0.0000  0.0000
 1999OM     OM1 1999   6.444   3.060   9.081  0.0000  0.0000  0.0000
 2000OM     OM1 2000   6.287   2.909   8.936  0.0000  0.0000  0.0000
 2001OM     OM1 2001   6.523   2.832   9.009  0.0000  0.0000  0.0000
 2002OM     OM1 2002   6.506   3.024   8.829  0.0000  0.0000  0.0000
 2003OM     OM1 2003   3.320   0.063   9.243  0.0000  0.0000  0.0000
 2004OM     OM1 2004   3.532   0.098   9.399  0.0000  0.0000  0.0000
 2005OM     OM1 2005   3.527   0.154   9.140  0.0000  0.0000  0.0000
 2006OM     OM1 2006   4.158   7.709   0.512  0.0000  0.0000  0.0000
 2007OM     OM1 2007   4.047   7.622   0.286  0.0000  0.0000  0.0000
 2008OM     OM1 2008   4.094   7.463   0.488  0.0000  0.0000  0.0000
 2009OM     OM1 2009   0.255   7.989   8.308  0.0000  0.0000  0.0000
 2010OM     OM1 2010   2.017   8.627   0.878  0.0000  0.0000  0.0000
 2011OM     OM1 2011   1.938   8.706   0.633  0.0000  0.0000  0.0000
 2012OM     OM1 2012   1.910   8.856   0.840  0.0000  0.0000  0.0000
 2013OM     OM1 2013   2.142   8.823   0.747  0.0000  0.0000  0.0000
 2014OM     OM1 2014   1.235   3.689   8.403  0.0000  0.0000  0.0000
 2015OM     OM1 2015   1.472   3.749   8.492  0.0000  0.0000  0.0000
 2016OM     OM1 2016   1.350   3.541   8.595  0.0000  0.0000  0.0000
 2017OM     OM1 2017   1.255   3.765   8.651  0.0000  0.0000  0.0000
 2018OM     OM1 2018   1.960   1.738   1.184  0.0000  0.0000  0.0000
 2019OM     OM1 2019   2.188   1.680   1.297  0.0000  0.0000  0.0000
 2020OM     OM1 2020   7.921   7.429   8.506  0.0000  0.0000  0.0000
 2021OM     OM1 2021   7.952   7.583   8.298  0.0000  0.0000  0.0000
 2022OM     OM1 2022   8.144   7.410   8.371  0.0000  0.0000  0.0000
 2023OM     OM1 2023   6.258   0.279   8.632  0.0000  0.0000  0.0000
 2024OM     OM1 2024   5.999   0.269   8.659  0.0000  0.0000  0.0000
 2025OM     OM1 2025   6.122   0.093   8.504  0.0000  0.0000  0.0000
 2026OM     OM1 2026   6.107   0.332   8.422  0.0000  0.0000  0.0000
 2027OM     OM1 2027   8.542   1.423   1.353  0.0000  0.0000  0.0000
 2028OM     OM1 2028   8.416   1.388   1.129  0.0000  0.0000  0.0000
 2029OM     OM1 2029   5.639   7.517   8.541  0.0000  0.0000  0.0000
 2030OM     OM1 2030   5.877   7.433   8.606  0.0000  0.0000  0.0000
 2031OM     OM1 2031   5.829   7.507   8.366  0.0000  0.0000  0.0000
 2032OM     OM1 2032   5.825   7.687   8.569  0.0000  0.0000  0.0000
 2033OM     OM1 2033   1.636   4.497   8.761  0.0000  0.0000  0.0000
 2034OM     OM1 2034   1.841   4.483   8.591  0.0000  0.0000  0.0000
 2035OM     OM1 2035   1.685   4.684   8.581  0.0000  0.0000  0.0000
 2036OM     OM1 2036   1.597   4.432   8.522  0.0000  0.0000  0.0000
 2037OM     OM1 2037   1.268   0.704   0.166  0.0000  0.0000  0.0000
 2038OM     OM1 2038   1.391   0.778   0.377  0.0000  0.0000  0.0000
 2039OM     OM1 2039   1.400   0.521   0.306  0.0000  0.0000  0.0000
 2040OM     OM1 2040   1.530   0.697   0.167  0.0000  0.0000  0.0000
 2041OM     OM1 2041   4.717   4.047   8.302  0.0000  0.0000  0.0000
 2042OM     OM1 2042   4.835   3.820   8.246  0.0000  0.0000  0.0000
 2043OM     OM1 2043   9.310   2.676   8.316  0.0000  0.0000  0.0000
 2044OM     OM1 2044   9.499   2.725   8.487  0.0000  0.0000  0.0000
 2045OM     OM1 2045   9.567   2.610   8.267  0.0000  0.0000  0.0000
 2046OM     OM1 2046   1.652   6.351   8.260  0.0000  0.0000  0.0000
 2047OM     OM1 2047   1.466   6.185   8.290  0.0000  0.0000  0.0000
 2048OM     OM1 2048   1.437   6.412   8.404  0.0000  0.0000  0.0000
 2049OM     OM1 2049   6.681   5.175   8.762  0.0000  0.0000  0.0000
 2050OM     OM1 2050   6.575   5.132   8.996  0.0000  0.0000  0.0000
 2051OM     OM1 2051   6.832   5.092   8.965  0.0000  0.0000  0.0000
 2052OM     OM1 2052   6.744   5.331   8.971  0.0000  0.0000  0.0000
 2053OM     OM1 2053   9.086   7.388   9.546  0.0000  0.0000  0.0000
 2054OM     OM1 2054   8.976   7.560   0.097  0.0000  0.0000  0.0000
 2055OM     OM1 2055   0.015   0.184   0.590  0.0000  0.0000  0.0000
 2056OM     OM1 2056   0.167   0.161   0.390  0.0000  0.0000  0.0000
 2057OM     OM1 2057   0.270   0.271   0.597  0.0000  0.0000  0.0000
 2058OM     OM1 2058   0.229   0.027   0.617  0.0000  0.0000  0.0000
 2059OM     OM1 2059   0.142   9.594   9.271  0.0000  0.0000  0.0000
 2060OM     OM1 2060   0.164   9.393   9.087  0.0000  0.0000  0.0000
 2061OM     OM1 2061   0.099   9.347   9.342  0.0000  0.0000  0.0000
 2062OM     OM1 2062   0.526   2.326   0.866  0.0000  0.0000  0.0000
 2063OM     OM1 2063   0.308   2.276   0.992  0.0000  0.0000  0.0000
 2064OM     OM1 2064   0.411   2.526   0.999  0.0000  0.0000  0.0000
 2065OM     OM1 2065   0.297   2.440   0.788  0.0000  0.0000  0.0000
 2066OM     OM1 2066   6.613   7.624   1.431  0.0000  0.0000  0.0000
 2067OM     OM1 2067   5.632   1.681   9.096  0.0000  0.0000  0.0000
 2068OM     OM1 2068   5.713   1.910   9.189  0.0000  0.0000  0.0000
 2069OM     OM1 2069   5.599   1.740   9.352  0.0000  0.0000  0.0000
 2070OM     OM1 2070   9.326   7.309   9.514  0.0000  0.0000  0.0000
 2071OM     OM1 2071   9.216   7.408   9.308  0.0000  0.0000  0.0000
 2072OM     OM1 2072   1.060   3.710   0.338  0.0000  0.0000  0.0000
 2073OM     OM1 2073   1.245   3.545   0.404  0.0000  0.0000  0.0000
 2074OM     OM1 2074   1.058   3.347   9.572  0.0000  0.0000  0.0000
 2075OM     OM1 2075   4.197   2.980   9.091  0.0000  0.0000  0.0000
 2076OM     OM1 2076   4.379   2.857   9.226  0.0000  0.0000  0.0000
 2077OM     OM1 2077   4.303   2.775   8.986  0.0000  0.0000  0.0000
 2078OM     OM1 2078   4.460   2.973   9.007  0.0000  0.0000  0.0000
 2079OM     OM1 2079   1.826   8.225   0.683  0.0000  0.0000  0.0000
 2080OM     OM1 2080   1.895   8.401   0.879  0.0000  0.0000  0.0000
 2081OM     OM1 2081   2.049   8.371   0.672  0.0000  0.0000  0.0000
 2082OM     OM1 2082   8.510   2.095   1.032  0.0000  0.0000  0.0000
 2083OM     OM1 2083   8.471   1.859   0.923  0.0000  0.0000  0.0000
 2084OM     OM1 2084   4.663   5.627   8.743  0.0000  0.0000  0.0000
 2085OM     OM1 2085   4.826   5.585   8.543  0.0000  0.0000  0.0000
 2086OM     OM1 2086   4.776   5.397   8.704  0.0000  0.0000  0.0000
 2087OM     OM1 2087   4.593   5.461   8.540  0.0000  0.0000  0.0000
 2088OM     OM1 2088   2.524   1.672   8.770  0.0000  0.0000  0.0000
 2089OM     OM1 2089   2.493   1.608   9.013  0.0000  0.0000  0.0000
 2090OM     OM1 2090   2.323   1.523   8.838  0.0000  0.0000  0.0000
 2091OM     OM1 2091   2.333   1.783   8.911  0.0000  0.0000  0.0000
 2092OM     OM1 2092   3.358   7.342   8.447  0.0000  0.0000  0.0000
 2093OM     OM1 2093   3.424   7.170   8.635  0.0000  0.0000  0.0000
 2094OM     OM1 2094   3.187   7.177   8.535  0.0000  0.0000  0.0000
 2095OM     OM1 2095   3.375   7.070   8.396  0.0000  0.0000  0.0000
 2096OM     OM1 2096   9.021   8.796   8.435  0.0000  0.0000  0.0000
 2097OM     OM1 2097   9.225   8.644   8.373  0.0000  0.0000  0.0000
 2098OM     OM1 2098   7.681   4.712   8.450  0.0000  0.0000  0.0000
 2099OM     OM1 2099   7.868   4.601   8.292  0.0000  0.0000  0.0000
 2100OM     OM1 2100   7.511   4.894   8.518  0.0000  0.0000  0.0000
 2101OM     OM1 2101   4.969   6.865   9.490  0.0000  0.0000  0.0000
 2102OM     OM1 2102   4.876   7.017   0.072  0.0000  0.0000  0.0000
 2103OM     OM1 2103   4.885   7.113   9.439  0.0000  0.0000  0.0000
 2104OM     OM1 2104   1.028   4.263   0.603  0.0000  0.0000  0.0000
 2105OM     OM1 2105   0.882   4.144   0.805  0.0000  0.0000  0.0000
 2106OM     OM1 2106   0.852   4.396   0.752  0.0000  0.0000  0.0000
 2107OM     OM1 2107   6.114   0.436   1.220  0.0000  0.0000  0.0000
 2108OM     OM1 2108   5.940   0.602   1.139  0.0000  0.0000  0.0000
 2109OM     OM1 2109   3.367   3.606   8.483  0.0000  0.0000  0.0000
 2110OM     OM1 2110   3.154   3.748   8.493  0.0000  0.0000  0.0000
 2111OM     OM1 2111   3.235   3.615   8.709  0.0000  0.0000  0.0000
 2112OM     OM1 2112   3.131   3.490   8.511  0.0000  0.0000  0.0000
 2113OM     OM1 2113   4.273   6.206   8.654  0.0000  0.0000  0.0000
 2114OM     OM1 2114   4.351   5.950   8.624  0.0000  0.0000  0.0000
 2115OM     OM1 2115   4.244   6.032   8.845  0.0000  0.0000  0.0000
 2116OM     OM1 2116   4.484   6.122   8.768  0.0000  0.0000  0.0000
 2117OM     OM1 2117   6.170   7.962   9.578  0.0000  0.0000  0.0000
 2118OM     OM1 2118   6.048   7.749   9.560  0.0000  0.0000  0.0000
 2119OM     OM1 2119   5.827   7.913   9.562  0.0000  0.0000  0.0000
 2120OM     OM1 2120   5.864   7.722   0.126  0.0000  0.0000  0.0000
 2121OM     OM1 2121   8.060   1.412   9.457  0.0000  0.0000  0.0000
 2122OM     OM1 2122   7.885   1.232   9.352  0.0000  0.0000  0.0000
 2123OM     OM1 2123   8.132   1.189   9.331  0.0000  0.0000  0.0000
 2124OM     OM1 2124   8.045   1.391   9.203  0.0000  0.0000  0.0000
 2125OM     OM1 2125   7.880   8.470   0.762  0.0000  0.0000  0.0000
 2126OM     OM1 2126   7.968   8.318   0.566  0.0000  0.0000  0.0000
 2127OM     OM1 2127   6.953   7.933   0.151  0.0000  0.0000  0.0000
 2128OM     OM1 2128   6.745   7.922   0.002  0.0000  0.0000  0.0000
 2129OM     OM1 2129   6.728   7.838   0.251  0.0000  0.0000  0.0000
 2130OM     OM1 2130   6.870   7.705   0.055  0.0000  0.0000  0.0000
 2131OM     OM1 2131   2.809   9.509   8.749  0.0000  0.0000  0.0000
 2132OM     OM1 2132   2.554   9.476   8.698  0.0000  0.0000  0.0000
 2133OM     OM1 2133   5.048   6.205   8.514  0.0000  0.0000  0.0000
 2134OM     OM1 2134   5.054   6.304   8.755  0.0000  0.0000  0.0000
 2135OM     OM1 2135   5.277   6.295   8.619  0.0000  0.0000  0.0000
 2136OM     OM1 2136   5.104   6.465   8.549  0.0000  0.0000  0.0000
 2137OM     OM1 2137   1.818   2.364   8.582  0.0000  0.0000  0.0000
 2138OM     OM1 2138   1.984   2.184   8.617  0.0000  0.0000  0.0000
 2139OM     OM1 2139   2.054   2.364   8.445  0.0000  0.0000  0.0000
 2140OM     OM1 2140   3.557   8.436   0.728  0.0000  0.0000  0.0000
 2141OM     OM1 2141   3.798   8.399   0.648  0.0000  0.0000  0.0000
 2142OM     OM1 2142   3.690   8.643   0.652  0.0000  0.0000  0.0000
 2143OM     OM1 2143   3.635   8.469   0.467  0.0000  0.0000  0.0000
 2144OM     OM1 2144   1.195   9.364   8.758  0.0000  0.0000  0.0000
 2145OM     OM1 2145   1.309   9.453   8.981  0.0000  0.0000  0.0000
 2146OM     OM1 2146   1.186   9.216   8.972  0.0000  0.0000  0.0000
 2147OM     OM1 2147   1.053   9.436   8.963  0.0000  0.0000  0.0000
 2148OM     OM1 2148   1.715   6.481   1.416  0.0000  0.0000  0.0000
 2149OM     OM1 2149   3.839   5.167   0.972  0.0000  0.0000  0.0000
 2150OM     OM1 2150   3.682   4.976   1.069  0.0000  0.0000  0.0000
 2151OM     OM1 2151   3.606   5.140   0.880  0.0000  0.0000  0.0000
 2152OM     OM1 2152   8.135   5.715   0.119  0.0000  0.0000  0.0000
 2153OM     OM1 2153   8.137   5.761   9.466  0.0000  0.0000  0.0000
 2154OM     OM1 2154   8.306   5.889   9.603  0.0000  0.0000  0.0000
 2155OM     OM1 2155   8.325   5.621   9.570  0.0000  0.0000  0.0000
 2156OM     OM1 2156   2.802   5.951   0.454  0.0000  0.0000  0.0000
 2157OM     OM1 2157   2.632   6.153   0.436  0.0000  0.0000  0.0000
 2158OM     OM1 2158   2.736   6.081   0.669  0.0000  0.0000  0.0000
 2159OM     OM1 2159   7.697   8.248   1.064  0.0000  0.0000  0.0000
 2160OM     OM1 2160   7.901   8.383   1.159  0.0000  0.0000  0.0000
 2161OM     OM1 2161   4.774   8.644   8.449  0.0000  0.0000  0.0000
 2162OM     OM1 2162   4.825   8.881   8.367  0.0000  0.0000  0.0000
 2163OM     OM1 2163   5.126   8.522   8.351  0.0000  0.0000  0.0000
 2164OM     OM1 2164   4.942   8.671   8.250  0.0000  0.0000  0.0000
 2165OM     OM1 2165   3.345   8.326   8.245  0.0000  0.0000  0.0000
 2166OM     OM1 2166   3.394   8.589   8.313  0.0000  0.0000  0.0000
 2167OM     OM1 2167   9.238   2.738   9.057  0.0000  0.0000  0.0000
 2168OM     OM1 2168   9.189   2.780   8.796  0.0000  0.0000  0.0000
 2169OM     OM1 2169   9.266   2.551   8.888  0.0000  0.0000  0.0000
 2170OM     OM1 2170   9.027   2.632   8.946  0.0000  0.0000  0.0000
 2171OM     OM1 2171   6.464   5.037   9.550  0.0000  0.0000  0.0000
 2172OM     OM1 2172   6.409   5.261   9.448  0.0000  0.0000  0.0000
 2173OM     OM1 2173   6.508   5.249   0.089  0.0000  0.0000  0.0000
 2174OM     OM1 2174   6.259   5.197   0.043  0.0000  0.0000  0.0000
 2175OM     OM1 2175   5.760   4.472   1.024  0.0000  0.0000  0.0000
 2176OM     OM1 2176   5.363   4.700   1.248  0.0000  0.0000  0.0000
 2177OM     OM1 2177   5.831   4.624   1.222  0.0000  0.0000  0.0000
 2178OM     OM1 2178   5.582   4.625   1.139  0.0000  0.0000  0.0000
 2179OM     OM1 2179   8.728   7.935   9.560  0.0000  0.0000  0.0000
 2180OM     OM1 2180   8.640   8.101   0.117  0.0000  0.0000  0.0000
 2181OM     OM1 2181   5.026   6.635   9.352  0.0000  0.0000  0.0000
 2182OM     OM1 2182   5.171   6.844   9.330  0.0000  0.0000  0.0000
 2183OM     OM1 2183   4.919   6.833   9.239  0.0000  0.0000  0.0000
 2184OM     OM1 2184   4.346   7.472   0.920  0.0000  0.0000  0.0000
 2185OM     OM1 2185   4.269   7.459   0.683  0.0000  0.0000  0.0000
 2186OM     OM1 2186   4.473   7.623   0.735  0.0000  0.0000  0.0000
 2187OM     OM1 2187   4.503   7.363   0.742  0.0000  0.0000  0.0000
 2188OM     OM1 2188   7.694   5.935   0.126  0.0000  0.0000  0.0000
 2189OM     OM1 2189   7.479   6.054   0.032  0.0000  0.0000  0.0000
 2190OM     OM1 2190   7.648   5.940   9.471  0.0000  0.0000  0.0000
 2191OM     OM1 2191   7.512   5.790   0.014  0.0000  0.0000  0.0000
 2192OM     OM1 2192   5.594   3.069   8.567  0.0000  0.0000  0.0000
 2193OM     OM1 2193   5.614   3.186   8.802  0.0000  0.0000  0.0000
 2194OM     OM1 2194   5.331   2.938   8.581  0.0000  0.0000  0.0000
 2195OM     OM1 2195   5.498   2.938   8.768  0.0000  0.0000  0.0000
 2196OM     OM1 2196   8.214   5.609   0.547  0.0000  0.0000  0.0000
 2197OM     OM1 2197   8.453   5.565   0.447  0.0000  0.0000  0.0000
 2198OM     OM1 2198   8.387   5.460   0.679  0.0000  0.0000  0.0000
 2199OM     OM1 2199   8.282   5.372   0.462  0.0000  0.0000  0.0000
 2200OM     OM1 2200   8.310   0.988   8.308  0.0000  0.0000  0.0000
 2201OM     OM1 2201   8.524   1.123   8.311  0.0000  0.0000  0.0000
 2202OM     OM1 2202   7.962   6.206   9.538  0.0000  0.0000  0.0000
 2203OM     OM1 2203   7.867   6.135   9.295  0.0000  0.0000  0.0000
 2204OM     OM1 2204   8.003   5.976   9.432  0.0000  0.0000  0.0000
 2205OM     OM1 2205   8.123   6.192   9.334  0.0000  0.0000  0.0000
 2206OM     OM1 2206   5.512   0.635   8.829  0.0000  0.0000  0.0000
 2207OM     OM1 2207   5.636   0.845   8.892  0.0000  0.0000  0.0000
 2208OM     OM1 2208   5.752   0.679   8.737  0.0000  0.0000  0.0000
 2209OM     OM1 2209   1.541   8.970   8.597  0.0000  0.0000  0.0000
 2210OM     OM1 2210   1.576   9.136   8.797  0.0000  0.0000  0.0000
 2211OM     OM1 2211   1.340   9.067   8.717  0.0000  0.0000  0.0000
 2212OM     OM1 2212   8.906   5.561   0.661  0.0000  0.0000  0.0000
 2213OM     OM1 2213   8.939   5.445   0.421  0.0000  0.0000  0.0000
 2214OM     OM1 2214   9.094   5.645   0.504  0.0000  0.0000  0.0000
 2215OM     OM1 2215   9.098   5.398   0.610  0.0000  0.0000  0.0000
 2216OM     OM1 2216   8.094   2.000   8.420  0.0000  0.0000  0.0000
 2217OM     OM1 2217   7.883   2.035   8.261  0.0000  0.0000  0.0000
 2218OM     OM1 2218   3.549   2.456   0.584  0.0000  0.0000  0.0000
 2219OM     OM1 2219   3.489   2.614   0.786  0.0000  0.0000  0.0000
 2220OM     OM1 2220   3.741   2.570   0.706  0.0000  0.0000  0.0000
 2221OM     OM1 2221   3.581   2.729   0.582  0.0000  0.0000  0.0000
 2222OM     OM1 2222   4.510   0.889   0.113  0.0000  0.0000  0.0000
 2223OM     OM1 2223   4.338   0.951   9.528  0.0000  0.0000  0.0000
 2224OM     OM1 2224   4.273   0.787   0.109  0.0000  0.0000  0.0000
 2225OM     OM1 2225   4.442   0.708   9.532  0.0000  0.0000  0.0000
 2226OM     OM1 2226   6.670   8.730   0.245  0.0000  0.0000  0.0000
 2227OM     OM1 2227   6.842   8.525   0.194  0.0000  0.0000  0.0000
 2228OM     OM1 2228   6.921   8.728   0.336  0.0000  0.0000  0.0000
 2229OM     OM1 2229   6.860   8.764   0.083  0.0000  0.0000  0.0000
 2230OM     OM1 2230   5.899   0.464   8.802  0.0000  0.0000  0.0000
 2231OM     OM1 2231   6.018   0.700   8.754  0.0000  0.0000  0.0000
 2232OM     OM1 2232   5.906   0.567   8.567  0.0000  0.0000  0.0000
 2233OM     OM1 2233   8.764   4.493   8.356  0.0000  0.0000  0.0000
 2234OM     OM1 2234   9.016   4.446   8.300  0.0000  0.0000  0.0000
 2235OM     OM1 2235   0.268   0.114   0.119  0.0000  0.0000  0.0000
 2236OM     OM1 2236   0.289   9.475   0.196  0.0000  0.0000  0.0000
 2237OM     OM1 2237   0.452   0.023   0.322  0.0000  0.0000  0.0000
 2238OM     OM1 2238   0.489   0.001   0.063  0.0000  0.0000  0.0000
 2239OM     OM1 2239   6.538   7.219   8.432  0.0000  0.0000  0.0000
 2240OM     OM1 2240   6.619   7.450   8.324  0.0000  0.0000  0.0000
 2241OM     OM1 2241   6.651   7.406   8.572  0.0000  0.0000  0.0000
 2242OM     OM1 2242   7.290   4.319   0.703  0.0000  0.0000  0.0000
 2243OM     OM1 2243   7.495   4.299   0.851  0.0000  0.0000  0.0000
 2244OM     OM1 2244   7.459   4.525   0.701  0.0000  0.0000  0.0000
 2245OM     OM1 2245   7.537   4.306   0.598  0.0000  0.0000  0.0000
 2246OM     OM1 2246   6.335   5.305   8.390  0.0000  0.0000  0.0000
 2247OM     OM1 2247   6.247   5.280   8.640  0.0000  0.0000  0.0000
 2248OM     OM1 2248   6.495   5.224   8.582  0.0000  0.0000  0.0000
 2249OM     OM1 2249   6.395   5.480   8.562  0.0000  0.0000  0.0000
 2250OM     OM1 2250   8.825   3.414   0.007  0.0000  0.0000  0.0000
 2251OM     OM1 2251   8.603   3.305   9.525  0.0000  0.0000  0.0000
 2252OM     OM1 2252   8.631   3.565   9.496  0.0000  0.0000  0.0000
 2253OM     OM1 2253   8.327   6.576   1.071  0.0000  0.0000  0.0000
 2254OM     OM1 2254   8.308   6.584   0.815  0.0000  0.0000  0.0000
 2255OM     OM1 2255   8.398   6.365   0.936  0.0000  0.0000  0.0000
 2256OM     OM1 2256   8.151   6.420   0.963  0.0000  0.0000  0.0000
 2257OM     OM1 2257   7.192   7.363   9.090  0.0000  0.0000  0.0000
 2258OM     OM1 2258   7.419   7.231   9.027  0.0000  0.0000  0.0000
 2259OM     OM1 2259   7.285   7.361   8.844  0.0000  0.0000  0.0000
 2260OM     OM1 2260   7.415   7.485   9.037  0.0000  0.0000  0.0000
 2261OM     OM1 2261   1.896   5.218   1.009  0.0000  0.0000  0.0000
 2262OM     OM1 2262   1.968   5.338   0.791  0.0000  0.0000  0.0000
 2263OM     OM1 2263   1.732   5.237   0.795  0.0000  0.0000  0.0000
 2264OM     OM1 2264   1.938   5.078   0.794  0.0000  0.0000  0.0000
 2265OM     OM1 2265   2.011   9.124   0.470  0.0000  0.0000  0.0000
 2266OM     OM1 2266   2.092   9.166   0.723  0.0000  0.0000  0.0000
 2267OM     OM1 2267   2.258   9.089   0.536  0.0000  0.0000  0.0000
 2268OM     OM1 2268   2.168   9.328   0.526  0.0000  0.0000  0.0000
 2269OM     OM1 2269   1.596   1.600   0.145  0.0000  0.0000  0.0000
 2270OM     OM1 2270   1.551   1.351   0.196  0.0000  0.0000  0.0000
 2271OM     OM1 2271   1.557   1.235   0.428  0.0000  0.0000  0.0000
 2272OM     OM1 2272   1.689   1.137   0.207  0.0000  0.0000  0.0000
 2273OM     OM1 2273   9.505   7.187   0.032  0.0000  0.0000  0.0000
 2274OM     OM1 2274   9.560   7.417   9.515  0.0000  0.0000  0.0000
 2275OM     OM1 2275   9.434   7.419   0.131  0.0000  0.0000  0.0000
 2276OM     OM1 2276   0.763   3.718   9.281  0.0000  0.0000  0.0000
 2277OM     OM1 2277   0.718   3.908   9.109  0.0000  0.0000  0.0000
 2278OM     OM1 2278   0.628   3.670   9.060  0.0000  0.0000  0.0000
 2279OM     OM1 2279   0.889   3.725   9.051  0.0000  0.0000  0.0000
 2280OM     OM1 2280   1.406   7.185   8.762  0.0000  0.0000  0.0000
 2281OM     OM1 2281   1.556   7.354   8.874  0.0000  0.0000  0.0000
 2282OM     OM1 2282   1.462   7.152   9.015  0.0000  0.0000  0.0000
 2283OM     OM1 2283   1.302   7.358   8.921  0.0000  0.0000  0.0000
 2284OM     OM1 2284   1.298   0.767   1.009  0.0000  0.0000  0.0000
 2285OM     OM1 2285   1.315   0.527   1.097  0.0000  0.0000  0.0000
 2286OM     OM1 2286   1.535   0.615   0.994  0.0000  0.0000  0.0000
 2287OM     OM1 2287   1.341   0.576   0.839  0.0000  0.0000  0.0000
 2288OM     OM1 2288   5.848   6.238   9.044  0.0000  0.0000  0.0000
 2289OM     OM1 2289   5.753   6.299   8.802  0.0000  0.0000  0.0000
 2290OM     OM1 2290   5.761   6.471   9.004  0.0000  0.0000  0.0000
 2291OM     OM1 2291   0.766   2.741   9.027  0.0000  0.0000  0.0000
 2292OM     OM1 2292   0.925   2.928   8.982  0.0000  0.0000  0.0000
 2293OM     OM1 2293   0.911   2.828   9.226  0.0000  0.0000  0.0000
 2294OM     OM1 2294   0.717   2.977   9.131  0.0000  0.0000  0.0000
 2295OM     OM1 2295   4.270   9.136   8.438  0.0000  0.0000  0.0000
 2296OM     OM1 2296   5.069   1.603   1.197  0.0000  0.0000  0.0000
 2297OM     OM1 2297   5.022   1.347   1.284  0.0000  0.0000  0.0000
 2298OM     OM1 2298   4.842   1.532   1.288  0.0000  0.0000  0.0000
 2299OM     OM1 2299   2.252   8.584   8.328  0.0000  0.0000  0.0000
 2300OM     OM1 2300   3.808   6.605   0.064  0.0000  0.0000  0.0000
 2301OM     OM1 2301   3.786   6.858   0.144  0.0000  0.0000  0.0000
 2302OM     OM1 2302   4.023   6.740   0.122  0.0000  0.0000  0.0000
 2303OM     OM1 2303   3.859   6.678   0.312  0.0000  0.0000  0.0000
 2304OM     OM1 2304   0.336   3.989   8.598  0.0000  0.0000  0.0000
 2305OM     OM1 2305   7.875   5.594   0.844  0.0000  0.0000  0.0000
 2306OM     OM1 2306   7.958   5.830   0.859  0.0000  0.0000  0.0000
 2307OM     OM1 2307   7.749   5.776   0.707  0.0000  0.0000  0.0000
 2308OM     OM1 2308   7.984   5.703   0.626  0.0000  0.0000  0.0000
 2309OM     OM1 2309   0.202   7.539   0.438  0.0000  0.0000  0.0000
 2310OM     OM1 2310   0.221   7.271   0.415  0.0000  0.0000  0.0000
 2311OM     OM1 2311   0.022   7.410   0.307  0.0000  0.0000  0.0000
 2312OM     OM1 2312   0.043   7.387   0.568  0.0000  0.0000  0.0000
 2313OM     OM1 2313   0.146   5.167   1.091  0.0000  0.0000  0.0000
 2314OM     OM1 2314   0.304   5.293   0.933  0.0000  0.0000  0.0000
 2315OM     OM1 2315   0.141   5.117   0.831  0.0000  0.0000  0.0000
 2316OM     OM1 2316   0.354   5.046   0.979  0.0000  0.0000  0.0000
 2317OM     OM1 2317   7.001   5.929   0.050  0.0000  0.0000  0.0000
 2318OM     OM1 2318   6.805   5.984   9.482  0.0000  0.0000  0.0000
 2319OM     OM1 2319   6.972   5.795   9.433  0.0000  0.0000  0.0000
 2320OM     OM1 2320   6.793   5.770   0.018  0.0000  0.0000  0.0000
 2321OM     OM1 2321   2.673   0.467   0.110  0.0000  0.0000  0.0000
 2322OM     OM1 2322   2.585   0.488   0.358  0.0000  0.0000  0.0000
 2323OM     OM1 2323   2.701   0.274   0.290  0.0000  0.0000  0.0000
 2324OM     OM1 2324   3.588   8.330   1.426  0.0000  0.0000  0.0000
 2325OM     OM1 2325   3.702   8.463   1.241  0.0000  0.0000  0.0000
 2326OM     OM1 2326   2.840   8.895   0.865  0.0000  0.0000  0.0000
 2327OM     OM1 2327   2.672   8.975   1.058  0.0000  0.0000  0.0000
 2328OM     OM1 2328   2.859   8.809   1.116  0.0000  0.0000  0.0000
 2329OM     OM1 2329   2.925   9.051   1.047  0.0000  0.0000  0.0000
 2330OM     OM1 2330   0.219   7.358   8.459  0.0000  0.0000  0.0000
 2331OM     OM1 2331   0.318   7.154   8.571  0.0000  0.0000  0.0000
 2332OM     OM1 2332   0.420   7.470   8.343  0.0000  0.0000  0.0000
 2333OM     OM1 2333   2.557   7.031   0.279  0.0000  0.0000  0.0000
 2334OM     OM1 2334   2.522   7.282   0.248  0.0000  0.0000  0.0000
 2335OM     OM1 2335   2.364   7.146   0.409  0.0000  0.0000  0.0000
 2336OM     OM1 2336   2.611   7.194   0.481  0.0000  0.0000  0.0000
 2337OM     OM1 2337   8.532   1.961   0.496  0.0000  0.0000  0.0000
 2338OM     OM1 2338   8.970   1.752   0.373  0.0000  0.0000  0.0000
 2339OM     OM1 2339   8.603   1.832   0.705  0.0000  0.0000  0.0000
 2340OM     OM1 2340   8.779   1.831   0.514  0.0000  0.0000  0.0000
 2341OM     OM1 2341   8.927   4.758   8.997  0.0000  0.0000  0.0000
 2342OM     OM1 2342   8.828   4.554   8.595  0.0000  0.0000  0.0000
 2343OM     OM1 2343   8.973   4.726   8.742  0.0000  0.0000  0.0000
 2344OM     OM1 2344   1.255   4.479   9.354  0.0000  0.0000  0.0000
 2345OM     OM1 2345   1.126   4.502   9.583  0.0000  0.0000  0.0000
 2346OM     OM1 2346   1.111   4.699   9.426  0.0000  0.0000  0.0000
 2347OM     OM1 2347   1.337   4.655   9.525  0.0000  0.0000  0.0000
 2348OM     OM1 2348   4.940   6.030   8.656  0.0000  0.0000  0.0000
 2349OM     OM1 2349   5.103   5.959   8.454  0.0000  0.0000  0.0000
 2350OM     OM1 2350   4.229   9.048   0.816  0.0000  0.0000  0.0000
 2351OM     OM1 2351   4.009   9.002   0.671  0.0000  0.0000  0.0000
 2352OM     OM1 2352   4.208   9.298   0.862  0.0000  0.0000  0.0000
 2353OM     OM1 2353   4.209   9.143   0.579  0.0000  0.0000  0.0000
 2354OM     OM1 2354   6.927   3.623   0.729  0.0000  0.0000  0.0000
 2355OM     OM1 2355   7.110   3.769   0.631  0.0000  0.0000  0.0000
 2356OM     OM1 2356   6.880   3.746   0.498  0.0000  0.0000  0.0000
 2357OM     OM1 2357   7.054   3.545   0.516  0.0000  0.0000  0.0000
 2358OM     OM1 2358   9.593   3.278   9.281  0.0000  0.0000  0.0000
 2359OM     OM1 2359   0.136   3.486   9.185  0.0000  0.0000  0.0000
 2360OM     OM1 2360   9.521   3.410   9.070  0.0000  0.0000  0.0000
 2361OM     OM1 2361   9.505   3.530   9.295  0.0000  0.0000  0.0000
 2362OM     OM1 2362   0.548   5.386   0.937  0.0000  0.0000  0.0000
 2363OM     OM1 2363   0.774   5.251   0.959  0.0000  0.0000  0.0000
 2364OM     OM1 2364   0.722   5.418   0.752  0.0000  0.0000  0.0000
 2365OM     OM1 2365   0.776   5.504   0.994  0.0000  0.0000  0.0000
 2366OM     OM1 2366   0.240   5.557   0.585  0.0000  0.0000  0.0000
 2367OM     OM1 2367   0.097   5.560   0.814  0.0000  0.0000  0.0000
 2368OM     OM1 2368   0.255   5.755   0.750  0.0000  0.0000  0.0000
 2369OM     OM1 2369   0.352   5.520   0.819  0.0000  0.0000  0.0000
 2370OM     OM1 2370   1.233   0.834   9.543  0.0000  0.0000  0.0000
 2371OM     OM1 2371   1.371   1.054   9.462  0.0000  0.0000  0.0000
 2372OM     OM1 2372   1.113   1.049   9.445  0.0000  0.0000  0.0000
 2373OM     OM1 2373   1.238   1.044   0.076  0.0000  0.0000  0.0000
 2374OM     OM1 2374   4.219   0.485   0.415  0.0000  0.0000  0.0000
 2375OM     OM1 2375   4.358   0.440   0.201  0.0000  0.0000  0.0000
 2376OM     OM1 2376   4.121   0.324   0.218  0.0000  0.0000  0.0000
 2377OM     OM1 2377   4.138   0.585   0.200  0.0000  0.0000  0.0000
 2378OM     OM1 2378   4.382   5.794   0.019  0.0000  0.0000  0.0000
 2379OM     OM1 2379   4.292   5.945   9.416  0.0000  0.0000  0.0000
 2380OM     OM1 2380   4.417   6.049   0.005  0.0000  0.0000  0.0000
 2381OM     OM1 2381   4.547   5.888   9.446  0.0000  0.0000  0.0000
 2382OM     OM1 2382   0.564   8.232   1.055  0.0000  0.0000  0.0000
 2383OM     OM1 2383   0.303   8.234   1.051  0.0000  0.0000  0.0000
 2384OM     OM1 2384   0.437   8.066   0.904  0.0000  0.0000  0.0000
 2385OM     OM1 2385   0.440   8.316   0.840  0.0000  0.0000  0.0000
 2386OM     OM1 2386   1.226   5.976   8.923  0.0000  0.0000  0.0000
 2387OM     OM1 2387   1.061   6.165   9.018  0.0000  0.0000  0.0000
 2388OM     OM1 2388   1.133   6.157   8.765  0.0000  0.0000  0.0000
 2389OM     OM1 2389   0.975   5.972   8.863  0.0000  0.0000  0.0000
 2390OM     OM1 2390   0.802   0.780   0.212  0.0000  0.0000  0.0000
 2391OM     OM1 2391   0.842   0.976   0.055  0.0000  0.0000  0.0000
 2392OM     OM1 2392   0.802   0.726   9.564  0.0000  0.0000  0.0000
 2393OM     OM1 2393   1.026   0.793   0.085  0.0000  0.0000  0.0000
 2394OM     OM1 2394   4.574   5.875   0.162  0.0000  0.0000  0.0000
 2395OM     OM1 2395   4.529   5.615   0.145  0.0000  0.0000  0.0000
 2396OM     OM1 2396   4.375   5.777   0.285  0.0000  0.0000  0.0000
 2397OM     OM1 2397   4.554   5.358   0.217  0.0000  0.0000  0.0000
 2398OM     OM1 2398   1.096   8.792   0.503  0.0000  0.0000  0.0000
 2399OM     OM1 2399   0.932   8.937   0.379  0.0000  0.0000  0.0000
 2400OM     OM1 2400   1.168   9.035   0.414  0.0000  0.0000  0.0000
 2401OM     OM1 2401   1.072   8.564   0.389  0.0000  0.0000  0.0000
 2402OM     OM1 2402   4.055   7.675   9.359  0.0000  0.0000  0.0000
 2403OM     OM1 2403   4.009   7.649   0.017  0.0000  0.0000  0.0000
 2404OM     OM1 2404   3.974   7.874   9.499  0.0000  0.0000  0.0000
 2405OM     OM1 2405   3.812   7.675   9.444  0.0000  0.0000  0.0000
 2406OM     OM1 2406   2.978   1.274   0.813  0.0000  0.0000  0.0000
 2407OM     OM1 2407   3.053   1.518   0.784  0.0000  0.0000  0.0000
 2408OM     OM1 2408   2.811   1.461   0.825  0.0000  0.0000  0.0000
 2409OM     OM1 2409   2.996   1.417   1.025  0.0000  0.0000  0.0000
 2410OM     OM1 2410   4.996   7.306   9.065  0.0000  0.0000  0.0000
 2411OM     OM1 2411   4.967   7.332   9.326  0.0000  0.0000  0.0000
 2412OM     OM1 2412   5.184   7.224   9.218  0.0000  0.0000  0.0000
 2413OM     OM1 2413   6.529   3.014   0.108  0.0000  0.0000  0.0000
 2414OM     OM1 2414   6.766   3.093   0.147  0.0000  0.0000  0.0000
 2415OM     OM1 2415   6.711   2.825   0.146  0.0000  0.0000  0.0000
 2416OM     OM1 2416   6.705   2.964   9.531  0.0000  0.0000  0.0000
 2417OM     OM1 2417   3.093   6.976   0.938  0.0000  0.0000  0.0000
 2418OM     OM1 2418   3.009   6.816   1.136  0.0000  0.0000  0.0000
 2419OM     OM1 2419   3.187   7.003   1.180  0.0000  0.0000  0.0000
 2420OM     OM1 2420   2.941   7.063   1.147  0.0000  0.0000  0.0000
 2421OM     OM1 2421   4.346   3.997   1.112  0.0000  0.0000  0.0000
 2422OM     OM1 2422   4.100   4.019   1.042  0.0000  0.0000  0.0000
 2423OM     OM1 2423   4.268   3.914   0.870  0.0000  0.0000  0.0000
 2424OM     OM1 2424   4.290   4.169   0.927  0.0000  0.0000  0.0000
 2425OM     OM1 2425   0.594   0.439   9.003  0.0000  0.0000  0.0000
 2426OM     OM1 2426   0.851   0.428   8.959  0.0000  0.0000  0.0000
 2427OM     OM1 2427   0.684   0.257   8.855  0.0000  0.0000  0.0000
 2428OM     OM1 2428   0.686   0.500   8.762  0.0000  0.0000  0.0000
 2429OM     OM1 2429   8.244   3.766   8.271  0.0000  0.0000  0.0000
 2430OM     OM1 2430   8.428   3.583   8.280  0.0000  0.0000  0.0000
 2431OM     OM1 2431   8.808   7.014   8.240  0.0000  0.0000  0.0000
 2432OM     OM1 2432   9.140   7.353   8.301  0.0000  0.0000  0.0000
 2433OM     OM1 2433   9.044   7.131   8.221  0.0000  0.0000  0.0000
 2434OM     OM1 2434   2.564   5.895   0.051  0.0000  0.0000  0.0000
 2435OM     OM1 2435   2.501   6.101   0.216  0.0000  0.0000  0.0000
 2436OM     OM1 2436   2.599   6.145   9.588  0.0000  0.0000  0.0000
 2437OM     OM1 2437   2.364   6.050   9.597  0.0000  0.0000  0.0000
 2438OM     OM1 2438   4.093   3.115   9.496  0.0000  0.0000  0.0000
 2439OM     OM1 2439   4.118   3.025   0.137  0.0000  0.0000  0.0000
 2440OM     OM1 2440   3.891   2.990   0.028  0.0000  0.0000  0.0000
 2441OM     OM1 2441   4.117   2.864   9.557  0.0000  0.0000  0.0000
 2442OM     OM1 2442   2.329   2.731   1.116  0.0000  0.0000  0.0000
 2443OM     OM1 2443   2.178   2.925   1.212  0.0000  0.0000  0.0000
 2444OM     OM1 2444   2.158   2.827   0.957  0.0000  0.0000  0.0000
 2445OM     OM1 2445   2.067   2.699   1.161  0.0000  0.0000  0.0000
 2446OM     OM1 2446   2.586   5.462   0.888  0.0000  0.0000  0.0000
 2447OM     OM1 2447   2.624   5.667   0.723  0.0000  0.0000  0.0000
 2448OM     OM1 2448   2.422   5.511   0.690  0.0000  0.0000  0.0000
 2449OM     OM1 2449   2.429   5.673   0.894  0.0000  0.0000  0.0000
 2450OM     OM1 2450   1.720   3.170   1.119  0.0000  0.0000  0.0000
 2451OM     OM1 2451   1.506   3.280   1.225  0.0000  0.0000  0.0000
 2452OM     OM1 2452   1.726   3.429   1.187  0.0000  0.0000  0.0000
 2453OM     OM1 2453   8.218   0.197   1.064  0.0000  0.0000  0.0000
 2454OM     OM1 2454   8.312   0.401   0.916  0.0000  0.0000  0.0000
 2455OM     OM1 2455   8.454   0.309   1.112  0.0000  0.0000  0.0000
 2456OM     OM1 2456   0.630   0.892   8.289  0.0000  0.0000  0.0000
 2457OM     OM1 2457   0.672   0.636   8.277  0.0000  0.0000  0.0000
 2458OM     OM1 2458   4.035   4.514   8.915  0.0000  0.0000  0.0000
 2459OM     OM1 2459   4.170   4.728   9.000  0.0000  0.0000  0.0000
 2460OM     OM1 2460   4.239   4.598   8.783  0.0000  0.0000  0.0000
 2461OM     OM1 2461   4.274   4.487   9.016  0.0000  0.0000  0.0000
 2462OM     OM1 2462   3.850   3.655   1.300  0.0000  0.0000  0.0000
 2463OM     OM1 2463   3.662   3.479   1.307  0.0000  0.0000  0.0000
 2464OM     OM1 2464   0.175   6.868   0.726  0.0000  0.0000  0.0000
 2465OM     OM1 2465   0.158   6.683   0.913  0.0000  0.0000  0.0000
 2466OM     OM1 2466   0.012   6.661   0.708  0.0000  0.0000  0.0000
 2467OM     OM1 2467   9.576   6.865   0.880  0.0000  0.0000  0.0000
 2468OM     OM1 2468   6.723   5.784   8.704  0.0000  0.0000  0.0000
 2469OM     OM1 2469   6.731   5.858   8.466  0.0000  0.0000  0.0000
 2470OM     OM1 2470   6.777   5.600   8.538  0.0000  0.0000  0.0000
 2471OM     OM1 2471   6.540   5.693   8.518  0.0000  0.0000  0.0000
 2472OM     OM1 2472   4.437   2.349   8.766  0.0000  0.0000  0.0000
 2473OM     OM1 2473   4.253   2.458   8.611  0.0000  0.0000  0.0000
 2474OM     OM1 2474   4.393   2.600   8.793  0.0000  0.0000  0.0000
 2475OM     OM1 2475   4.494   2.513   8.568  0.0000  0.0000  0.0000
 2476OM     OM1 2476   9.458   0.529   0.355  0.0000  0.0000  0.0000
 2477OM     OM1 2477   9.224   0.481   0.444  0.0000  0.0000  0.0000
 2478OM     OM1 2478   9.252   0.594   0.205  0.0000  0.0000  0.0000
 2479OM     OM1 2479   9.339   0.574   0.653  0.0000  0.0000  0.0000
 2480OM     OM1 2480   7.333   1.062   9.173  0.0000  0.0000  0.0000
 2481OM     OM1 2481   7.279   1.317   9.256  0.0000  0.0000  0.0000
 2482OM     OM1 2482   7.413   1.168   9.399  0.0000  0.0000  0.0000
 2483OM     OM1 2483   5.175   2.770   1.149  0.0000  0.0000  0.0000
 2484OM     OM1 2484   5.061   3.000   1.155  0.0000  0.0000  0.0000
 2485OM     OM1 2485   4.922   2.789   1.085  0.0000  0.0000  0.0000
 2486OM     OM1 2486   0.062   8.752   9.338  0.0000  0.0000  0.0000
 2487OM     OM1 2487   0.172   8.958   9.222  0.0000  0.0000  0.0000
 2488OM     OM1 2488   0.014   8.818   9.080  0.0000  0.0000  0.0000
 2489OM     OM1 2489   9.506   8.948   9.267  0.0000  0.0000  0.0000
 2490OM     OM1 2490   3.297   3.396   0.853  0.0000  0.0000  0.0000
 2491OM     OM1 2491   3.469   2.961   0.635  0.0000  0.0000  0.0000
 2492OM     OM1 2492   3.401   3.199   0.708  0.0000  0.0000  0.0000
 2493OM     OM1 2493   0.910   5.799   8.408  0.0000  0.0000  0.0000
 2494OM     OM1 2494   1.037   5.831   8.188  0.0000  0.0000  0.0000
 2495OM     OM1 2495   1.014   6.036   8.352  0.0000  0.0000  0.0000
 2496OM     OM1 2496   6.341   2.765   8.611  0.0000  0.0000  0.0000
 2497OM     OM1 2497   6.483   2.966   8.530  0.0000  0.0000  0.0000
 2498OM     OM1 2498   6.247   2.905   8.403  0.0000  0.0000  0.0000
 2499OM     OM1 2499   6.471   2.766   8.385  0.0000  0.0000  0.0000
 2500OM     OM1 2500   6.031   8.430   1.377  0.0000  0.0000  0.0000
 2501OM     OM1 2501   5.825   8.489   1.232  0.0000  0.0000  0.0000
 2502OM     OM1 2502   5.755   0.570   9.596  0.0000  0.0000  0.0000
 2503OM     OM1 2503   5.879   0.621   0.212  0.0000  0.0000  0.0000
 2504OM     OM1 2504   5.959   0.420   0.051  0.0000  0.0000  0.0000
 2505OM     OM1 2505   6.602   8.572   1.054  0.0000  0.0000  0.0000
 2506OM     OM1 2506   6.369   8.671   1.151  0.0000  0.0000  0.0000
 2507OM     OM1 2507   6.666   8.324   1.042  0.0000  0.0000  0.0000
 2508OM     OM1 2508   6.298   6.596   9.223  0.0000  0.0000  0.0000
 2509OM     OM1 2509   6.303   6.331   9.173  0.0000  0.0000  0.0000
 2510OM     OM1 2510   6.338   6.436   9.417  0.0000  0.0000  0.0000
 2511OM     OM1 2511   6.105   6.445   9.298  0.0000  0.0000  0.0000
 2512OM     OM1 2512   9.417   8.282   0.799  0.0000  0.0000  0.0000
 2513OM     OM1 2513   9.332   8.511   0.881  0.0000  0.0000  0.0000
 2514OM     OM1 2514   9.358   8.487   0.625  0.0000  0.0000  0.0000
 2515OM     OM1 2515   9.574   8.488   0.766  0.0000  0.0000  0.0000
 2516OM     OM1 2516   1.377   1.825   8.584  0.0000  0.0000  0.0000
 2517OM     OM1 2517   1.211   1.828   8.377  0.0000  0.0000  0.0000
 2518OM     OM1 2518   1.442   1.932   8.354  0.0000  0.0000  0.0000
 2519OM     OM1 2519   1.261   2.053   8.498  0.0000  0.0000  0.0000
 2520OM     OM1 2520   8.623   3.189   8.938  0.0000  0.0000  0.0000
 2521OM     OM1 2521   8.497   3.212   9.167  0.0000  0.0000  0.0000
 2522OM     OM1 2522   8.632   3.414   9.069  0.0000  0.0000  0.0000
 2523OM     OM1 2523   8.757   3.221   9.168  0.0000  0.0000  0.0000
 2524OM     OM1 2524   8.944   1.449   0.669  0.0000  0.0000  0.0000
 2525OM     OM1 2525   8.955   1.366   0.403  0.0000  0.0000  0.0000
 2526OM     OM1 2526   9.055   1.233   0.615  0.0000  0.0000  0.0000
 2527OM     OM1 2527   9.164   1.453   0.530  0.0000  0.0000  0.0000
 2528OM     OM1 2528   0.501   8.409   0.364  0.0000  0.0000  0.0000
 2529OM     OM1 2529   0.308   8.576   0.350  0.0000  0.0000  0.0000
 2530OM     OM1 2530   0.397   8.468   0.135  0.0000  0.0000  0.0000
 2531OM     OM1 2531   0.247   8.331   0.301  0.0000  0.0000  0.0000
 2532OM     OM1 2532   3.426   8.477   0.324  0.0000  0.0000  0.0000
 2533OM     OM1 2533   3.191   8.429   0.436  0.0000  0.0000  0.0000
 2534OM     OM1 2534   3.247   8.660   0.318  0.0000  0.0000  0.0000
 2535OM     OM1 2535   3.220   8.439   0.175  0.0000  0.0000  0.0000
 2536OM     OM1 2536   6.909   5.965   8.762  0.0000  0.0000  0.0000
 2537OM     OM1 2537   6.973   5.720   8.751  0.0000  0.0000  0.0000
 2538OM     OM1 2538   6.821   5.796   8.946  0.0000  0.0000  0.0000
 2539OM     OM1 2539   2.869   8.563   1.048  0.0000  0.0000  0.0000
 2540OM     OM1 2540   2.812   8.607   1.289  0.0000  0.0000  0.0000
 2541OM     OM1 2541   3.058   8.670   1.200  0.0000  0.0000  0.0000
 2542OM     OM1 2542   7.217   0.889   0.693  0.0000  0.0000  0.0000
 2543OM     OM1 2543   7.013   0.864   0.845  0.0000  0.0000  0.0000
 2544OM     OM1 2544   7.259   0.779   0.926  0.0000  0.0000  0.0000
 2545OM     OM1 2545   6.571   2.568   9.036  0.0000  0.0000  0.0000
 2546OM     OM1 2546   6.724   2.389   9.132  0.0000  0.0000  0.0000
 2547OM     OM1 2547   6.558   2.329   8.941  0.0000  0.0000  0.0000
 2548OM     OM1 2548   6.459   2.359   9.171  0.0000  0.0000  0.0000
 2549OM     OM1 2549   2.028   3.307   0.459  0.0000  0.0000  0.0000
 2550OM     OM1 2550   1.856   3.417   0.601  0.0000  0.0000  0.0000
 2551OM     OM1 2551   2.113   3.465   0.647  0.0000  0.0000  0.0000
 2552OM     OM1 2552   1.995   3.242   0.724  0.0000  0.0000  0.0000
 2553OM     OM1 2553   2.282   7.096   0.874  0.0000  0.0000  0.0000
 2554OM     OM1 2554   2.480   7.188   1.043  0.0000  0.0000  0.0000
 2555OM     OM1 2555   2.237   7.253   1.077  0.0000  0.0000  0.0000
 2556OM     OM1 2556   2.362   7.344   0.871  0.0000  0.0000  0.0000
 2557OM     OM1 2557   2.101   6.077   8.281  0.0000  0.0000  0.0000
 2558OM     OM1 2558   2.285   5.766   8.470  0.0000  0.0000  0.0000
 2559OM     OM1 2559   2.503   5.840   8.343  0.0000  0.0000  0.0000
 2560OM     OM1 2560   2.263   5.874   8.236  0.0000  0.0000  0.0000
 2561OM     OM1 2561   1.182   1.231   8.976  0.0000  0.0000  0.0000
 2562OM     OM1 2562   1.320   1.077   9.130  0.0000  0.0000  0.0000
 2563OM     OM1 2563   1.120   1.207   9.237  0.0000  0.0000  0.0000
 2564OM     OM1 2564   8.540   0.642   9.302  0.0000  0.0000  0.0000
 2565OM     OM1 2565   8.675   0.506   9.488  0.0000  0.0000  0.0000
 2566OM     OM1 2566   8.417   0.492   9.486  0.0000  0.0000  0.0000
 2567OM     OM1 2567   3.425   8.993   1.000  0.0000  0.0000  0.0000
 2568OM     OM1 2568   3.482   8.953   1.252  0.0000  0.0000  0.0000
 2569OM     OM1 2569   3.564   9.172   1.128  0.0000  0.0000  0.0000
 2570OM     OM1 2570   3.669   8.939   1.072  0.0000  0.0000  0.0000
 2571OM     OM1 2571   1.106   9.266   0.321  0.0000  0.0000  0.0000
 2572OM     OM1 2572   1.224   9.087   0.168  0.0000  0.0000  0.0000
 2573OM     OM1 2573   1.174   8.871   0.019  0.0000  0.0000  0.0000
 2574OM     OM1 2574   4.540   4.800   0.030  0.0000  0.0000  0.0000
 2575OM     OM1 2575   4.746   4.674   0.120  0.0000  0.0000  0.0000
 2576OM     OM1 2576   4.680   4.652   9.468  0.0000  0.0000  0.0000
 2577OM     OM1 2577   4.541   4.538   0.049  0.0000  0.0000  0.0000
 2578OM     OM1 2578   8.155   4.542   9.445  0.0000  0.0000  0.0000
 2579OM     OM1 2579   8.411   4.494   9.488  0.0000  0.0000  0.0000
 2580OM     OM1 2580   8.288   4.645   0.052  0.0000  0.0000  0.0000
 2581OM     OM1 2581   9.289   2.309   8.471  0.0000  0.0000  0.0000
 2582OM     OM1 2582   9.551   2.338   8.428  0.0000  0.0000  0.0000
 2583OM     OM1 2583   7.972   3.179   0.954  0.0000  0.0000  0.0000
 2584OM     OM1 2584   7.808   3.562   1.239  0.0000  0.0000  0.0000
 2585OM     OM1 2585   7.901   3.414   1.051  0.0000  0.0000  0.0000
 2586OM     OM1 2586   7.985   3.668   1.070  0.0000  0.0000  0.0000
 2587OM     OM1 2587   1.725   2.693   8.275  0.0000  0.0000  0.0000
 2588OM     OM1 2588   1.914   2.632   8.448  0.0000  0.0000  0.0000
 2589OM     OM1 2589   4.825   4.073   1.203  0.0000  0.0000  0.0000
 2590OM     OM1 2590   4.632   4.239   1.122  0.0000  0.0000  0.0000
 2591OM     OM1 2591   4.570   4.027   1.251  0.0000  0.0000  0.0000
 2592OM     OM1 2592   1.761   0.405   8.787  0.0000  0.0000  0.0000
 2593OM     OM1 2593   1.773   0.143   8.734  0.0000  0.0000  0.0000
 2594OM     OM1 2594   1.546   0.245   8.791  0.0000  0.0000  0.0000
 2595OM     OM1 2595   4.899   9.048   8.566  0.0000  0.0000  0.0000
 2596OM     OM1 2596   5.026   9.222   8.716  0.0000  0.0000  0.0000
 2597OM     OM1 2597   5.020   8.973   8.783  0.0000  0.0000  0.0000
 2598OM     OM1 2598   5.233   4.749   0.126  0.0000  0.0000  0.0000
 2599OM     OM1 2599   5.058   4.933   0.078  0.0000  0.0000  0.0000
 2600OM     OM1 2600   4.982   4.726   0.209  0.0000  0.0000  0.0000
 2601OM     OM1 2601   5.034   4.699   9.560  0.0000  0.0000  0.0000
 2602OM     OM1 2602   5.269   5.771   8.363  0.0000  0.0000  0.0000
 2603OM     OM1 2603   5.072   5.615   8.426  0.0000  0.0000  0.0000
 2604OM     OM1 2604   7.073   1.566   8.322  0.0000  0.0000  0.0000
 2605OM     OM1 2605   6.852   1.655   8.210  0.0000  0.0000  0.0000
 2606OM     OM1 2606   3.088   7.838   0.878  0.0000  0.0000  0.0000
 2607OM     OM1 2607   3.002   7.601   0.889  0.0000  0.0000  0.0000
 2608OM     OM1 2608   3.302   7.820   0.744  0.0000  0.0000  0.0000
 2609OM     OM1 2609   3.109   7.966   0.637  0.0000  0.0000  0.0000
 2610OM     OM1 2610   7.397   5.794   0.467  0.0000  0.0000  0.0000
 2611OM     OM1 2611   7.202   5.669   0.380  0.0000  0.0000  0.0000
 2612OM     OM1 2612   7.406   5.686   0.219  0.0000  0.0000  0.0000
 2613OM     OM1 2613   0.156   1.217   9.467  0.0000  0.0000  0.0000
 2614OM     OM1 2614   0.394   1.107   9.440  0.0000  0.0000  0.0000
 2615OM     OM1 2615   0.186   0.976   9.558  0.0000  0.0000  0.0000
 2616OM     OM1 2616   9.366   9.217   0.866  0.0000  0.0000  0.0000
 2617OM     OM1 2617   9.285   9.414   1.007  0.0000  0.0000  0.0000
 2618OM     OM1 2618   9.536   9.404   0.905  0.0000  0.0000  0.0000
 2619OM     OM1 2619   8.544   7.391   0.911  0.0000  0.0000  0.0000
 2620OM     OM1 2620   8.459   7.444   1.154  0.0000  0.0000  0.0000
 2621OM     OM1 2621   8.470   7.628   0.973  0.0000  0.0000  0.0000
 2622OM     OM1 2622   8.694   7.538   1.075  0.0000  0.0000  0.0000
 2623OM     OM1 2623   6.161   6.643   8.328  0.0000  0.0000  0.0000
 2624OM     OM1 2624   6.030   6.464   8.204  0.0000  0.0000  0.0000
 2625OM     OM1 2625   0.393   9.274   0.308  0.0000  0.0000  0.0000
 2626OM     OM1 2626   0.765   9.022   0.210  0.0000  0.0000  0.0000
 2627OM     OM1 2627   0.612   9.221   0.173  0.0000  0.0000  0.0000
 2628OM     OM1 2628   0.806   9.171   0.000  0.0000  0.0000  0.0000
 2629OM     OM1 2629   6.118   2.656   8.579  0.0000  0.0000  0.0000
 2630OM     OM1 2630   6.295   2.515   8.710  0.0000  0.0000  0.0000
 2631OM     OM1 2631   6.183   2.710   8.822  0.0000  0.0000  0.0000
 2632OM     OM1 2632   4.802   1.424   0.911  0.0000  0.0000  0.0000
 2633OM     OM1 2633   4.871   1.251   1.103  0.0000  0.0000  0.0000
 2634OM     OM1 2634   4.627   1.327   1.085  0.0000  0.0000  0.0000
 2635OM     OM1 2635   4.731   1.181   0.889  0.0000  0.0000  0.0000
 2636OM     OM1 2636   7.068   1.206   0.600  0.0000  0.0000  0.0000
 2637OM     OM1 2637   6.813   1.249   0.544  0.0000  0.0000  0.0000
 2638OM     OM1 2638   6.884   1.077   0.735  0.0000  0.0000  0.0000
 2639OM     OM1 2639   6.914   1.342   0.761  0.0000  0.0000  0.0000
 2640OM     OM1 2640   3.310   0.469   0.878  0.0000  0.0000  0.0000
 2641OM     OM1 2641   3.062   0.560   0.950  0.0000  0.0000  0.0000
 2642OM     OM1 2642   3.166   0.633   0.732  0.0000  0.0000  0.0000
 2643OM     OM1 2643   3.271   0.714   0.961  0.0000  0.0000  0.0000
 2644OM     OM1 2644   0.108   5.133   0.062  0.0000  0.0000  0.0000
 2645OM     OM1 2645   0.056   5.375   0.002  0.0000  0.0000  0.0000
 2646OM     OM1 2646   0.286   5.261   9.529  0.0000  0.0000  0.0000
 2647OM     OM1 2647   3.981   5.084   8.736  0.0000  0.0000  0.0000
 2648OM     OM1 2648   3.895   5.305   8.636  0.0000  0.0000  0.0000
 2649OM     OM1 2649   3.868   5.480   8.824  0.0000  0.0000  0.0000
 2650OM     OM1 2650   4.151   5.263   8.646  0.0000  0.0000  0.0000
 2651OM     OM1 2651   5.665   3.317   8.131  0.0000  0.0000  0.0000
 2652OM     OM1 2652   5.438   3.197   8.173  0.0000  0.0000  0.0000
 2653OM     OM1 2653   5.651   3.147   8.321  0.0000  0.0000  0.0000
 2654OM     OM1 2654   4.350   7.839   0.291  0.0000  0.0000  0.0000
 2655OM     OM1 2655   4.504   7.644   0.215  0.0000  0.0000  0.0000
 2656OM     OM1 2656   4.248   7.672   0.127  0.0000  0.0000  0.0000
 2657OM     OM1 2657   4.447   7.831   0.050  0.0000  0.0000  0.0000
 2658OM     OM1 2658   4.971   8.322   0.180  0.0000  0.0000  0.0000
 2659OM     OM1 2659   5.014   8.555   0.044  0.0000  0.0000  0.0000
 2660OM     OM1 2660   7.011   9.153   0.256  0.0000  0.0000  0.0000
 2661OM     OM1 2661   6.986   8.988   0.061  0.0000  0.0000  0.0000
 2662OM     OM1 2662   7.081   9.226   0.008  0.0000  0.0000  0.0000
 2663OM     OM1 2663   6.831   9.186   0.057  0.0000  0.0000  0.0000
 2664OM     OM1 2664   7.169   8.333   9.194  0.0000  0.0000  0.0000
 2665OM     OM1 2665   7.186   8.486   9.402  0.0000  0.0000  0.0000
 2666OM     OM1 2666   0.244   4.590   8.496  0.0000  0.0000  0.0000
 2667OM     OM1 2667   0.171   4.339   8.456  0.0000  0.0000  0.0000
 2668OM     OM1 2668   6.385   6.741   9.029  0.0000  0.0000  0.0000
 2669OM     OM1 2669   6.645   6.746   9.083  0.0000  0.0000  0.0000
 2670OM     OM1 2670   6.529   6.527   9.032  0.0000  0.0000  0.0000
 2671OM     OM1 2671   6.589   6.703   8.842  0.0000  0.0000  0.0000
 2672OM     OM1 2672   0.372   1.432   0.578  0.0000  0.0000  0.0000
 2673OM     OM1 2673   0.595   1.528   0.688  0.0000  0.0000  0.0000
 2674OM     OM1 2674   0.596   1.297   0.573  0.0000  0.0000  0.0000
 2675OM     OM1 2675   0.561   1.524   0.430  0.0000  0.0000  0.0000
 2676OM     OM1 2676   2.694   3.351   9.088  0.0000  0.0000  0.0000
 2677OM     OM1 2677   2.443   3.361   9.167  0.0000  0.0000  0.0000
 2678OM     OM1 2678   2.561   3.127   9.123  0.0000  0.0000  0.0000
 2679OM     OM1 2679   2.633   3.263   9.329  0.0000  0.0000  0.0000
 2680OM     OM1 2680   7.910   0.971   9.310  0.0000  0.0000  0.0000
 2681OM     OM1 2681   7.939   0.759   9.452  0.0000  0.0000  0.0000
 2682OM     OM1 2682   7.896   0.735   9.192  0.0000  0.0000  0.0000
 2683OM     OM1 2683   7.784   0.496   9.147  0.0000  0.0000  0.0000
 2684OM     OM1 2684   5.127   5.663   1.155  0.0000  0.0000  0.0000
 2685OM     OM1 2685   4.907   5.592   1.011  0.0000  0.0000  0.0000
 2686OM     OM1 2686   5.033   5.837   1.008  0.0000  0.0000  0.0000
 2687OM     OM1 2687   5.129   5.625   0.892  0.0000  0.0000  0.0000
 2688OM     OM1 2688   5.881   3.420   8.577  0.0000  0.0000  0.0000
 2689OM     OM1 2689   5.630   3.453   8.588  0.0000  0.0000  0.0000
 2690OM     OM1 2690   5.762   3.412   8.350  0.0000  0.0000  0.0000
 2691OM     OM1 2691   5.771   3.634   8.462  0.0000  0.0000  0.0000
 2692OM     OM1 2692   4.449   5.179   0.686  0.0000  0.0000  0.0000
 2693OM     OM1 2693   4.530   4.942   0.748  0.0000  0.0000  0.0000
 2694OM     OM1 2694   4.316   5.041   0.864  0.0000  0.0000  0.0000
 2695OM     OM1 2695   4.305   4.965   0.619  0.0000  0.0000  0.0000
 2696OM     OM1 2696   0.826   2.632   1.024  0.0000  0.0000  0.0000
 2697OM     OM1 2697   0.576   2.689   1.116  0.0000  0.0000  0.0000
 2698OM     OM1 2698   0.685   2.463   1.145  0.0000  0.0000  0.0000
 2699OM     OM1 2699   8.120   2.984   1.054  0.0000  0.0000  0.0000
 2700OM     OM1 2700   8.174   3.236   1.097  0.0000  0.0000  0.0000
 2701OM     OM1 2701   8.205   3.139   0.853  0.0000  0.0000  0.0000
 2702OM     OM1 2702   0.260   5.789   0.121  0.0000  0.0000  0.0000
 2703OM     OM1 2703   0.415   5.590   0.131  0.0000  0.0000  0.0000
 2704OM     OM1 2704   0.245   5.628   0.329  0.0000  0.0000  0.0000
 2705OM     OM1 2705   0.452   5.773   0.315  0.0000  0.0000  0.0000
 2706OM     OM1 2706   0.596   0.711   8.635  0.0000  0.0000  0.0000
 2707OM     OM1 2707   0.447   0.493   8.668  0.0000  0.0000  0.0000
 2708OM     OM1 2708   0.642   0.504   8.495  0.0000  0.0000  0.0000
 2709OM     OM1 2709   7.998   8.468   9.592  0.0000  0.0000  0.0000
 2710OM     OM1 2710   8.087   8.525   9.336  0.0000  0.0000  0.0000
 2711OM     OM1 2711   7.866   8.607   9.411  0.0000  0.0000  0.0000
 2712OM     OM1 2712   7.896   8.348   9.397  0.0000  0.0000  0.0000
 2713OM     OM1 2713   8.549   4.156   8.648  0.0000  0.0000  0.0000
 2714OM     OM1 2714   8.477   3.906   8.572  0.0000  0.0000  0.0000
 2715OM     OM1 2715   8.691   4.025   8.486  0.0000  0.0000  0.0000
 2716OM     OM1 2716   8.440   4.119   8.422  0.0000  0.0000  0.0000
 2717OM     OM1 2717   6.826   5.138   9.327  0.0000  0.0000  0.0000
 2718OM     OM1 2718   6.613   5.300   9.294  0.0000  0.0000  0.0000
 2719OM     OM1 2719   6.849   5.362   9.206  0.0000  0.0000  0.0000
 2720OM     OM1 2720   6.796   5.347   9.471  0.0000  0.0000  0.0000
 2721OM     OM1 2721   8.767   2.100   8.988  0.0000  0.0000  0.0000
 2722OM     OM1 2722   8.534   2.223   9.002  0.0000  0.0000  0.0000
 2723OM     OM1 2723   8.537   1.963   8.977  0.0000  0.0000  0.0000
 2724OM     OM1 2724   8.621   2.117   8.776  0.0000  0.0000  0.0000
 2725OM     OM1 2725   9.104   5.444   0.133  0.0000  0.0000  0.0000
 2726OM     OM1 2726   9.281   5.404   0.318  0.0000  0.0000  0.0000
 2727OM     OM1 2727   9.062   5.253   0.304  0.0000  0.0000  0.0000
 2728OM     OM1 2728   9.262   5.236   0.130  0.0000  0.0000  0.0000
 2729OM     OM1 2729   7.476   3.361   8.366  0.0000  0.0000  0.0000
 2730OM     OM1 2730   7.415   3.506   8.167  0.0000  0.0000  0.0000
 2731OM     OM1 2731   7.660   3.504   8.246  0.0000  0.0000  0.0000
 2732OM     OM1 2732   9.252   1.592   1.179  0.0000  0.0000  0.0000
 2733OM     OM1 2733   9.516   1.578   1.144  0.0000  0.0000  0.0000
 2734OM     OM1 2734   9.350   1.484   0.962  0.0000  0.0000  0.0000
 2735OM     OM1 2735   2.643   7.723   0.690  0.0000  0.0000  0.0000
 2736OM     OM1 2736   2.776   7.815   0.472  0.0000  0.0000  0.0000
 2737OM     OM1 2737   2.712   7.566   0.505  0.0000  0.0000  0.0000
 2738OM     OM1 2738   3.270   0.016   8.692  0.0000  0.0000  0.0000
 2739OM     OM1 2739   3.166   0.241   8.768  0.0000  0.0000  0.0000
 2740OM     OM1 2740   3.024   0.036   8.792  0.0000  0.0000  0.0000
 2741OM     OM1 2741   3.078   0.116   8.548  0.0000  0.0000  0.0000
 2742OM     OM1 2742   0.999   1.658   8.810  0.0000  0.0000  0.0000
 2743OM     OM1 2743   1.163   1.723   8.987  0.0000  0.0000  0.0000
 2744OM     OM1 2744   1.258   1.659   8.745  0.0000  0.0000  0.0000
 2745OM     OM1 2745   1.162   1.472   8.887  0.0000  0.0000  0.0000
 2746OM     OM1 2746   6.893   5.100   1.085  0.0000  0.0000  0.0000
 2747OM     OM1 2747   7.152   5.122   1.070  0.0000  0.0000  0.0000
 2748OM     OM1 2748   7.017   5.340   1.106  0.0000  0.0000  0.0000
 2749OM     OM1 2749   6.388   0.935   9.488  0.0000  0.0000  0.0000
 2750OM     OM1 2750   6.134   0.994   9.422  0.0000  0.0000  0.0000
 2751OM     OM1 2751   6.293   0.884   9.256  0.0000  0.0000  0.0000
 2752OM     OM1 2752   6.218   0.740   9.454  0.0000  0.0000  0.0000
 2753OM     OM1 2753   8.319   7.036   8.667  0.0000  0.0000  0.0000
 2754OM     OM1 2754   8.117   6.819   8.519  0.0000  0.0000  0.0000
 2755OM     OM1 2755   8.369   6.813   8.794  0.0000  0.0000  0.0000
 2756OM     OM1 2756   8.369   6.816   8.540  0.0000  0.0000  0.0000
 2757OM     OM1 2757   9.226   7.916   9.506  0.0000  0.0000  0.0000
 2758OM     OM1 2758   9.176   7.730   0.073  0.0000  0.0000  0.0000
 2759OM     OM1 2759   9.416   7.824   0.085  0.0000  0.0000  0.0000
 2760OM     OM1 2760   9.221   7.975   0.152  0.0000  0.0000  0.0000
 2761OM     OM1 2761   4.083   1.051   0.572  0.0000  0.0000  0.0000
 2762OM     OM1 2762   3.948   1.265   0.524  0.0000  0.0000  0.0000
 2763OM     OM1 2763   4.218   1.276   0.568  0.0000  0.0000  0.0000
 2764OM     OM1 2764   4.476   5.035   8.886  0.0000  0.0000  0.0000
 2765OM     OM1 2765   4.734   5.053   8.819  0.0000  0.0000  0.0000
 2766OM     OM1 2766   4.611   4.828   8.785  0.0000  0.0000  0.0000
 2767OM     OM1 2767   4.655   4.917   9.025  0.0000  0.0000  0.0000
 2768OM     OM1 2768   0.741   2.173   0.854  0.0000  0.0000  0.0000
 2769OM     OM1 2769   0.873   1.991   1.013  0.0000  0.0000  0.0000
 2770OM     OM1 2770   0.616   2.004   0.997  0.0000  0.0000  0.0000
 2771OM     OM1 2771   0.556   3.723   0.905  0.0000  0.0000  0.0000
 2772OM     OM1 2772   0.537   3.329   0.938  0.0000  0.0000  0.0000
 2773OM     OM1 2773   0.376   3.523   0.953  0.0000  0.0000  0.0000
 2774OM     OM1 2774   0.485   3.549   0.722  0.0000  0.0000  0.0000
 2775OM     OM1 2775   3.895   3.259   8.402  0.0000  0.0000  0.0000
 2776OM     OM1 2776   4.119   3.133   8.400  0.0000  0.0000  0.0000
 2777OM     OM1 2777   1.801   6.107   9.246  0.0000  0.0000  0.0000
 2778OM     OM1 2778   1.688   6.046   9.018  0.0000  0.0000  0.0000
 2779OM     OM1 2779   1.756   5.852   9.188  0.0000  0.0000  0.0000
 2780OM     OM1 2780   9.510   3.602   1.091  0.0000  0.0000  0.0000
 2781OM     OM1 2781   0.051   3.662   0.881  0.0000  0.0000  0.0000
 2782OM     OM1 2782   9.461   3.492   0.856  0.0000  0.0000  0.0000
 2783OM     OM1 2783   9.405   3.742   0.883  0.0000  0.0000  0.0000
 2784OM     OM1 2784   9.039   4.329   0.529  0.0000  0.0000  0.0000
 2785OM     OM1 2785   8.822   4.411   0.666  0.0000  0.0000  0.0000
 2786OM     OM1 2786   8.851   4.166   0.569  0.0000  0.0000  0.0000
 2787OM     OM1 2787   8.820   4.374   0.407  0.0000  0.0000  0.0000
 2788OM     OM1 2788   6.954   6.876   0.731  0.0000  0.0000  0.0000
 2789OM     OM1 2789   6.936   6.887   0.474  0.0000  0.0000  0.0000
 2790OM     OM1 2790   6.945   6.660   0.598  0.0000  0.0000  0.0000
 2791OM     OM1 2791   1.628   4.024   0.404  0.0000  0.0000  0.0000
 2792OM     OM1 2792   1.452   3.897   0.255  0.0000  0.0000  0.0000
 2793OM     OM1 2793   1.464   4.084   0.594  0.0000  0.0000  0.0000
 2794OM     OM1 2794   3.576   2.191   9.530  0.0000  0.0000  0.0000
 2795OM     OM1 2795   3.615   2.347   0.129  0.0000  0.0000  0.0000
 2796OM     OM1 2796   3.486   2.135   0.167  0.0000  0.0000  0.0000
 2797OM     OM1 2797   3.520   2.579   0.095  0.0000  0.0000  0.0000
 2798OM     OM1 2798   6.872   6.625   0.274  0.0000  0.0000  0.0000
 2799OM     OM1 2799   7.046   6.509   0.413  0.0000  0.0000  0.0000
 2800OM     OM1 2800   2.770   7.336   8.821  0.0000  0.0000  0.0000
 2801OM     OM1 2801   2.569   7.234   8.949  0.0000  0.0000  0.0000
 2802OM     OM1 2802   2.549   7.418   8.725  0.0000  0.0000  0.0000
 2803OM     OM1 2803   0.123   9.412   0.565  0.0000  0.0000  0.0000
 2804OM     OM1 2804   0.373   9.415   0.655  0.0000  0.0000  0.0000
 2805OM     OM1 2805   0.182   9.457   0.815  0.0000  0.0000  0.0000
 2806OM     OM1 2806   3.676   4.936   0.200  0.0000  0.0000  0.0000
 2807OM     OM1 2807   3.526   5.148   0.207  0.0000  0.0000  0.0000
 2808OM     OM1 2808   3.692   5.132   0.023  0.0000  0.0000  0.0000
 2809OM     OM1 2809   3.494   4.958   0.014  0.0000  0.0000  0.0000
 2810OM     OM1 2810   5.179   3.371   8.782  0.0000  0.0000  0.0000
 2811OM     OM1 2811   5.135   3.627   8.797  0.0000  0.0000  0.0000
 2812OM     OM1 2812   4.935   3.462   8.777  0.0000  0.0000  0.0000
 2813OM     OM1 2813   5.068   3.484   9.003  0.0000  0.0000  0.0000
 2814OM     OM1 2814   8.307   7.714   8.738  0.0000  0.0000  0.0000
 2815OM     OM1 2815   8.372   7.666   9.038  0.0000  0.0000  0.0000
 2816OM     OM1 2816   8.467   7.558   8.606  0.0000  0.0000  0.0000
 2817OM     OM1 2817   8.628   7.682   9.036  0.0000  0.0000  0.0000
 2818OM     OM1 2818   7.649   5.705   9.353  0.0000  0.0000  0.0000
 2819OM     OM1 2819   7.768   5.545   9.529  0.0000  0.0000  0.0000
 2820OM     OM1 2820   7.895   5.728   9.396  0.0000  0.0000  0.0000
 2821OM     OM1 2821   7.808   5.511   9.272  0.0000  0.0000  0.0000
 2822OM     OM1 2822   5.842   2.172   8.559  0.0000  0.0000  0.0000
 2823OM     OM1 2823   6.003   1.988   8.673  0.0000  0.0000  0.0000
 2824OM     OM1 2824   5.835   2.135   8.809  0.0000  0.0000  0.0000
 2825OM     OM1 2825   2.693   1.559   0.324  0.0000  0.0000  0.0000
 2826OM     OM1 2826   2.527   1.753   0.266  0.0000  0.0000  0.0000
 2827OM     OM1 2827   2.468   1.507   0.197  0.0000  0.0000  0.0000
 2828OM     OM1 2828   2.656   1.642   0.073  0.0000  0.0000  0.0000
 2829OM     OM1 2829   5.955   9.271   0.311  0.0000  0.0000  0.0000
 2830OM     OM1 2830   5.901   9.510   0.241  0.0000  0.0000  0.0000
 2831OM     OM1 2831   5.711   9.327   0.226  0.0000  0.0000  0.0000
 2832OM     OM1 2832   9.100   8.616   0.956  0.0000  0.0000  0.0000
 2833OM     OM1 2833   8.999   8.834   0.836  0.0000  0.0000  0.0000
 2834OM     OM1 2834   4.538   0.145   9.426  0.0000  0.0000  0.0000
 2835OM     OM1 2835   4.770   0.016   9.499  0.0000  0.0000  0.0000
 2836OM     OM1 2836   4.733   0.278   9.520  0.0000  0.0000  0.0000
 2837OM     OM1 2837   6.544   6.261   1.167  0.0000  0.0000  0.0000
 2838OM     OM1 2838   6.650   6.445   1.018  0.0000  0.0000  0.0000
 2839OM     OM1 2839   6.746   6.377   1.254  0.0000  0.0000  0.0000
 2840OM     OM1 2840   8.261   0.523   0.496  0.0000  0.0000  0.0000
 2841OM     OM1 2841   8.526   0.502   0.470  0.0000  0.0000  0.0000
 2842OM     OM1 2842   8.423   0.723   0.555  0.0000  0.0000  0.0000
 2843OM     OM1 2843   8.418   0.511   0.705  0.0000  0.0000  0.0000
 2844OM     OM1 2844   4.572   7.443   0.371  0.0000  0.0000  0.0000
 2845OM     OM1 2845   4.493   7.190   0.338  0.0000  0.0000  0.0000
 2846OM     OM1 2846   4.333   7.357   0.463  0.0000  0.0000  0.0000
 2847OM     OM1 2847   4.381   7.391   0.218  0.0000  0.0000  0.0000
 2848OM     OM1 2848   1.526   4.062   9.559  0.0000  0.0000  0.0000
 2849OM     OM1 2849   1.587   4.251   9.398  0.0000  0.0000  0.0000
 2850OM     OM1 2850   1.773   4.109   9.508  0.0000  0.0000  0.0000
 2851OM     OM1 2851   1.441   2.650   8.794  0.0000  0.0000  0.0000
 2852OM     OM1 2852   1.525   2.719   8.565  0.0000  0.0000  0.0000
 2853OM     OM1 2853   1.655   2.533   8.700  0.0000  0.0000  0.0000
 2854OM     OM1 2854   0.295   1.980   0.713  0.0000  0.0000  0.0000
 2855OM     OM1 2855   0.143   2.128   0.553  0.0000  0.0000  0.0000
 2856OM     OM1 2856   0.219   1.891   0.492  0.0000  0.0000  0.0000
 2857OM     OM1 2857   8.259   2.152   1.070  0.0000  0.0000  0.0000
 2858OM     OM1 2858   6.469   2.866   0.628  0.0000  0.0000  0.0000
 2859OM     OM1 2859   6.243   2.731   0.665  0.0000  0.0000  0.0000
 2860OM     OM1 2860   6.387   2.797   0.869  0.0000  0.0000  0.0000
 2861OM     OM1 2861   6.483   2.730   0.420  0.0000  0.0000  0.0000
 2862OM     OM1 2862   9.255   6.828   8.822  0.0000  0.0000  0.0000
 2863OM     OM1 2863   9.240   6.633   8.668  0.0000  0.0000  0.0000
 2864OM     OM1 2864   1.614   3.420   0.690  0.0000  0.0000  0.0000
 2865OM     OM1 2865   1.637   3.362   0.447  0.0000  0.0000  0.0000
 2866OM     OM1 2866   1.650   3.147   0.299  0.0000  0.0000  0.0000
 2867OM     OM1 2867   4.598   2.154   8.844  0.0000  0.0000  0.0000
 2868OM     OM1 2868   4.835   2.220   8.749  0.0000  0.0000  0.0000
 2869OM     OM1 2869   4.733   1.998   8.688  0.0000  0.0000  0.0000
 2870OM     OM1 2870   4.813   2.041   8.945  0.0000  0.0000  0.0000
 2871OM     OM1 2871   7.311   4.800   0.295  0.0000  0.0000  0.0000
 2872OM     OM1 2872   7.424   4.668   0.482  0.0000  0.0000  0.0000
 2873OM     OM1 2873   7.351   4.538   0.263  0.0000  0.0000  0.0000
 2874OM     OM1 2874   1.983   4.139   1.020  0.0000  0.0000  0.0000
 2875OM     OM1 2875   1.726   4.197   1.016  0.0000  0.0000  0.0000
 2876OM     OM1 2876   1.800   3.948   1.073  0.0000  0.0000  0.0000
 2877OM     OM1 2877   1.703   0.809   0.317  0.0000  0.0000  0.0000
 2878OM     OM1 2878   1.645   0.918   0.082  0.0000  0.0000  0.0000
 2879OM     OM1 2879   1.793   0.706   0.097  0.0000  0.0000  0.0000
 2880OM     OM1 2880   1.789   0.324   0.635  0.0000  0.0000  0.0000
 2881OM     OM1 2881   1.983   0.408   0.492  0.0000  0.0000  0.0000
 2882OM     OM1 2882   1.867   0.191   0.409  0.0000  0.0000  0.0000
 2883OM     OM1 2883   2.011   0.198   0.635  0.0000  0.0000  0.0000
 2884OM     OM1 2884   2.652   5.651   8.263  0.0000  0.0000  0.0000
 2885OM     OM1 2885   2.738   5.802   8.452  0.0000  0.0000  0.0000
 2886OM     OM1 2886   1.225   7.603   8.968  0.0000  0.0000  0.0000
 2887OM     OM1 2887   1.270   7.789   9.148  0.0000  0.0000  0.0000
 2888OM     OM1 2888   1.379   7.812   8.923  0.0000  0.0000  0.0000
 2889OM     OM1 2889   9.048   1.571   8.361  0.0000  0.0000  0.0000
 2890OM     OM1 2890   9.291   1.629   8.420  0.0000  0.0000  0.0000
 2891OM     OM1 2891   9.095   1.788   8.501  0.0000  0.0000  0.0000
 2892OM     OM1 2892   3.707   7.253   0.965  0.0000  0.0000  0.0000
 2893OM     OM1 2893   3.718   7.078   1.149  0.0000  0.0000  0.0000
 2894OM     OM1 2894   3.697   6.773   0.961  0.0000  0.0000  0.0000
 2895OM     OM1 2895   3.765   7.009   0.897  0.0000  0.0000  0.0000
 2896OM     OM1 2896   6.590   4.970   8.631  0.0000  0.0000  0.0000
 2897OM     OM1 2897   6.646   4.722   8.736  0.0000  0.0000  0.0000
 2898OM     OM1 2898   6.493   4.746   8.534  0.0000  0.0000  0.0000
 2899OM     OM1 2899   6.748   4.794   8.513  0.0000  0.0000  0.0000
 2900OM     OM1 2900   7.717   0.955   0.091  0.0000  0.0000  0.0000
 2901OM     OM1 2901   7.769   0.713   0.059  0.0000  0.0000  0.0000
 2902OM     OM1 2902   7.767   0.806   0.304  0.0000  0.0000  0.0000
 2903OM     OM1 2903   9.225   4.100   0.113  0.0000  0.0000  0.0000
 2904OM     OM1 2904   8.968   4.059   0.118  0.0000  0.0000  0.0000
 2905OM     OM1 2905   9.079   4.231   0.288  0.0000  0.0000  0.0000
 2906OM     OM1 2906   0.548   7.440   8.561  0.0000  0.0000  0.0000
 2907OM     OM1 2907   0.819   7.502   8.877  0.0000  0.0000  0.0000
 2908OM     OM1 2908   0.573   7.544   8.803  0.0000  0.0000  0.0000
 2909OM     OM1 2909   4.297   8.783   9.402  0.0000  0.0000  0.0000
 2910OM     OM1 2910   4.160   8.581   9.482  0.0000  0.0000  0.0000
 2911OM     OM1 2911   4.041   8.804   9.451  0.0000  0.0000  0.0000
 2912OM     OM1 2912   0.404   2.081   1.130  0.0000  0.0000  0.0000
 2913OM     OM1 2913   0.632   2.197   1.172  0.0000  0.0000  0.0000
 2914OM     OM1 2914   0.589   1.945   1.252  0.0000  0.0000  0.0000
 2915OM     OM1 2915   6.633   8.414   9.541  0.0000  0.0000  0.0000
 2916OM     OM1 2916   6.757   8.286   0.126  0.0000  0.0000  0.0000
 2917OM     OM1 2917   6.651   8.153   9.531  0.0000  0.0000  0.0000
 2918OM     OM1 2918   4.371   0.115   9.224  0.0000  0.0000  0.0000
 2919OM     OM1 2919   4.390   9.548   9.415  0.0000  0.0000  0.0000
 2920OM     OM1 2920   4.274   0.184   9.453  0.0000  0.0000  0.0000
 2921OM     OM1 2921   6.233   8.581   1.356  0.0000  0.0000  0.0000
 2922OM     OM1 2922   6.137   8.769   1.205  0.0000  0.0000  0.0000
 2923OM     OM1 2923   4.931   8.349   8.864  0.0000  0.0000  0.0000
 2924OM     OM1 2924   4.984   8.095   8.824  0.0000  0.0000  0.0000
 2925OM     OM1 2925   4.741   8.179   8.867  0.0000  0.0000  0.0000
 2926OM     OM1 2926   4.919   8.168   9.060  0.0000  0.0000  0.0000
 2927OM     OM1 2927   1.763   6.175   8.642  0.0000  0.0000  0.0000
 2928OM     OM1 2928   1.942   6.066   8.493  0.0000  0.0000  0.0000
 2929OM     OM1 2929   1.774   5.914   8.628  0.0000  0.0000  0.0000
 2930OM     OM1 2930   1.973   6.037   8.744  0.0000  0.0000  0.0000
 2931OM     OM1 2931   3.113   0.210   9.256  0.0000  0.0000  0.0000
 2932OM     OM1 2932   3.099   9.582   9.138  0.0000  0.0000  0.0000
 2933OM     OM1 2933   3.213   0.180   9.021  0.0000  0.0000  0.0000
 2934OM     OM1 2934   4.562   8.577   9.532  0.0000  0.0000  0.0000
 2935OM     OM1 2935   4.802   8.670   9.545  0.0000  0.0000  0.0000
 2936OM     OM1 2936   4.601   8.840   9.538  0.0000  0.0000  0.0000
 2937OM     OM1 2937   8.617   7.440   0.132  0.0000  0.0000  0.0000
 2938OM     OM1 2938   8.382   7.385   0.216  0.0000  0.0000  0.0000
 2939OM     OM1 2939   8.557   7.526   0.367  0.0000  0.0000  0.0000
 2940OM     OM1 2940   4.861   6.834   0.817  0.0000  0.0000  0.0000
 2941OM     OM1 2941   4.650   6.876   0.695  0.0000  0.0000  0.0000
 2942OM     OM1 2942   4.707   6.627   0.774  0.0000  0.0000  0.0000
 2943OM     OM1 2943   4.842   7.023   0.576  0.0000  0.0000  0.0000
 2944OM     OM1 2944   8.721   3.208   8.463  0.0000  0.0000  0.0000
 2945OM     OM1 2945   8.468   3.189   8.403  0.0000  0.0000  0.0000
 2946OM     OM1 2946   8.579   3.424   8.415  0.0000  0.0000  0.0000
 2947OM     OM1 2947   7.648   6.963   0.513  0.0000  0.0000  0.0000
 2948OM     OM1 2948   7.851   6.865   0.392  0.0000  0.0000  0.0000
 2949OM     OM1 2949   7.709   6.712   0.563  0.0000  0.0000  0.0000
 2950OM     OM1 2950   7.859   6.890   0.657  0.0000  0.0000  0.0000
 2951OM     OM1 2951   3.448   5.127   8.760  0.0000  0.0000  0.0000
 2952OM     OM1 2952   3.594   5.140   8.526  0.0000  0.0000  0.0000
 2953OM     OM1 2953   3.346   5.074   8.533  0.0000  0.0000  0.0000
 2954OM     OM1 2954   3.511   4.911   8.651  0.0000  0.0000  0.0000
 2955OM     OM1 2955   1.748   1.769   0.029  0.0000  0.0000  0.0000
 2956OM     OM1 2956   1.688   1.775   0.298  0.0000  0.0000  0.0000
 2957OM     OM1 2957   1.854   1.605   0.206  0.0000  0.0000  0.0000
 2958OM     OM1 2958   2.863   5.959   9.231  0.0000  0.0000  0.0000
 2959OM     OM1 2959   2.654   5.917   9.080  0.0000  0.0000  0.0000
 2960OM     OM1 2960   2.750   5.726   9.226  0.0000  0.0000  0.0000
 2961OM     OM1 2961   2.888   5.791   9.022  0.0000  0.0000  0.0000
 2962OM     OM1 2962   2.225   8.915   0.975  0.0000  0.0000  0.0000
 2963OM     OM1 2963   2.186   9.009   1.234  0.0000  0.0000  0.0000
 2964OM     OM1 2964   2.415   9.023   1.103  0.0000  0.0000  0.0000
 2965OM     OM1 2965   2.323   8.796   1.179  0.0000  0.0000  0.0000
 2966OM     OM1 2966   7.827   6.569   9.015  0.0000  0.0000  0.0000
 2967OM     OM1 2967   7.637   6.768   8.999  0.0000  0.0000  0.0000
 2968OM     OM1 2968   7.670   6.607   9.206  0.0000  0.0000  0.0000
 2969OM     OM1 2969   7.567   6.519   8.986  0.0000  0.0000  0.0000
 2970OM     OM1 2970   5.045   9.478   0.884  0.0000  0.0000  0.0000
 2971OM     OM1 2971   5.173   9.241   0.844  0.0000  0.0000  0.0000
 2972OM     OM1 2972   5.178   8.978   0.848  0.0000  0.0000  0.0000
 2973OM     OM1 2973   5.301   9.460   0.903  0.0000  0.0000  0.0000
 2974OM     OM1 2974   7.299   3.282   0.169  0.0000  0.0000  0.0000
 2975OM     OM1 2975   7.297   3.533   0.251  0.0000  0.0000  0.0000
 2976OM     OM1 2976   7.122   3.360   0.345  0.0000  0.0000  0.0000
 2977OM     OM1 2977   7.108   3.447   0.101  0.0000  0.0000  0.0000
 2978OM     OM1 2978   2.500   8.963   0.009  0.0000  0.0000  0.0000
 2979OM     OM1 2979   2.350   9.125   0.161  0.0000  0.0000  0.0000
 2980OM     OM1 2980   2.246   8.945   0.008  0.0000  0.0000  0.0000
 2981OM     OM1 2981   2.388   8.878   0.232  0.0000  0.0000  0.0000
 2982OM     OM1 2982   6.745   4.843   0.131  0.0000  0.0000  0.0000
 2983OM     OM1 2983   6.713   4.589   0.058  0.0000  0.0000  0.0000
 2984OM     OM1 2984   6.556   4.787   9.576  0.0000  0.0000  0.0000
 2985OM     OM1 2985   6.811   4.767   9.502  0.0000  0.0000  0.0000
 2986OM     OM1 2986   3.918   3.702   8.292  0.0000  0.0000  0.0000
 2987OM     OM1 2987   4.024   3.569   8.490  0.0000  0.0000  0.0000
 2988OM     OM1 2988   4.149   3.764   8.374  0.0000  0.0000  0.0000
 2989OM     OM1 2989   7.120   1.402   8.515  0.0000  0.0000  0.0000
 2990OM     OM1 2990   7.274   1.415   8.301  0.0000  0.0000  0.0000
 2991OM     OM1 2991   7.089   1.785   8.206  0.0000  0.0000  0.0000
 2992OM     OM1 2992   2.389   2.306   8.825  0.0000  0.0000  0.0000
 2993OM     OM1 2993   2.494   2.352   8.592  0.0000  0.0000  0.0000
 2994OM     OM1 2994   2.394   2.106   8.658  0.0000  0.0000  0.0000
 2995OM     OM1 2995   2.248   2.326   8.607  0.0000  0.0000  0.0000
 2996OM     OM1 2996   2.989   2.391   1.142  0.0000  0.0000  0.0000
 2997OM     OM1 2997   2.734   2.366   1.178  0.0000  0.0000  0.0000
 2998OM     OM1 2998   4.098   2.545   8.862  0.0000  0.0000  0.0000
 2999OM     OM1 2999   4.058   2.573   9.109  0.0000  0.0000  0.0000
 3000OM     OM1 3000   4.303   2.526   9.019  0.0000  0.0000  0.0000
 3001OM     OM1 3001   4.141   2.329   9.012  0.0000  0.0000  0.0000
 3002OM     OM1 3002   9.428   8.730   8.931  0.0000  0.0000  0.0000
 3003OM     OM1 3003   9.507   8.971   8.888  0.0000  0.0000  0.0000
 3004OM     OM1 3004   3.899   3.320   0.939  0.0000  0.0000  0.0000
 3005OM     OM1 3005   3.859   3.049   0.888  0.0000  0.0000  0.0000
 3006OM     OM1 3006   4.096   3.161   0.891  0.0000  0.0000  0.0000
 3007OM     OM1 3007   5.646   3.940   0.584  0.0000  0.0000  0.0000
 3008OM     OM1 3008   6.074   3.786   0.515  0.0000  0.0000  0.0000
 3009OM     OM1 3009   5.640   3.683   0.532  0.0000  0.0000  0.0000
 3010OM     OM1 3010   5.829   3.828   0.428  0.0000  0.0000  0.0000
 3011OM     OM1 3011   1.667   2.363   1.173  0.0000  0.0000  0.0000
 3012OM     OM1 3012   1.453   2.328   1.026  0.0000  0.0000  0.0000
 3013OM     OM1 3013   1.454   2.266   1.289  0.0000  0.0000  0.0000
 3014OM     OM1 3014   1.460   2.514   1.200  0.0000  0.0000  0.0000
 3015OM     OM1 3015   6.127   0.493   9.485  0.0000  0.0000  0.0000
 3016OM     OM1 3016   5.911   0.357   9.408  0.0000  0.0000  0.0000
 3017OM     OM1 3017   6.112   0.236   9.539  0.0000  0.0000  0.0000
 3018OM     OM1 3018   2.685   0.933   8.739  0.0000  0.0000  0.0000
 3019OM     OM1 3019   2.545   0.743   8.839  0.0000  0.0000  0.0000
 3020OM     OM1 3020   2.786   0.698   8.715  0.0000  0.0000  0.0000
 3021OM     OM1 3021   2.572   0.748   8.577  0.0000  0.0000  0.0000
 3022OM     OM1 3022   5.996   8.061   0.162  0.0000  0.0000  0.0000
 3023OM     OM1 3023   6.237   8.161   0.121  0.0000  0.0000  0.0000
 3024OM     OM1 3024   6.052   8.189   9.545  0.0000  0.0000  0.0000
 3025OM     OM1 3025   5.575   6.368   0.341  0.0000  0.0000  0.0000
 3026OM     OM1 3026   5.398   6.462   0.497  0.0000  0.0000  0.0000
 3027OM     OM1 3027   5.633   6.569   0.488  0.0000  0.0000  0.0000
 3028OM     OM1 3028   5.597   6.324   0.597  0.0000  0.0000  0.0000
 3029OM     OM1 3029   7.039   3.877   8.668  0.0000  0.0000  0.0000
 3030OM     OM1 3030   6.928   3.969   8.897  0.0000  0.0000  0.0000
 3031OM     OM1 3031   6.989   4.121   8.682  0.0000  0.0000  0.0000
 3032OM     OM1 3032   7.168   4.031   8.851  0.0000  0.0000  0.0000
 3033OM     OM1 3033   6.154   6.267   1.174  0.0000  0.0000  0.0000
 3034OM     OM1 3034   5.944   6.231   1.333  0.0000  0.0000  0.0000
 3035OM     OM1 3035   6.081   6.444   1.343  0.0000  0.0000  0.0000
 3036OM     OM1 3036   5.118   8.853   8.991  0.0000  0.0000  0.0000
 3037OM     OM1 3037   5.175   8.756   8.763  0.0000  0.0000  0.0000
 3038OM     OM1 3038   5.275   8.996   8.833  0.0000  0.0000  0.0000
 3039OM     OM1 3039   0.063   3.937   1.255  0.0000  0.0000  0.0000
 3040OM     OM1 3040   0.125   4.145   1.129  0.0000  0.0000  0.0000
 3041OM     OM1 3041   9.529   4.160   1.300  0.0000  0.0000  0.0000
 3042OM     OM1 3042   8.670   1.251   1.210  0.0000  0.0000  0.0000
 3043OM     OM1 3043   1.194   2.398   9.121  0.0000  0.0000  0.0000
 3044OM     OM1 3044   1.203   2.222   8.929  0.0000  0.0000  0.0000
 3045OM     OM1 3045   1.020   2.405   8.926  0.0000  0.0000  0.0000
 3046OM     OM1 3046   1.311   2.333   9.342  0.0000  0.0000  0.0000
 3047OM     OM1 3047   2.332   3.811   1.242  0.0000  0.0000  0.0000
 3048OM     OM1 3048   2.366   4.057   1.284  0.0000  0.0000  0.0000
 3049OM     OM1 3049   3.489   5.383   0.318  0.0000  0.0000  0.0000
 3050OM     OM1 3050   3.233   5.356   0.333  0.0000  0.0000  0.0000
 3051OM     OM1 3051   3.328   5.595   0.289  0.0000  0.0000  0.0000
 3052OM     OM1 3052   3.371   5.471   0.525  0.0000  0.0000  0.0000
 3053OM     OM1 3053   2.237   3.793   0.040  0.0000  0.0000  0.0000
 3054OM     OM1 3054   2.314   3.653   0.250  0.0000  0.0000  0.0000
 3055OM     OM1 3055   2.066   3.692   0.198  0.0000  0.0000  0.0000
 3056OM     OM1 3056   4.430   7.373   8.649  0.0000  0.0000  0.0000
 3057OM     OM1 3057   4.362   7.639   8.848  0.0000  0.0000  0.0000
 3058OM     OM1 3058   7.393   5.450   0.884  0.0000  0.0000  0.0000
 3059OM     OM1 3059   7.501   5.351   1.097  0.0000  0.0000  0.0000
 3060OM     OM1 3060   7.527   5.237   0.867  0.0000  0.0000  0.0000
 3061OM     OM1 3061   9.021   6.962   0.008  0.0000  0.0000  0.0000
 3062OM     OM1 3062   8.766   6.975   0.080  0.0000  0.0000  0.0000
 3063OM     OM1 3063   9.164   9.323   8.749  0.0000  0.0000  0.0000
 3064OM     OM1 3064   8.956   9.474   8.757  0.0000  0.0000  0.0000
 3065OM     OM1 3065   9.206   9.567   8.810  0.0000  0.0000  0.0000
 3066OM     OM1 3066   9.131   9.523   8.568  0.0000  0.0000  0.0000
 3067OM     OM1 3067   3.970   9.393   9.388  0.0000  0.0000  0.0000
 3068OM     OM1 3068   4.158   9.446   9.205  0.0000  0.0000  0.0000
 3069OM     OM1 3069   4.093   0.017   9.397  0.0000  0.0000  0.0000
 3070OM     OM1 3070   8.990   6.205   8.656  0.0000  0.0000  0.0000
 3071OM     OM1 3071   9.140   6.223   8.444  0.0000  0.0000  0.0000
 3072OM     OM1 3072   8.962   6.413   8.496  0.0000  0.0000  0.0000
 3073OM     OM1 3073   9.177   6.381   8.647  0.0000  0.0000  0.0000
 3074OM     OM1 3074   5.456   7.391   0.140  0.0000  0.0000  0.0000
 3075OM     OM1 3075   5.663   7.466   0.016  0.0000  0.0000  0.0000
 3076OM     OM1 3076   5.655   7.452   0.288  0.0000  0.0000  0.0000
 3077OM     OM1 3077   0.778   1.561   0.299  0.0000  0.0000  0.0000
 3078OM     OM1 3078   0.639   1.770   0.365  0.0000  0.0000  0.0000
 3079OM     OM1 3079   0.550   1.607   0.177  0.0000  0.0000  0.0000
 3080OM     OM1 3080   9.454   0.218   0.781  0.0000  0.0000  0.0000
 3081OM     OM1 3081   9.393   0.328   0.559  0.0000  0.0000  0.0000
 3082OM     OM1 3082   4.129   6.965   0.163  0.0000  0.0000  0.0000
 3083OM     OM1 3083   4.211   6.773   0.304  0.0000  0.0000  0.0000
 3084OM     OM1 3084   9.482   9.220   8.786  0.0000  0.0000  0.0000
 3085OM     OM1 3085   0.274   9.262   8.872  0.0000  0.0000  0.0000
 3086OM     OM1 3086   0.056   9.395   8.848  0.0000  0.0000  0.0000
 3087OM     OM1 3087   6.214   8.844   8.787  0.0000  0.0000  0.0000
 3088OM     OM1 3088   6.056   9.048   8.805  0.0000  0.0000  0.0000
 3089OM     OM1 3089   6.179   9.002   8.576  0.0000  0.0000  0.0000
 3090OM     OM1 3090   1.838   7.817   0.353  0.0000  0.0000  0.0000
 3091OM     OM1 3091   2.038   7.928   0.474  0.0000  0.0000  0.0000
 3092OM     OM1 3092   1.803   8.036   0.500  0.0000  0.0000  0.0000
 3093OM     OM1 3093   1.914   8.053   0.271  0.0000  0.0000  0.0000
 3094OM     OM1 3094   2.850   0.877   0.239  0.0000  0.0000  0.0000
 3095OM     OM1 3095   3.108   0.836   0.202  0.0000  0.0000  0.0000
 3096OM     OM1 3096   2.964   0.889   9.605  0.0000  0.0000  0.0000
 3097OM     OM1 3097   5.138   3.888   0.554  0.0000  0.0000  0.0000
 3098OM     OM1 3098   5.314   4.037   0.659  0.0000  0.0000  0.0000
 3099OM     OM1 3099   5.121   3.959   0.806  0.0000  0.0000  0.0000
 3100OM     OM1 3100   1.480   1.687   8.298  0.0000  0.0000  0.0000
 3101OM     OM1 3101   1.431   1.425   8.316  0.0000  0.0000  0.0000
 3102OM     OM1 3102   1.592   1.144   9.568  0.0000  0.0000  0.0000
 3103OM     OM1 3103   1.842   1.071   0.006  0.0000  0.0000  0.0000
 3104OM     OM1 3104   1.918   9.489   8.373  0.0000  0.0000  0.0000
 3105OM     OM1 3105   1.813   0.124   8.331  0.0000  0.0000  0.0000
 3106OM     OM1 3106   2.045   0.071   8.238  0.0000  0.0000  0.0000
 3107OM     OM1 3107   4.780   8.467   1.053  0.0000  0.0000  0.0000
 3108OM     OM1 3108   4.968   8.276   1.056  0.0000  0.0000  0.0000
 3109OM     OM1 3109   4.792   8.295   1.372  0.0000  0.0000  0.0000
 3110OM     OM1 3110   5.808   2.645   0.826  0.0000  0.0000  0.0000
 3111OM     OM1 3111   6.022   2.571   0.689  0.0000  0.0000  0.0000
 3112OM     OM1 3112   5.917   2.396   0.845  0.0000  0.0000  0.0000
 3113OM     OM1 3113   6.482   3.777   0.152  0.0000  0.0000  0.0000
 3114OM     OM1 3114   6.639   3.572   0.150  0.0000  0.0000  0.0000
 3115OM     OM1 3115   6.693   3.774   0.313  0.0000  0.0000  0.0000
 3116OM     OM1 3116   6.486   3.620   0.356  0.0000  0.0000  0.0000
 3117OM     OM1 3117   5.012   8.814   9.596  0.0000  0.0000  0.0000
 3118OM     OM1 3118   5.009   8.634   9.397  0.0000  0.0000  0.0000
 3119OM     OM1 3119   3.823   9.325   8.265  0.0000  0.0000  0.0000
 3120OM     OM1 3120   3.801   9.108   8.405  0.0000  0.0000  0.0000
 3121OM     OM1 3121   4.032   9.213   8.358  0.0000  0.0000  0.0000
 3122OM     OM1 3122   0.413   8.118   9.472  0.0000  0.0000  0.0000
 3123OM     OM1 3123   0.642   8.122   9.353  0.0000  0.0000  0.0000
 3124OM     OM1 3124   0.624   8.078   0.009  0.0000  0.0000  0.0000
 3125OM     OM1 3125   0.537   7.890   9.448  0.0000  0.0000  0.0000
 3126OM     OM1 3126   8.769   7.053   0.778  0.0000  0.0000  0.0000
 3127OM     OM1 3127   8.630   6.885   0.940  0.0000  0.0000  0.0000
 3128OM     OM1 3128   8.546   7.129   0.878  0.0000  0.0000  0.0000
 3129OM     OM1 3129   8.554   6.940   0.696  0.0000  0.0000  0.0000
 3130OM     OM1 3130   6.533   8.379   0.427  0.0000  0.0000  0.0000
 3131OM     OM1 3131   6.370   8.242   0.566  0.0000  0.0000  0.0000
 3132OM     OM1 3132   6.416   8.171   0.315  0.0000  0.0000  0.0000
 3133OM     OM1 3133   3.424   0.984   8.422  0.0000  0.0000  0.0000
 3134OM     OM1 3134   3.323   1.019   8.656  0.0000  0.0000  0.0000
 3135OM     OM1 3135   3.513   0.835   8.620  0.0000  0.0000  0.0000
 3136OM     OM1 3136   3.423   1.124   8.869  0.0000  0.0000  0.0000
 3137OM     OM1 3137   2.675   7.804   8.925  0.0000  0.0000  0.0000
 3138OM     OM1 3138   2.532   7.759   9.147  0.0000  0.0000  0.0000
 3139OM     OM1 3139   2.773   7.841   9.165  0.0000  0.0000  0.0000
 3140OM     OM1 3140   9.241   3.072   9.115  0.0000  0.0000  0.0000
 3141OM     OM1 3141   9.344   2.884   9.244  0.0000  0.0000  0.0000
 3142OM     OM1 3142   9.379   3.131   9.332  0.0000  0.0000  0.0000
 3143OM     OM1 3143   9.136   3.012   9.352  0.0000  0.0000  0.0000
 3144OM     OM1 3144   0.500   3.118   9.090  0.0000  0.0000  0.0000
 3145OM     OM1 3145   0.538   2.986   9.315  0.0000  0.0000  0.0000
 3146OM     OM1 3146   0.681   3.203   9.253  0.0000  0.0000  0.0000
 3147OM     OM1 3147   0.062   3.898   8.235  0.0000  0.0000  0.0000
 3148OM     OM1 3148   9.037   5.726   8.397  0.0000  0.0000  0.0000
 3149OM     OM1 3149   9.238   5.591   8.483  0.0000  0.0000  0.0000
 3150OM     OM1 3150   2.030   1.614   0.401  0.0000  0.0000  0.0000
 3151OM     OM1 3151   1.892   1.517   0.593  0.0000  0.0000  0.0000
 3152OM     OM1 3152   1.990   1.757   0.639  0.0000  0.0000  0.0000
 3153OM     OM1 3153   2.147   1.572   0.635  0.0000  0.0000  0.0000
 3154OM     OM1 3154   4.177   5.868   0.411  0.0000  0.0000  0.0000
 3155OM     OM1 3155   4.429   5.958   0.471  0.0000  0.0000  0.0000
 3156OM     OM1 3156   4.329   6.026   0.249  0.0000  0.0000  0.0000
 3157OM     OM1 3157   0.882   1.965   0.047  0.0000  0.0000  0.0000
 3158OM     OM1 3158   0.651   2.081   9.599  0.0000  0.0000  0.0000
 3159OM     OM1 3159   0.758   1.919   9.418  0.0000  0.0000  0.0000
 3160OM     OM1 3160   0.866   2.147   9.469  0.0000  0.0000  0.0000
 3161OM     OM1 3161   4.666   8.096   1.275  0.0000  0.0000  0.0000
 3162OM     OM1 3162   4.041   8.058   0.069  0.0000  0.0000  0.0000
 3163OM     OM1 3163   3.785   8.012   9.601  0.0000  0.0000  0.0000
 3164OM     OM1 3164   3.958   8.133   9.446  0.0000  0.0000  0.0000
 3165OM     OM1 3165   8.347   4.224   9.094  0.0000  0.0000  0.0000
 3166OM     OM1 3166   8.516   4.106   9.252  0.0000  0.0000  0.0000
 3167OM     OM1 3167   8.389   3.975   9.054  0.0000  0.0000  0.0000
 3168OM     OM1 3168   8.577   4.165   9.005  0.0000  0.0000  0.0000
 3169OM     OM1 3169   6.608   8.156   8.885  0.0000  0.0000  0.0000
 3170OM     OM1 3170   6.669   8.354   8.728  0.0000  0.0000  0.0000
 3171OM     OM1 3171   6.579   8.129   8.622  0.0000  0.0000  0.0000
 3172OM     OM1 3172   6.421   8.283   8.757  0.0000  0.0000  0.0000
 3173OM     OM1 3173   9.189   6.629   8.984  0.0000  0.0000  0.0000
 3174OM     OM1 3174   9.192   6.594   9.237  0.0000  0.0000  0.0000
 3175OM     OM1 3175   9.316   6.422   9.091  0.0000  0.0000  0.0000
 3176OM     OM1 3176   9.055   6.427   9.085  0.0000  0.0000  0.0000
 3177OM     OM1 3177   5.716   4.678   9.022  0.0000  0.0000  0.0000
 3178OM     OM1 3178   5.567   4.486   8.920  0.0000  0.0000  0.0000
 3179OM     OM1 3179   5.581   4.728   8.807  0.0000  0.0000  0.0000
 3180OM     OM1 3180   5.780   4.574   8.796  0.0000  0.0000  0.0000
 3181OM     OM1 3181   1.751   8.293   9.184  0.0000  0.0000  0.0000
 3182OM     OM1 3182   1.608   8.499   9.121  0.0000  0.0000  0.0000
 3183OM     OM1 3183   1.732   8.367   8.936  0.0000  0.0000  0.0000
 3184OM     OM1 3184   3.785   6.674   1.293  0.0000  0.0000  0.0000
 3185OM     OM1 3185   2.111   5.498   9.005  0.0000  0.0000  0.0000
 3186OM     OM1 3186   2.366   5.436   9.000  0.0000  0.0000  0.0000
 3187OM     OM1 3187   2.212   5.365   9.210  0.0000  0.0000  0.0000
 3188OM     OM1 3188   6.132   8.849   8.377  0.0000  0.0000  0.0000
 3189OM     OM1 3189   6.302   8.670   8.301  0.0000  0.0000  0.0000
 3190OM     OM1 3190   0.775   8.978   0.863  0.0000  0.0000  0.0000
 3191OM     OM1 3191   0.658   9.140   1.024  0.0000  0.0000  0.0000
 3192OM     OM1 3192   0.740   8.892   1.097  0.0000  0.0000  0.0000
 3193OM     OM1 3193   0.908   9.094   1.060  0.0000  0.0000  0.0000
 3194OM     OM1 3194   6.640   6.907   0.911  0.0000  0.0000  0.0000
 3195OM     OM1 3195   6.774   6.990   1.114  0.0000  0.0000  0.0000
 3196OM     OM1 3196   6.593   7.088   0.724  0.0000  0.0000  0.0000
 3197OM     OM1 3197   6.893   6.827   0.970  0.0000  0.0000  0.0000
 3198OM     OM1 3198   3.208   2.032   9.415  0.0000  0.0000  0.0000
 3199OM     OM1 3199   3.404   1.946   9.268  0.0000  0.0000  0.0000
 3200OM     OM1 3200   3.232   2.111   9.162  0.0000  0.0000  0.0000
 3201OM     OM1 3201   3.402   2.193   9.339  0.0000  0.0000  0.0000
 3202OM     OM1 3202   3.043   7.484   9.324  0.0000  0.0000  0.0000
 3203OM     OM1 3203   2.898   7.697   9.346  0.0000  0.0000  0.0000
 3204OM     OM1 3204   2.848   7.501   9.512  0.0000  0.0000  0.0000
 3205OM     OM1 3205   3.063   7.641   9.536  0.0000  0.0000  0.0000
 3206OM     OM1 3206   8.395   7.363   8.442  0.0000  0.0000  0.0000
 3207OM     OM1 3207   8.248   7.172   8.324  0.0000  0.0000  0.0000
 3208OM     OM1 3208   8.198   7.243   8.564  0.0000  0.0000  0.0000
 3209OM     OM1 3209   5.591   2.792   9.045  0.0000  0.0000  0.0000
 3210OM     OM1 3210   5.480   3.029   9.063  0.0000  0.0000  0.0000
 3211OM     OM1 3211   5.500   2.895   9.273  0.0000  0.0000  0.0000
 3212OM     OM1 3212   5.323   2.819   9.101  0.0000  0.0000  0.0000
 3213OM     OM1 3213   1.654   0.411   0.855  0.0000  0.0000  0.0000
 3214OM     OM1 3214   1.509   0.319   0.442  0.0000  0.0000  0.0000
 3215OM     OM1 3215   1.567   0.228   0.693  0.0000  0.0000  0.0000
 3216OM     OM1 3216   0.221   0.178   8.871  0.0000  0.0000  0.0000
 3217OM     OM1 3217   0.225   0.426   8.792  0.0000  0.0000  0.0000
 3218OM     OM1 3218   0.346   0.356   9.011  0.0000  0.0000  0.0000
 3219OM     OM1 3219   0.282   0.315   8.284  0.0000  0.0000  0.0000
 3220OM     OM1 3220   0.101   0.193   8.434  0.0000  0.0000  0.0000
 3221OM     OM1 3221   0.073   0.443   8.357  0.0000  0.0000  0.0000
 3222OM     OM1 3222   0.252   0.389   8.533  0.0000  0.0000  0.0000
 3223OM     OM1 3223   4.275   0.789   8.185  0.0000  0.0000  0.0000
 3224OM     OM1 3224   4.488   0.708   8.315  0.0000  0.0000  0.0000
 3225OM     OM1 3225   1.122   3.606   9.044  0.0000  0.0000  0.0000
 3226OM     OM1 3226   1.143   3.359   9.130  0.0000  0.0000  0.0000
 3227OM     OM1 3227   1.112   3.548   9.294  0.0000  0.0000  0.0000
 3228OM     OM1 3228   1.343   3.521   9.182  0.0000  0.0000  0.0000
 3229OM     OM1 3229   8.447   3.302   0.998  0.0000  0.0000  0.0000
 3230OM     OM1 3230   8.378   3.289   0.744  0.0000  0.0000  0.0000
 3231OM     OM1 3231   8.623   3.315   0.814  0.0000  0.0000  0.0000
 3232OM     OM1 3232   8.463   3.518   0.838  0.0000  0.0000  0.0000
 3233OM     OM1 3233   2.180   5.020   9.095  0.0000  0.0000  0.0000
 3234OM     OM1 3234   2.085   4.761   8.762  0.0000  0.0000  0.0000
 3235OM     OM1 3235   1.920   4.707   8.940  0.0000  0.0000  0.0000
 3236OM     OM1 3236   3.551   8.909   9.472  0.0000  0.0000  0.0000
 3237OM     OM1 3237   3.550   9.114   9.310  0.0000  0.0000  0.0000
 3238OM     OM1 3238   3.325   8.987   9.348  0.0000  0.0000  0.0000
 3239OM     OM1 3239   3.420   9.123   9.543  0.0000  0.0000  0.0000
 3240OM     OM1 3240   9.015   5.066   0.648  0.0000  0.0000  0.0000
 3241OM     OM1 3241   8.829   4.950   0.510  0.0000  0.0000  0.0000
 3242OM     OM1 3242   8.751   5.109   0.704  0.0000  0.0000  0.0000
 3243OM     OM1 3243   1.917   8.303   0.191  0.0000  0.0000  0.0000
 3244OM     OM1 3244   1.698   8.173   0.166  0.0000  0.0000  0.0000
 3245OM     OM1 3245   1.887   8.110   0.013  0.0000  0.0000  0.0000
 3246OM     OM1 3246   6.230   8.392   8.610  0.0000  0.0000  0.0000
 3247OM     OM1 3247   6.219   8.594   8.764  0.0000  0.0000  0.0000
 3248OM     OM1 3248   6.158   8.624   8.507  0.0000  0.0000  0.0000
 3249OM     OM1 3249   5.996   8.503   8.661  0.0000  0.0000  0.0000
 3250OM     OM1 3250   4.978   8.093   0.770  0.0000  0.0000  0.0000
 3251OM     OM1 3251   4.897   8.293   0.630  0.0000  0.0000  0.0000
 3252OM     OM1 3252   4.957   8.073   0.516  0.0000  0.0000  0.0000
 3253OM     OM1 3253   1.570   5.503   1.154  0.0000  0.0000  0.0000
 3254OM     OM1 3254   1.350   5.457   1.002  0.0000  0.0000  0.0000
 3255OM     OM1 3255   1.572   5.346   0.961  0.0000  0.0000  0.0000
 3256OM     OM1 3256   2.343   6.246   9.426  0.0000  0.0000  0.0000
 3257OM     OM1 3257   2.392   6.498   9.374  0.0000  0.0000  0.0000
 3258OM     OM1 3258   2.412   6.310   9.185  0.0000  0.0000  0.0000
 3259OM     OM1 3259   2.585   6.312   9.389  0.0000  0.0000  0.0000
 3260OM     OM1 3260   8.021   2.950   0.625  0.0000  0.0000  0.0000
 3261OM     OM1 3261   8.082   3.080   0.402  0.0000  0.0000  0.0000
 3262OM     OM1 3262   8.249   3.087   0.602  0.0000  0.0000  0.0000
 3263OM     OM1 3263   8.203   2.863   0.470  0.0000  0.0000  0.0000
 3264OM     OM1 3264   0.227   0.631   8.640  0.0000  0.0000  0.0000
 3265OM     OM1 3265   9.507   3.281   9.518  0.0000  0.0000  0.0000
 3266OM     OM1 3266   9.534   3.507   0.058  0.0000  0.0000  0.0000
 3267OM     OM1 3267   9.305   3.426   9.552  0.0000  0.0000  0.0000
 3268OM     OM1 3268   9.406   3.314   0.155  0.0000  0.0000  0.0000
 3269OM     OM1 3269   2.865   8.983   0.151  0.0000  0.0000  0.0000
 3270OM     OM1 3270   3.071   9.148   0.194  0.0000  0.0000  0.0000
 3271OM     OM1 3271   2.828   9.230   0.242  0.0000  0.0000  0.0000
 3272OM     OM1 3272   2.933   9.051   0.390  0.0000  0.0000  0.0000
 3273OM     OM1 3273   3.465   1.814   9.053  0.0000  0.0000  0.0000
 3274OM     OM1 3274   3.357   1.571   9.088  0.0000  0.0000  0.0000
 3275OM     OM1 3275   3.403   1.664   8.849  0.0000  0.0000  0.0000
 3276OM     OM1 3276   3.600   1.596   9.007  0.0000  0.0000  0.0000
 3277OM     OM1 3277   2.396   7.265   0.016  0.0000  0.0000  0.0000
 3278OM     OM1 3278   2.622   7.393   0.030  0.0000  0.0000  0.0000
 3279OM     OM1 3279   1.730   3.272   9.079  0.0000  0.0000  0.0000
 3280OM     OM1 3280   1.619   3.071   9.205  0.0000  0.0000  0.0000
 3281OM     OM1 3281   1.504   3.315   9.192  0.0000  0.0000  0.0000
 3282OM     OM1 3282   6.470   1.947   8.501  0.0000  0.0000  0.0000
 3283OM     OM1 3283   6.237   1.905   8.602  0.0000  0.0000  0.0000
 3284OM     OM1 3284   4.553   4.482   1.131  0.0000  0.0000  0.0000
 3285OM     OM1 3285   4.453   4.674   1.274  0.0000  0.0000  0.0000
 3286OM     OM1 3286   4.829   3.686   0.062  0.0000  0.0000  0.0000
 3287OM     OM1 3287   4.842   3.704   9.405  0.0000  0.0000  0.0000
 3288OM     OM1 3288   3.233   5.921   9.232  0.0000  0.0000  0.0000
 3289OM     OM1 3289   3.414   6.083   9.331  0.0000  0.0000  0.0000
 3290OM     OM1 3290   3.443   5.981   9.084  0.0000  0.0000  0.0000
 3291OM     OM1 3291   3.717   6.771   9.258  0.0000  0.0000  0.0000
 3292OM     OM1 3292   3.758   6.728   8.937  0.0000  0.0000  0.0000
 3293OM     OM1 3293   3.761   6.954   9.086  0.0000  0.0000  0.0000
 3294OM     OM1 3294   3.975   6.833   9.016  0.0000  0.0000  0.0000
 3295OM     OM1 3295   8.224   3.782   8.956  0.0000  0.0000  0.0000
 3296OM     OM1 3296   8.167   4.034   8.929  0.0000  0.0000  0.0000
 3297OM     OM1 3297   8.158   3.929   9.163  0.0000  0.0000  0.0000
 3298OM     OM1 3298   4.946   2.144   0.803  0.0000  0.0000  0.0000
 3299OM     OM1 3299   4.947   1.832   1.111  0.0000  0.0000  0.0000
 3300OM     OM1 3300   4.894   2.091   1.054  0.0000  0.0000  0.0000
 3301OM     OM1 3301   4.722   1.941   1.192  0.0000  0.0000  0.0000
 3302OM     OM1 3302   2.001   5.005   8.320  0.0000  0.0000  0.0000
 3303OM     OM1 3303   1.920   4.764   8.266  0.0000  0.0000  0.0000
 3304OM     OM1 3304   1.814   4.887   8.469  0.0000  0.0000  0.0000
 3305OM     OM1 3305   7.516   3.057   9.162  0.0000  0.0000  0.0000
 3306OM     OM1 3306   7.477   3.290   9.282  0.0000  0.0000  0.0000
 3307OM     OM1 3307   7.531   3.080   9.421  0.0000  0.0000  0.0000
 3308OM     OM1 3308   7.302   3.098   9.309  0.0000  0.0000  0.0000
 3309OM     OM1 3309   8.126   0.826   9.263  0.0000  0.0000  0.0000
 3310OM     OM1 3310   8.224   1.025   9.137  0.0000  0.0000  0.0000
 3311OM     OM1 3311   8.207   0.799   9.010  0.0000  0.0000  0.0000
 3312OM     OM1 3312   8.391   0.829   9.199  0.0000  0.0000  0.0000
 3313OM     OM1 3313   8.536   1.374   0.899  0.0000  0.0000  0.0000
 3314OM     OM1 3314   8.621   1.434   0.658  0.0000  0.0000  0.0000
 3315OM     OM1 3315   8.769   1.503   0.856  0.0000  0.0000  0.0000
 3316OM     OM1 3316   8.531   1.620   0.826  0.0000  0.0000  0.0000
 3317OM     OM1 3317   3.902   8.905   0.462  0.0000  0.0000  0.0000
 3318OM     OM1 3318   4.001   8.659   0.458  0.0000  0.0000  0.0000
 3319OM     OM1 3319   3.842   8.739   0.268  0.0000  0.0000  0.0000
 3320OM     OM1 3320   2.046   1.974   0.758  0.0000  0.0000  0.0000
 3321OM     OM1 3321   1.801   1.870   0.766  0.0000  0.0000  0.0000
 3322OM     OM1 3322   1.978   1.762   0.912  0.0000  0.0000  0.0000
 3323OM     OM1 3323   8.710   7.250   9.112  0.0000  0.0000  0.0000
 3324OM     OM1 3324   8.897   7.362   8.968  0.0000  0.0000  0.0000
 3325OM     OM1 3325   0.740   9.595   9.568  0.0000  0.0000  0.0000
 3326OM     OM1 3326   0.886   0.100   9.368  0.0000  0.0000  0.0000
 3327OM     OM1 3327   0.999   0.021   9.584  0.0000  0.0000  0.0000
 3328OM     OM1 3328   0.971   0.013   9.141  0.0000  0.0000  0.0000
 3329OM     OM1 3329   1.817   4.421   1.093  0.0000  0.0000  0.0000
 3330OM     OM1 3330   2.023   4.497   0.926  0.0000  0.0000  0.0000
 3331OM     OM1 3331   1.874   4.667   1.058  0.0000  0.0000  0.0000
 3332OM     OM1 3332   2.043   4.503   1.184  0.0000  0.0000  0.0000
 3333OM     OM1 3333   4.317   8.380   1.233  0.0000  0.0000  0.0000
 3334OM     OM1 3334   4.071   8.356   1.173  0.0000  0.0000  0.0000
 3335OM     OM1 3335   4.220   8.151   1.133  0.0000  0.0000  0.0000
 3336OM     OM1 3336   9.179   1.915   1.253  0.0000  0.0000  0.0000
 3337OM     OM1 3337   9.042   1.696   1.293  0.0000  0.0000  0.0000
 3338OM     OM1 3338   2.826   5.656   1.421  0.0000  0.0000  0.0000
 3339OM     OM1 3339   2.942   5.502   1.261  0.0000  0.0000  0.0000
 3340OM     OM1 3340   1.935   6.463   8.815  0.0000  0.0000  0.0000
 3341OM     OM1 3341   1.807   6.476   9.046  0.0000  0.0000  0.0000
 3342OM     OM1 3342   1.702   6.586   8.833  0.0000  0.0000  0.0000
 3343OM     OM1 3343   1.711   6.331   8.841  0.0000  0.0000  0.0000
 3344OM     OM1 3344   3.507   2.801   1.148  0.0000  0.0000  0.0000
 3345OM     OM1 3345   3.677   2.605   1.193  0.0000  0.0000  0.0000
 3346OM     OM1 3346   3.478   2.564   1.039  0.0000  0.0000  0.0000
 3347OM     OM1 3347   3.435   2.596   1.291  0.0000  0.0000  0.0000
 3348OM     OM1 3348   6.853   8.240   0.818  0.0000  0.0000  0.0000
 3349OM     OM1 3349   6.703   8.264   0.598  0.0000  0.0000  0.0000
 3350OM     OM1 3350   6.759   8.027   0.726  0.0000  0.0000  0.0000
 3351OM     OM1 3351   4.824   1.085   8.552  0.0000  0.0000  0.0000
 3352OM     OM1 3352   5.013   1.259   8.554  0.0000  0.0000  0.0000
 3353OM     OM1 3353   5.083   1.019   8.475  0.0000  0.0000  0.0000
 3354OM     OM1 3354   4.512   9.330   9.506  0.0000  0.0000  0.0000
 3355OM     OM1 3355   4.266   9.381   9.558  0.0000  0.0000  0.0000
 3356OM     OM1 3356   4.343   9.315   9.306  0.0000  0.0000  0.0000
 3357OM     OM1 3357   5.550   9.505   0.857  0.0000  0.0000  0.0000
 3358OM     OM1 3358   5.590   9.180   1.211  0.0000  0.0000  0.0000
 3359OM     OM1 3359   5.486   9.324   1.026  0.0000  0.0000  0.0000
 3360OM     OM1 3360   5.647   9.122   0.960  0.0000  0.0000  0.0000
 3361OM     OM1 3361   5.361   9.236   8.911  0.0000  0.0000  0.0000
 3362OM     OM1 3362   5.404   9.148   8.667  0.0000  0.0000  0.0000
 3363OM     OM1 3363   5.534   9.045   8.859  0.0000  0.0000  0.0000
 3364OM     OM1 3364   2.190   4.649   8.553  0.0000  0.0000  0.0000
 3365OM     OM1 3365   2.152   4.655   8.286  0.0000  0.0000  0.0000
 3366OM     OM1 3366   2.060   4.337   8.626  0.0000  0.0000  0.0000
 3367OM     OM1 3367   2.158   4.429   8.412  0.0000  0.0000  0.0000
 3368OM     OM1 3368   5.340   1.386   0.926  0.0000  0.0000  0.0000
 3369OM     OM1 3369   5.454   1.481   0.713  0.0000  0.0000  0.0000
 3370OM     OM1 3370   5.255   1.605   0.806  0.0000  0.0000  0.0000
 3371OM     OM1 3371   0.119   6.876   8.269  0.0000  0.0000  0.0000
 3372OM     OM1 3372   9.411   8.892   1.199  0.0000  0.0000  0.0000
 3373OM     OM1 3373   9.409   8.966   0.946  0.0000  0.0000  0.0000
 3374OM     OM1 3374   9.316   8.728   1.025  0.0000  0.0000  0.0000
 3375OM     OM1 3375   9.190   8.952   1.087  0.0000  0.0000  0.0000
 3376OM     OM1 3376   3.965   1.811   1.194  0.0000  0.0000  0.0000
 3377OM     OM1 3377   4.057   1.994   1.014  0.0000  0.0000  0.0000
 3378OM     OM1 3378   4.216   1.876   1.175  0.0000  0.0000  0.0000
 3379OM     OM1 3379   8.676   3.653   1.318  0.0000  0.0000  0.0000
 3380OM     OM1 3380   8.902   3.659   1.426  0.0000  0.0000  0.0000
 3381OM     OM1 3381   3.685   9.303   0.412  0.0000  0.0000  0.0000
 3382OM     OM1 3382   3.676   9.566   0.452  0.0000  0.0000  0.0000
 3383OM     OM1 3383   3.688   9.465   0.205  0.0000  0.0000  0.0000
 3384OM     OM1 3384   3.891   9.482   0.363  0.0000  0.0000  0.0000
 3385OM     OM1 3385   2.155   1.752   8.446  0.0000  0.0000  0.0000
 3386OM     OM1 3386   2.374   1.850   8.543  0.0000  0.0000  0.0000
 3387OM     OM1 3387   2.372   1.611   8.423  0.0000  0.0000  0.0000
 3388OM     OM1 3388   2.507   1.162   9.030  0.0000  0.0000  0.0000
 3389OM     OM1 3389   2.474   1.314   8.821  0.0000  0.0000  0.0000
 3390OM     OM1 3390   2.692   1.170   8.858  0.0000  0.0000  0.0000
 3391OM     OM1 3391   2.633   1.391   9.007  0.0000  0.0000  0.0000
 3392OM     OM1 3392   8.704   5.727   9.596  0.0000  0.0000  0.0000
 3393OM     OM1 3393   8.827   5.689   9.376  0.0000  0.0000  0.0000
 3394OM     OM1 3394   8.940   5.605   9.602  0.0000  0.0000  0.0000
 3395OM     OM1 3395   8.729   5.484   9.499  0.0000  0.0000  0.0000
 3396OM     OM1 3396   0.713   6.622   8.703  0.0000  0.0000  0.0000
 3397OM     OM1 3397   0.924   6.761   8.739  0.0000  0.0000  0.0000
 3398OM     OM1 3398   0.681   6.871   8.768  0.0000  0.0000  0.0000
 3399OM     OM1 3399   8.153   5.571   8.826  0.0000  0.0000  0.0000
 3400OM     OM1 3400   7.906   5.644   8.788  0.0000  0.0000  0.0000
 3401OM     OM1 3401   8.117   5.794   8.701  0.0000  0.0000  0.0000
 3402OM     OM1 3402   2.097   2.312   9.545  0.0000  0.0000  0.0000
 3403OM     OM1 3403   2.262   2.519   9.539  0.0000  0.0000  0.0000
 3404OM     OM1 3404   2.173   2.414   0.163  0.0000  0.0000  0.0000
 3405OM     OM1 3405   2.012   2.548   9.604  0.0000  0.0000  0.0000
 3406OM     OM1 3406   1.794   0.578   1.002  0.0000  0.0000  0.0000
 3407OM     OM1 3407   6.030   7.507   0.894  0.0000  0.0000  0.0000
 3408OM     OM1 3408   6.015   7.731   1.032  0.0000  0.0000  0.0000
 3409OM     OM1 3409   6.095   7.970   1.112  0.0000  0.0000  0.0000
 3410OM     OM1 3410   5.655   5.289   0.503  0.0000  0.0000  0.0000
 3411OM     OM1 3411   5.430   5.298   0.638  0.0000  0.0000  0.0000
 3412OM     OM1 3412   5.658   5.336   0.759  0.0000  0.0000  0.0000
 3413OM     OM1 3413   5.591   5.096   0.672  0.0000  0.0000  0.0000
 3414OM     OM1 3414   1.023   7.434   0.632  0.0000  0.0000  0.0000
 3415OM     OM1 3415   0.777   7.388   0.542  0.0000  0.0000  0.0000
 3416OM     OM1 3416   1.287   7.386   0.612  0.0000  0.0000  0.0000
 3417OM     OM1 3417   0.154   1.491   8.386  0.0000  0.0000  0.0000
 3418OM     OM1 3418   0.364   1.495   8.242  0.0000  0.0000  0.0000
 3419OM     OM1 3419   0.289   1.270   8.351  0.0000  0.0000  0.0000
 3420OM     OM1 3420   7.898   1.904   9.099  0.0000  0.0000  0.0000
 3421OM     OM1 3421   7.798   2.028   8.884  0.0000  0.0000  0.0000
 3422OM     OM1 3422   8.055   1.964   8.900  0.0000  0.0000  0.0000
 3423OM     OM1 3423   7.872   1.780   8.870  0.0000  0.0000  0.0000
 3424OM     OM1 3424   5.323   3.610   1.205  0.0000  0.0000  0.0000
 3425OM     OM1 3425   5.189   3.424   1.333  0.0000  0.0000  0.0000
 3426OM     OM1 3426   7.177   8.702   0.392  0.0000  0.0000  0.0000
 3427OM     OM1 3427   7.215   8.768   0.145  0.0000  0.0000  0.0000
 3428OM     OM1 3428   7.358   8.580   0.250  0.0000  0.0000  0.0000
 3429OM     OM1 3429   7.402   8.832   0.310  0.0000  0.0000  0.0000
 3430OM     OM1 3430   1.048   2.687   8.363  0.0000  0.0000  0.0000
 3431OM     OM1 3431   0.825   2.543   8.375  0.0000  0.0000  0.0000
 3432OM     OM1 3432   6.491   8.255   0.090  0.0000  0.0000  0.0000
 3433OM     OM1 3433   6.428   7.995   0.133  0.0000  0.0000  0.0000
 3434OM     OM1 3434   0.930   5.435   1.192  0.0000  0.0000  0.0000
 3435OM     OM1 3435   7.317   7.753   0.258  0.0000  0.0000  0.0000
 3436OM     OM1 3436   7.195   7.891   0.074  0.0000  0.0000  0.0000
 3437OM     OM1 3437   7.310   7.653   0.022  0.0000  0.0000  0.0000
 3438OM     OM1 3438   7.455   7.866   0.064  0.0000  0.0000  0.0000
 3439OM     OM1 3439   8.694   5.590   9.170  0.0000  0.0000  0.0000
 3440OM     OM1 3440   8.566   5.358   9.132  0.0000  0.0000  0.0000
 3441OM     OM1 3441   8.581   5.524   8.935  0.0000  0.0000  0.0000
 3442OM     OM1 3442   8.432   5.575   9.138  0.0000  0.0000  0.0000
 3443OM     OM1 3443   9.253   8.496   1.136  0.0000  0.0000  0.0000
 3444OM     OM1 3444   7.368   0.285   0.388  0.0000  0.0000  0.0000
 3445OM     OM1 3445   7.334   0.353   0.639  0.0000  0.0000  0.0000
 3446OM     OM1 3446   7.568   0.382   0.534  0.0000  0.0000  0.0000
 3447OM     OM1 3447   7.363   0.536   0.459  0.0000  0.0000  0.0000
 3448OM     OM1 3448   1.688   0.060   1.047  0.0000  0.0000  0.0000
 3449OM     OM1 3449   1.953   0.037   0.991  0.0000  0.0000  0.0000
 3450OM     OM1 3450   1.780   0.182   0.849  0.0000  0.0000  0.0000
 3451OM     OM1 3451   1.775   9.526   0.842  0.0000  0.0000  0.0000
 3452OM     OM1 3452   6.764   6.894   8.794  0.0000  0.0000  0.0000
 3453OM     OM1 3453   6.691   6.736   8.600  0.0000  0.0000  0.0000
 3454OM     OM1 3454   4.742   1.319   0.508  0.0000  0.0000  0.0000
 3455OM     OM1 3455   4.930   1.153   0.412  0.0000  0.0000  0.0000
 3456OM     OM1 3456   4.786   1.099   0.639  0.0000  0.0000  0.0000
 3457OM     OM1 3457   9.175   8.823   0.323  0.0000  0.0000  0.0000
 3458OM     OM1 3458   9.546   8.573   0.158  0.0000  0.0000  0.0000
 3459OM     OM1 3459   9.300   8.734   0.528  0.0000  0.0000  0.0000
 3460OM     OM1 3460   3.045   8.973   8.553  0.0000  0.0000  0.0000
 3461OM     OM1 3461   2.927   9.190   8.568  0.0000  0.0000  0.0000
 3462OM     OM1 3462   3.164   9.183   8.669  0.0000  0.0000  0.0000
 3463OM     OM1 3463   3.155   9.173   8.418  0.0000  0.0000  0.0000
 3464OM     OM1 3464   3.692   0.630   0.828  0.0000  0.0000  0.0000
 3465OM     OM1 3465   3.659   0.427   0.660  0.0000  0.0000  0.0000
 3466OM     OM1 3466   3.853   0.616   0.626  0.0000  0.0000  0.0000
 3467OM     OM1 3467   3.609   0.661   0.574  0.0000  0.0000  0.0000
 3468OM     OM1 3468   4.320   4.451   8.581  0.0000  0.0000  0.0000
 3469OM     OM1 3469   4.483   4.622   8.688  0.0000  0.0000  0.0000
 3470OM     OM1 3470   4.283   4.711   8.549  0.0000  0.0000  0.0000
 3471OM     OM1 3471   5.439   0.647   0.224  0.0000  0.0000  0.0000
 3472OM     OM1 3472   5.487   0.898   0.171  0.0000  0.0000  0.0000
 3473OM     OM1 3473   5.556   0.731   9.605  0.0000  0.0000  0.0000
 3474OM     OM1 3474   5.295   0.759   0.037  0.0000  0.0000  0.0000
 3475OM     OM1 3475   0.992   5.637   1.033  0.0000  0.0000  0.0000
 3476OM     OM1 3476   0.789   5.670   1.189  0.0000  0.0000  0.0000
 3477OM     OM1 3477   4.621   2.904   8.502  0.0000  0.0000  0.0000
 3478OM     OM1 3478   4.824   2.831   8.351  0.0000  0.0000  0.0000
 3479OM     OM1 3479   4.718   3.059   8.307  0.0000  0.0000  0.0000
 3480OM     OM1 3480   4.520   6.988   8.983  0.0000  0.0000  0.0000
 3481OM     OM1 3481   4.426   6.861   9.193  0.0000  0.0000  0.0000
 3482OM     OM1 3482   4.589   7.057   9.224  0.0000  0.0000  0.0000
 3483OM     OM1 3483   4.681   6.832   9.117  0.0000  0.0000  0.0000
 3484OM     OM1 3484   3.507   9.505   8.725  0.0000  0.0000  0.0000
 3485OM     OM1 3485   3.471   0.164   8.684  0.0000  0.0000  0.0000
 3486OM     OM1 3486   2.650   4.884   8.480  0.0000  0.0000  0.0000
 3487OM     OM1 3487   2.449   5.035   8.525  0.0000  0.0000  0.0000
 3488OM     OM1 3488   2.672   5.156   8.475  0.0000  0.0000  0.0000
 3489OM     OM1 3489   2.782   3.833   8.552  0.0000  0.0000  0.0000
 3490OM     OM1 3490   2.689   3.655   8.378  0.0000  0.0000  0.0000
 3491OM     OM1 3491   2.531   3.799   8.514  0.0000  0.0000  0.0000
 3492OM     OM1 3492   0.433   3.240   1.361  0.0000  0.0000  0.0000
 3493OM     OM1 3493   0.535   3.479   1.280  0.0000  0.0000  0.0000
 3494OM     OM1 3494   2.929   4.274   1.205  0.0000  0.0000  0.0000
 3495OM     OM1 3495   3.672   6.381   0.660  0.0000  0.0000  0.0000
 3496OM     OM1 3496   3.663   6.132   0.670  0.0000  0.0000  0.0000
 3497OM     OM1 3497   3.493   6.258   0.823  0.0000  0.0000  0.0000
 3498OM     OM1 3498   3.466   6.255   0.561  0.0000  0.0000  0.0000
 3499OM     OM1 3499   7.591   1.873   1.079  0.0000  0.0000  0.0000
 3500OM     OM1 3500   7.578   1.620   1.158  0.0000  0.0000  0.0000
 3501OM     OM1 3501   7.506   1.677   0.927  0.0000  0.0000  0.0000
 3502OM     OM1 3502   7.767   1.708   0.998  0.0000  0.0000  0.0000
 3503OM     OM1 3503   8.274   7.996   1.028  0.0000  0.0000  0.0000
 3504OM     OM1 3504   8.155   7.789   1.145  0.0000  0.0000  0.0000
 3505OM     OM1 3505   8.257   7.773   0.906  0.0000  0.0000  0.0000
 3506OM     OM1 3506   5.438   2.234   9.591  0.0000  0.0000  0.0000
 3507OM     OM1 3507   5.263   2.052   0.044  0.0000  0.0000  0.0000
 3508OM     OM1 3508   5.196   2.277   9.525  0.0000  0.0000  0.0000
 3509OM     OM1 3509   5.262   2.261   0.186  0.0000  0.0000  0.0000
 3510OM     OM1 3510   7.796   2.884   0.508  0.0000  0.0000  0.0000
 3511OM     OM1 3511   7.568   2.768   0.551  0.0000  0.0000  0.0000
 3512OM     OM1 3512   7.623   2.851   0.305  0.0000  0.0000  0.0000
 3513OM     OM1 3513   7.574   3.021   0.490  0.0000  0.0000  0.0000
 3514OM     OM1 3514   1.372   0.391   0.646  0.0000  0.0000  0.0000
 3515OM     OM1 3515   1.365   0.142   0.555  0.0000  0.0000  0.0000
 3516OM     OM1 3516   7.641   2.825   9.169  0.0000  0.0000  0.0000
 3517OM     OM1 3517   7.744   2.855   9.412  0.0000  0.0000  0.0000
 3518OM     OM1 3518   0.182   8.615   8.400  0.0000  0.0000  0.0000
 3519OM     OM1 3519   0.108   8.864   8.382  0.0000  0.0000  0.0000
 3520OM     OM1 3520   9.553   8.692   8.495  0.0000  0.0000  0.0000
 3521OM     OM1 3521   2.453   7.978   8.552  0.0000  0.0000  0.0000
 3522OM     OM1 3522   2.303   7.782   8.616  0.0000  0.0000  0.0000
 3523OM     OM1 3523   2.558   7.781   8.692  0.0000  0.0000  0.0000
 3524OM     OM1 3524   2.499   7.737   8.446  0.0000  0.0000  0.0000
 3525OM     OM1 3525   4.580   2.679   1.244  0.0000  0.0000  0.0000
 3526OM     OM1 3526   4.741   2.522   1.104  0.0000  0.0000  0.0000
 3527OM     OM1 3527   4.565   2.420   1.260  0.0000  0.0000  0.0000
 3528OM     OM1 3528   8.112   1.336   8.957  0.0000  0.0000  0.0000
 3529OM     OM1 3529   8.344   1.290   8.872  0.0000  0.0000  0.0000
 3530OM     OM1 3530   8.141   1.141   8.784  0.0000  0.0000  0.0000
 3531OM     OM1 3531   7.891   0.536   8.704  0.0000  0.0000  0.0000
 3532OM     OM1 3532   8.076   0.406   8.819  0.0000  0.0000  0.0000
 3533OM     OM1 3533   8.114   0.655   8.804  0.0000  0.0000  0.0000
 3534OM     OM1 3534   7.927   0.591   8.957  0.0000  0.0000  0.0000
 3535OM     OM1 3535   3.237   0.546   8.507  0.0000  0.0000  0.0000
 3536OM     OM1 3536   3.419   0.352   8.519  0.0000  0.0000  0.0000
 3537OM     OM1 3537   3.262   0.378   8.309  0.0000  0.0000  0.0000
 3538OM     OM1 3538   2.252   0.993   0.905  0.0000  0.0000  0.0000
 3539OM     OM1 3539   2.355   0.824   1.082  0.0000  0.0000  0.0000
 3540OM     OM1 3540   2.195   1.016   1.162  0.0000  0.0000  0.0000
 3541OM     OM1 3541   2.426   1.081   1.078  0.0000  0.0000  0.0000
 3542OM     OM1 3542   7.970   0.131   1.115  0.0000  0.0000  0.0000
 3543OM     OM1 3543   7.719   0.113   1.173  0.0000  0.0000  0.0000
 3544OM     OM1 3544   7.814   0.335   1.058  0.0000  0.0000  0.0000
 3545OM     OM1 3545   7.774   0.118   0.925  0.0000  0.0000  0.0000
 3546OM     OM1 3546   6.874   3.780   9.535  0.0000  0.0000  0.0000
 3547OM     OM1 3547   6.692   3.967   9.555  0.0000  0.0000  0.0000
 3548OM     OM1 3548   6.925   3.995   0.079  0.0000  0.0000  0.0000
 3549OM     OM1 3549   8.583   9.127   1.267  0.0000  0.0000  0.0000
 3550OM     OM1 3550   8.475   9.154   1.048  0.0000  0.0000  0.0000
 3551OM     OM1 3551   8.615   9.350   1.112  0.0000  0.0000  0.0000
 3552OM     OM1 3552   8.755   9.150   1.058  0.0000  0.0000  0.0000
 3553OM     OM1 3553   2.010   4.147   9.596  0.0000  0.0000  0.0000
 3554OM     OM1 3554   1.998   4.016   9.376  0.0000  0.0000  0.0000
 3555OM     OM1 3555   0.770   5.998   0.284  0.0000  0.0000  0.0000
 3556OM     OM1 3556   0.961   5.807   0.308  0.0000  0.0000  0.0000
 3557OM     OM1 3557   0.964   5.988   0.117  0.0000  0.0000  0.0000
 3558OM     OM1 3558   0.787   5.795   0.121  0.0000  0.0000  0.0000
 3559OM     OM1 3559   3.914   2.765   1.333  0.0000  0.0000  0.0000
 3560OM     OM1 3560   3.929   3.021   1.318  0.0000  0.0000  0.0000
 3561OM     OM1 3561   3.697   2.917   1.282  0.0000  0.0000  0.0000
 3562OM     OM1 3562   4.230   4.324   9.506  0.0000  0.0000  0.0000
 3563OM     OM1 3563   4.184   3.976   0.014  0.0000  0.0000  0.0000
 3564OM     OM1 3564   4.207   4.196   0.130  0.0000  0.0000  0.0000
 3565OM     OM1 3565   4.440   4.303   0.068  0.0000  0.0000  0.0000
 3566OM     OM1 3566   6.175   7.541   8.459  0.0000  0.0000  0.0000
 3567OM     OM1 3567   6.042   7.743   8.352  0.0000  0.0000  0.0000
 3568OM     OM1 3568   6.048   7.507   8.237  0.0000  0.0000  0.0000
 3569OM     OM1 3569   7.528   6.498   8.259  0.0000  0.0000  0.0000
 3570OM     OM1 3570   7.634   6.747   8.258  0.0000  0.0000  0.0000
 3571OM     OM1 3571   6.176   9.498   8.781  0.0000  0.0000  0.0000
 3572OM     OM1 3572   5.951   9.413   8.659  0.0000  0.0000  0.0000
 3573OM     OM1 3573   5.950   9.524   8.901  0.0000  0.0000  0.0000
 3574OM     OM1 3574   6.041   9.293   8.873  0.0000  0.0000  0.0000
 3575OM     OM1 3575   4.983   0.938   0.290  0.0000  0.0000  0.0000
 3576OM     OM1 3576   5.127   1.145   0.231  0.0000  0.0000  0.0000
 3577OM     OM1 3577   4.434   7.156   8.796  0.0000  0.0000  0.0000
 3578OM     OM1 3578   4.771   7.403   9.003  0.0000  0.0000  0.0000
 3579OM     OM1 3579   4.563   7.289   9.120  0.0000  0.0000  0.0000
 3580OM     OM1 3580   9.191   8.805   9.007  0.0000  0.0000  0.0000
 3581OM     OM1 3581   9.222   8.587   8.866  0.0000  0.0000  0.0000
 3582OM     OM1 3582   9.309   8.583   9.109  0.0000  0.0000  0.0000
 3583OM     OM1 3583   7.144   8.099   0.228  0.0000  0.0000  0.0000
 3584OM     OM1 3584   6.710   5.769   0.412  0.0000  0.0000  0.0000
 3585OM     OM1 3585   6.786   5.753   0.659  0.0000  0.0000  0.0000
 3586OM     OM1 3586   6.961   5.745   0.464  0.0000  0.0000  0.0000
 3587OM     OM1 3587   5.683   1.072   1.029  0.0000  0.0000  0.0000
 3588OM     OM1 3588   5.920   1.063   1.111  0.0000  0.0000  0.0000
 3589OM     OM1 3589   5.946   0.821   1.001  0.0000  0.0000  0.0000
 3590OM     OM1 3590   6.096   1.011   0.913  0.0000  0.0000  0.0000
 3591OM     OM1 3591   4.277   4.356   0.746  0.0000  0.0000  0.0000
 3592OM     OM1 3592   4.091   4.518   0.815  0.0000  0.0000  0.0000
 3593OM     OM1 3593   4.024   4.299   0.690  0.0000  0.0000  0.0000
 3594OM     OM1 3594   4.140   4.496   0.560  0.0000  0.0000  0.0000
 3595OM     OM1 3595   2.484   5.449   1.124  0.0000  0.0000  0.0000
 3596OM     OM1 3596   2.742   5.424   1.093  0.0000  0.0000  0.0000
 3597OM     OM1 3597   2.577   5.227   1.028  0.0000  0.0000  0.0000
 3598OM     OM1 3598   8.707   2.280   9.419  0.0000  0.0000  0.0000
 3599OM     OM1 3599   8.952   2.282   9.550  0.0000  0.0000  0.0000
 3600OM     OM1 3600   8.743   2.163   0.042  0.0000  0.0000  0.0000
 3601OM     OM1 3601   8.743   9.577   8.277  0.0000  0.0000  0.0000
 3602OM     OM1 3602   6.061   3.420   1.207  0.0000  0.0000  0.0000
 3603OM     OM1 3603   5.935   3.186   1.253  0.0000  0.0000  0.0000
 3604OM     OM1 3604   6.182   3.197   1.235  0.0000  0.0000  0.0000
 3605OM     OM1 3605   8.800   8.594   0.088  0.0000  0.0000  0.0000
 3606OM     OM1 3606   8.562   8.556   0.197  0.0000  0.0000  0.0000
 3607OM     OM1 3607   8.659   8.362   0.067  0.0000  0.0000  0.0000
 3608OM     OM1 3608   8.596   8.571   9.544  0.0000  0.0000  0.0000
 3609OM     OM1 3609   7.204   6.775   9.244  0.0000  0.0000  0.0000
 3610OM     OM1 3610   7.034   6.684   9.421  0.0000  0.0000  0.0000
 3611OM     OM1 3611   7.155   6.922   9.454  0.0000  0.0000  0.0000
 3612OM     OM1 3612   7.289   6.701   9.479  0.0000  0.0000  0.0000
 3613OM     OM1 3613   3.795   7.345   0.056  0.0000  0.0000  0.0000
 3614OM     OM1 3614   3.649   7.545   9.592  0.0000  0.0000  0.0000
 3615OM     OM1 3615   3.633   7.448   0.234  0.0000  0.0000  0.0000
 3616OM     OM1 3616   3.538   7.317   0.030  0.0000  0.0000  0.0000
 3617OM     OM1 3617   8.641   3.241   0.316  0.0000  0.0000  0.0000
 3618OM     OM1 3618   8.164   3.225   0.198  0.0000  0.0000  0.0000
 3619OM     OM1 3619   8.373   3.237   0.023  0.0000  0.0000  0.0000
 3620OM     OM1 3620   7.672   4.451   8.657  0.0000  0.0000  0.0000
 3621OM     OM1 3621   7.546   4.525   8.884  0.0000  0.0000  0.0000
 3622OM     OM1 3622   7.576   4.277   8.818  0.0000  0.0000  0.0000
 3623OM     OM1 3623   3.726   4.475   1.076  0.0000  0.0000  0.0000
 3624OM     OM1 3624   3.468   4.525   1.030  0.0000  0.0000  0.0000
 3625OM     OM1 3625   3.228   4.492   1.135  0.0000  0.0000  0.0000
 3626OM     OM1 3626   3.654   4.714   1.045  0.0000  0.0000  0.0000
 3627OM     OM1 3627   2.893   8.233   8.319  0.0000  0.0000  0.0000
 3628OM     OM1 3628   2.690   8.597   8.411  0.0000  0.0000  0.0000
 3629OM     OM1 3629   5.328   3.403   0.077  0.0000  0.0000  0.0000
 3630OM     OM1 3630   5.337   3.150   0.107  0.0000  0.0000  0.0000
 3631OM     OM1 3631   5.463   3.597   9.583  0.0000  0.0000  0.0000
 3632OM     OM1 3632   0.230   5.480   8.525  0.0000  0.0000  0.0000
 3633OM     OM1 3633   0.189   5.259   8.412  0.0000  0.0000  0.0000
 3634OM     OM1 3634   0.249   5.260   8.676  0.0000  0.0000  0.0000
 3635OM     OM1 3635   0.024   5.398   8.276  0.0000  0.0000  0.0000
 3636OM     OM1 3636   0.315   0.356   0.301  0.0000  0.0000  0.0000
 3637OM     OM1 3637   0.461   0.534   0.432  0.0000  0.0000  0.0000
 3638OM     OM1 3638   9.325   4.412   0.741  0.0000  0.0000  0.0000
 3639OM     OM1 3639   9.580   4.408   0.796  0.0000  0.0000  0.0000
 3640OM     OM1 3640   9.437   4.206   0.856  0.0000  0.0000  0.0000
 3641OM     OM1 3641   9.481   4.251   0.604  0.0000  0.0000  0.0000
 3642OM     OM1 3642   0.367   1.396   1.195  0.0000  0.0000  0.0000
 3643OM     OM1 3643   0.576   1.232   1.191  0.0000  0.0000  0.0000
 3644OM     OM1 3644   7.654   3.360   1.305  0.0000  0.0000  0.0000
 3645OM     OM1 3645   7.636   3.604   1.422  0.0000  0.0000  0.0000
 3646OM     OM1 3646   4.928   4.236   0.012  0.0000  0.0000  0.0000
 3647OM     OM1 3647   4.842   4.158   0.240  0.0000  0.0000  0.0000
 3648OM     OM1 3648   4.703   4.339   0.103  0.0000  0.0000  0.0000
 3649OM     OM1 3649   2.746   6.360   9.582  0.0000  0.0000  0.0000
 3650OM     OM1 3650   2.794   6.148   9.421  0.0000  0.0000  0.0000
 3651OM     OM1 3651   4.651   7.011   0.222  0.0000  0.0000  0.0000
 3652OM     OM1 3652   4.607   7.007   0.475  0.0000  0.0000  0.0000
 3653OM     OM1 3653   4.415   6.933   0.322  0.0000  0.0000  0.0000
 3654OM     OM1 3654   6.001   7.365   9.108  0.0000  0.0000  0.0000
 3655OM     OM1 3655   5.828   7.693   9.453  0.0000  0.0000  0.0000
 3656OM     OM1 3656   5.935   7.592   9.004  0.0000  0.0000  0.0000
 3657OM     OM1 3657   5.869   7.538   9.244  0.0000  0.0000  0.0000
 3658OM     OM1 3658   7.127   4.451   9.420  0.0000  0.0000  0.0000
 3659OM     OM1 3659   7.165   4.373   9.172  0.0000  0.0000  0.0000
 3660OM     OM1 3660   7.309   4.273   9.352  0.0000  0.0000  0.0000
 3661OM     OM1 3661   7.324   3.971   9.058  0.0000  0.0000  0.0000
 3662OM     OM1 3662   7.426   4.071   8.835  0.0000  0.0000  0.0000
 3663OM     OM1 3663   7.286   4.223   8.996  0.0000  0.0000  0.0000
 3664OM     OM1 3664   3.515   7.306   9.220  0.0000  0.0000  0.0000
 3665OM     OM1 3665   3.376   7.267   9.434  0.0000  0.0000  0.0000
 3666OM     OM1 3666   3.253   7.358   9.222  0.0000  0.0000  0.0000
 3667OM     OM1 3667   3.350   7.106   9.231  0.0000  0.0000  0.0000
 3668OM     OM1 3668   9.306   1.015   1.020  0.0000  0.0000  0.0000
 3669OM     OM1 3669   9.346   1.235   0.896  0.0000  0.0000  0.0000
 3670OM     OM1 3670   9.132   1.107   0.838  0.0000  0.0000  0.0000
 3671OM     OM1 3671   9.152   1.233   1.063  0.0000  0.0000  0.0000
 3672OM     OM1 3672   2.693   4.324   0.482  0.0000  0.0000  0.0000
 3673OM     OM1 3673   2.596   4.128   0.337  0.0000  0.0000  0.0000
 3674OM     OM1 3674   2.694   4.078   0.575  0.0000  0.0000  0.0000
 3675OM     OM1 3675   2.845   4.155   0.363  0.0000  0.0000  0.0000
 3676OM     OM1 3676   7.559   9.266   1.342  0.0000  0.0000  0.0000
 3677OM     OM1 3677   7.583   9.003   1.304  0.0000  0.0000  0.0000
 3678OM     OM1 3678   8.179   1.808   8.569  0.0000  0.0000  0.0000
 3679OM     OM1 3679   8.347   1.983   8.493  0.0000  0.0000  0.0000
 3680OM     OM1 3680   8.171   2.044   8.678  0.0000  0.0000  0.0000
 3681OM     OM1 3681   3.411   1.369   8.940  0.0000  0.0000  0.0000
 3682OM     OM1 3682   3.368   1.325   9.194  0.0000  0.0000  0.0000
 3683OM     OM1 3683   8.911   0.934   9.127  0.0000  0.0000  0.0000
 3684OM     OM1 3684   8.666   0.864   9.236  0.0000  0.0000  0.0000
 3685OM     OM1 3685   8.720   1.101   9.156  0.0000  0.0000  0.0000
 3686OM     OM1 3686   8.434   2.318   1.159  0.0000  0.0000  0.0000
 3687OM     OM1 3687   8.417   2.285   0.896  0.0000  0.0000  0.0000
 3688OM     OM1 3688   2.577   1.909   8.687  0.0000  0.0000  0.0000
 3689OM     OM1 3689   2.728   1.803   8.870  0.0000  0.0000  0.0000
 3690OM     OM1 3690   2.744   1.706   8.630  0.0000  0.0000  0.0000
 3691OM     OM1 3691   6.406   4.490   0.347  0.0000  0.0000  0.0000
 3692OM     OM1 3692   6.625   4.633   0.389  0.0000  0.0000  0.0000
 3693OM     OM1 3693   6.635   4.419   0.236  0.0000  0.0000  0.0000
 3694OM     OM1 3694   9.546   1.582   0.006  0.0000  0.0000  0.0000
 3695OM     OM1 3695   0.003   1.492   0.248  0.0000  0.0000  0.0000
 3696OM     OM1 3696   0.070   1.728   0.164  0.0000  0.0000  0.0000
 3697OM     OM1 3697   9.423   1.687   0.216  0.0000  0.0000  0.0000
 3698OM     OM1 3698   9.386   5.642   0.686  0.0000  0.0000  0.0000
 3699OM     OM1 3699   9.451   5.543   0.449  0.0000  0.0000  0.0000
 3700OM     OM1 3700   9.582   5.743   0.538  0.0000  0.0000  0.0000
 3701OM     OM1 3701   9.321   5.766   0.479  0.0000  0.0000  0.0000
 3702OM     OM1 3702   4.958   6.414   8.971  0.0000  0.0000  0.0000
 3703OM     OM1 3703   4.843   6.620   9.116  0.0000  0.0000  0.0000
 3704OM     OM1 3704   0.242   4.217   9.370  0.0000  0.0000  0.0000
 3705OM     OM1 3705   0.480   4.102   9.310  0.0000  0.0000  0.0000
 3706OM     OM1 3706   0.275   3.955   9.386  0.0000  0.0000  0.0000
 3707OM     OM1 3707   0.405   4.122   9.548  0.0000  0.0000  0.0000
 3708OM     OM1 3708   8.748   5.770   0.711  0.0000  0.0000  0.0000
 3709OM     OM1 3709   8.671   5.551   0.804  0.0000  0.0000  0.0000
 3710OM     OM1 3710   8.642   5.626   1.049  0.0000  0.0000  0.0000
 3711OM     OM1 3711   8.482   5.434   0.929  0.0000  0.0000  0.0000
 3712OM     OM1 3712   2.482   0.247   0.768  0.0000  0.0000  0.0000
 3713OM     OM1 3713   2.248   0.298   0.674  0.0000  0.0000  0.0000
 3714OM     OM1 3714   2.553   0.105   0.975  0.0000  0.0000  0.0000
 3715OM     OM1 3715   2.405   0.163   0.526  0.0000  0.0000  0.0000
 3716OM     OM1 3716   1.717   2.208   0.810  0.0000  0.0000  0.0000
 3717OM     OM1 3717   1.616   1.997   0.933  0.0000  0.0000  0.0000
 3718OM     OM1 3718   1.612   2.007   0.680  0.0000  0.0000  0.0000
 3719OM     OM1 3719   1.459   2.176   0.824  0.0000  0.0000  0.0000
 3720OM     OM1 3720   5.381   8.268   9.602  0.0000  0.0000  0.0000
 3721OM     OM1 3721   5.596   8.380   0.092  0.0000  0.0000  0.0000
 3722OM     OM1 3722   5.497   8.185   0.226  0.0000  0.0000  0.0000
 3723OM     OM1 3723   5.850   4.032   9.488  0.0000  0.0000  0.0000
 3724OM     OM1 3724   5.712   4.256   9.544  0.0000  0.0000  0.0000
 3725OM     OM1 3725   5.971   4.241   9.560  0.0000  0.0000  0.0000
 3726OM     OM1 3726   0.403   2.787   0.951  0.0000  0.0000  0.0000
 3727OM     OM1 3727   0.312   2.699   1.174  0.0000  0.0000  0.0000
 3728OM     OM1 3728   6.478   6.311   9.586  0.0000  0.0000  0.0000
 3729OM     OM1 3729   6.544   6.566   9.519  0.0000  0.0000  0.0000
 3730OM     OM1 3730   6.497   6.125   0.158  0.0000  0.0000  0.0000
 3731OM     OM1 3731   6.561   6.080   9.519  0.0000  0.0000  0.0000
 3732OM     OM1 3732   6.484   1.483   0.948  0.0000  0.0000  0.0000
 3733OM     OM1 3733   6.547   1.737   0.984  0.0000  0.0000  0.0000
 3734OM     OM1 3734   6.323   1.669   0.875  0.0000  0.0000  0.0000
 3735OM     OM1 3735   6.371   1.639   1.138  0.0000  0.0000  0.0000
 3736OM     OM1 3736   3.186   6.964   8.255  0.0000  0.0000  0.0000
 3737OM     OM1 3737   3.280   6.827   8.442  0.0000  0.0000  0.0000
 3738OM     OM1 3738   5.378   8.966   1.274  0.0000  0.0000  0.0000
 3739OM     OM1 3739   5.403   9.078   1.055  0.0000  0.0000  0.0000
 3740OM     OM1 3740   5.146   8.966   1.170  0.0000  0.0000  0.0000
 3741OM     OM1 3741   8.070   4.402   0.622  0.0000  0.0000  0.0000
 3742OM     OM1 3742   8.218   4.213   0.524  0.0000  0.0000  0.0000
 3743OM     OM1 3743   8.228   4.453   0.427  0.0000  0.0000  0.0000
 3744OM     OM1 3744   8.020   4.306   0.380  0.0000  0.0000  0.0000
 3745OM     OM1 3745   6.441   4.054   8.954  0.0000  0.0000  0.0000
 3746OM     OM1 3746   6.505   4.032   8.702  0.0000  0.0000  0.0000
 3747OM     OM1 3747   6.562   3.846   8.882  0.0000  0.0000  0.0000
 3748OM     OM1 3748   6.315   3.875   8.807  0.0000  0.0000  0.0000
 3749OM     OM1 3749   4.666   2.688   8.625  0.0000  0.0000  0.0000
 3750OM     OM1 3750   4.520   2.888   8.753  0.0000  0.0000  0.0000
 3751OM     OM1 3751   5.180   4.093   8.457  0.0000  0.0000  0.0000
 3752OM     OM1 3752   4.923   4.126   8.451  0.0000  0.0000  0.0000
 3753OM     OM1 3753   5.042   4.124   8.677  0.0000  0.0000  0.0000
 3754OM     OM1 3754   5.085   4.330   8.516  0.0000  0.0000  0.0000
 3755OM     OM1 3755   9.381   2.641   0.435  0.0000  0.0000  0.0000
 3756OM     OM1 3756   9.247   2.418   0.363  0.0000  0.0000  0.0000
 3757OM     OM1 3757   9.211   2.521   0.599  0.0000  0.0000  0.0000
 3758OM     OM1 3758   9.438   2.419   0.551  0.0000  0.0000  0.0000
 3759OM     OM1 3759   1.359   9.198   0.372  0.0000  0.0000  0.0000
 3760OM     OM1 3760   1.350   8.864   0.211  0.0000  0.0000  0.0000
 3761OM     OM1 3761   1.403   8.996   9.604  0.0000  0.0000  0.0000
 3762OM     OM1 3762   8.998   1.642   0.831  0.0000  0.0000  0.0000
 3763OM     OM1 3763   8.998   1.401   0.932  0.0000  0.0000  0.0000
 3764OM     OM1 3764   2.654   3.690   9.547  0.0000  0.0000  0.0000
 3765OM     OM1 3765   2.732   3.617   0.180  0.0000  0.0000  0.0000
 3766OM     OM1 3766   4.017   3.842   8.806  0.0000  0.0000  0.0000
 3767OM     OM1 3767   4.203   4.017   8.876  0.0000  0.0000  0.0000
 3768OM     OM1 3768   4.263   3.764   8.813  0.0000  0.0000  0.0000
 3769OM     OM1 3769   4.184   3.942   8.634  0.0000  0.0000  0.0000
 3770OM     OM1 3770   7.345   5.705   9.154  0.0000  0.0000  0.0000
 3771OM     OM1 3771   2.109   8.040   1.297  0.0000  0.0000  0.0000
 3772OM     OM1 3772   1.865   8.104   1.232  0.0000  0.0000  0.0000
 3773OM     OM1 3773   9.175   6.865   1.186  0.0000  0.0000  0.0000
 3774OM     OM1 3774   9.347   6.878   0.996  0.0000  0.0000  0.0000
 3775OM     OM1 3775   9.339   6.659   1.140  0.0000  0.0000  0.0000
 3776OM     OM1 3776   7.322   5.789   8.358  0.0000  0.0000  0.0000
 3777OM     OM1 3777   7.447   5.692   8.567  0.0000  0.0000  0.0000
 3778OM     OM1 3778   7.463   5.947   8.531  0.0000  0.0000  0.0000
 3779OM     OM1 3779   7.590   5.786   8.379  0.0000  0.0000  0.0000
 3780OM     OM1 3780   8.554   5.989   0.395  0.0000  0.0000  0.0000
 3781OM     OM1 3781   8.563   5.882   0.148  0.0000  0.0000  0.0000
 3782OM     OM1 3782   8.604   5.747   0.357  0.0000  0.0000  0.0000
 3783OM     OM1 3783   8.360   5.862   0.330  0.0000  0.0000  0.0000
 3784OM     OM1 3784   5.031   8.772   0.952  0.0000  0.0000  0.0000
 3785OM     OM1 3785   5.021   8.838   0.704  0.0000  0.0000  0.0000
 3786OM     OM1 3786   4.928   9.000   0.890  0.0000  0.0000  0.0000
 3787OM     OM1 3787   6.952   7.277   0.585  0.0000  0.0000  0.0000
 3788OM     OM1 3788   6.702   7.231   0.544  0.0000  0.0000  0.0000
 3789OM     OM1 3789   6.785   7.347   0.772  0.0000  0.0000  0.0000
 3790OM     OM1 3790   2.344   9.335   0.328  0.0000  0.0000  0.0000
 3791OM     OM1 3791   2.261   9.564   0.433  0.0000  0.0000  0.0000
 3792OM     OM1 3792   2.110   9.424   0.289  0.0000  0.0000  0.0000
 3793OM     OM1 3793   2.915   8.316   8.795  0.0000  0.0000  0.0000
 3794OM     OM1 3794   2.682   8.316   8.675  0.0000  0.0000  0.0000
 3795OM     OM1 3795   2.775   8.103   8.782  0.0000  0.0000  0.0000
 3796OM     OM1 3796   2.701   8.334   8.929  0.0000  0.0000  0.0000
 3797OM     OM1 3797   2.625   6.555   0.411  0.0000  0.0000  0.0000
 3798OM     OM1 3798   2.824   6.391   0.390  0.0000  0.0000  0.0000
 3799OM     OM1 3799   2.766   6.528   0.178  0.0000  0.0000  0.0000
 3800OM     OM1 3800   2.606   6.343   0.258  0.0000  0.0000  0.0000
 3801OM     OM1 3801   1.738   4.324   0.671  0.0000  0.0000  0.0000
 3802OM     OM1 3802   1.496   4.277   0.759  0.0000  0.0000  0.0000
 3803OM     OM1 3803   1.569   4.517   0.674  0.0000  0.0000  0.0000
 3804OM     OM1 3804   1.662   4.422   0.894  0.0000  0.0000  0.0000
 3805OM     OM1 3805   6.780   7.474   0.542  0.0000  0.0000  0.0000
 3806OM     OM1 3806   6.490   7.316   0.660  0.0000  0.0000  0.0000
 3807OM     OM1 3807   6.459   7.112   0.505  0.0000  0.0000  0.0000
 3808OM     OM1 3808   9.323   1.561   8.987  0.0000  0.0000  0.0000
 3809OM     OM1 3809   9.215   1.804   8.964  0.0000  0.0000  0.0000
 3810OM     OM1 3810   9.478   1.764   8.971  0.0000  0.0000  0.0000
 3811OM     OM1 3811   9.326   1.730   9.183  0.0000  0.0000  0.0000
 3812OM     OM1 3812   1.189   1.890   9.198  0.0000  0.0000  0.0000
 3813OM     OM1 3813   1.043   1.595   9.487  0.0000  0.0000  0.0000
 3814OM     OM1 3814   1.303   1.645   9.466  0.0000  0.0000  0.0000
 3815OM     OM1 3815   1.140   1.839   9.447  0.0000  0.0000  0.0000
 3816OM     OM1 3816   4.692   5.773   8.963  0.0000  0.0000  0.0000
 3817OM     OM1 3817   4.472   5.718   9.077  0.0000  0.0000  0.0000
 3818OM     OM1 3818   4.659   5.834   9.218  0.0000  0.0000  0.0000
 3819OM     OM1 3819   7.875   1.574   9.526  0.0000  0.0000  0.0000
 3820OM     OM1 3820   7.897   1.764   9.332  0.0000  0.0000  0.0000
 3821OM     OM1 3821   7.796   1.539   9.282  0.0000  0.0000  0.0000
 3822OM     OM1 3822   7.665   1.715   9.430  0.0000  0.0000  0.0000
 3823OM     OM1 3823   9.344   0.776   0.813  0.0000  0.0000  0.0000
 3824OM     OM1 3824   9.439   0.819   0.581  0.0000  0.0000  0.0000
 3825OM     OM1 3825   9.182   0.762   0.604  0.0000  0.0000  0.0000
 3826OM     OM1 3826   1.507   9.592   0.398  0.0000  0.0000  0.0000
 3827OM     OM1 3827   1.703   9.424   0.380  0.0000  0.0000  0.0000
 3828OM     OM1 3828   1.717   0.048   0.251  0.0000  0.0000  0.0000
 3829OM     OM1 3829   7.395   3.095   0.311  0.0000  0.0000  0.0000
 3830OM     OM1 3830   7.466   3.099   0.066  0.0000  0.0000  0.0000
 3831OM     OM1 3831   7.222   3.042   0.102  0.0000  0.0000  0.0000
 3832OM     OM1 3832   8.250   7.981   8.362  0.0000  0.0000  0.0000
 3833OM     OM1 3833   8.232   8.104   8.726  0.0000  0.0000  0.0000
 3834OM     OM1 3834   8.289   7.729   8.341  0.0000  0.0000  0.0000
 3835OM     OM1 3835   8.313   1.926   8.861  0.0000  0.0000  0.0000
 3836OM     OM1 3836   8.494   1.724   8.883  0.0000  0.0000  0.0000
 3837OM     OM1 3837   8.341   1.787   9.075  0.0000  0.0000  0.0000
 3838OM     OM1 3838   6.751   9.564   0.589  0.0000  0.0000  0.0000
 3839OM     OM1 3839   7.010   9.596   0.600  0.0000  0.0000  0.0000
 3840OM     OM1 3840   6.883   9.590   0.366  0.0000  0.0000  0.0000
 3841OM     OM1 3841   6.911   9.377   0.496  0.0000  0.0000  0.0000
 3842OM     OM1 3842   9.167   9.222   8.994  0.0000  0.0000  0.0000
 3843OM     OM1 3843   9.271   9.084   8.810  0.0000  0.0000  0.0000
 3844OM     OM1 3844   9.010   9.125   8.804  0.0000  0.0000  0.0000
 3845OM     OM1 3845   0.822   8.141   8.295  0.0000  0.0000  0.0000
 3846OM     OM1 3846   0.803   8.017   8.518  0.0000  0.0000  0.0000
 3847OM     OM1 3847   0.618   8.214   8.443  0.0000  0.0000  0.0000
 3848OM     OM1 3848   0.856   8.259   8.526  0.0000  0.0000  0.0000
 3849OM     OM1 3849   1.203   6.617   9.488  0.0000  0.0000  0.0000
 3850OM     OM1 3850   0.976   6.555   9.385  0.0000  0.0000  0.0000
 3851OM     OM1 3851   1.031   6.467   0.014  0.0000  0.0000  0.0000
 3852OM     OM1 3852   0.970   3.420   0.818  0.0000  0.0000  0.0000
 3853OM     OM1 3853   1.137   3.474   0.636  0.0000  0.0000  0.0000
 3854OM     OM1 3854   1.197   3.544   0.880  0.0000  0.0000  0.0000
 3855OM     OM1 3855   7.895   3.822   0.202  0.0000  0.0000  0.0000
 3856OM     OM1 3856   7.918   3.599   0.337  0.0000  0.0000  0.0000
 3857OM     OM1 3857   8.060   3.803   0.406  0.0000  0.0000  0.0000
 3858OM     OM1 3858   8.106   3.670   0.176  0.0000  0.0000  0.0000
 3859OM     OM1 3859   6.316   4.850   9.478  0.0000  0.0000  0.0000
 3860OM     OM1 3860   6.146   4.787   0.065  0.0000  0.0000  0.0000
 3861OM     OM1 3861   6.104   4.719   9.427  0.0000  0.0000  0.0000
 3862OM     OM1 3862   6.079   4.970   9.494  0.0000  0.0000  0.0000
 3863OM     OM1 3863   2.352   8.196   0.084  0.0000  0.0000  0.0000
 3864OM     OM1 3864   2.141   8.345   0.089  0.0000  0.0000  0.0000
 3865OM     OM1 3865   2.254   8.256   0.315  0.0000  0.0000  0.0000
 3866OM     OM1 3866   2.369   8.437   0.173  0.0000  0.0000  0.0000
 3867OM     OM1 3867   2.555   6.797   0.388  0.0000  0.0000  0.0000
 3868OM     OM1 3868   2.351   6.873   0.250  0.0000  0.0000  0.0000
 3869OM     OM1 3869   4.292   3.939   9.375  0.0000  0.0000  0.0000
 3870OM     OM1 3870   6.634   7.682   0.441  0.0000  0.0000  0.0000
 3871OM     OM1 3871   6.780   7.533   0.288  0.0000  0.0000  0.0000
 3872OM     OM1 3872   6.886   7.691   0.449  0.0000  0.0000  0.0000
 3873OM     OM1 3873   5.069   0.834   9.519  0.0000  0.0000  0.0000
 3874OM     OM1 3874   4.811   0.819   9.436  0.0000  0.0000  0.0000
 3875OM     OM1 3875   4.957   1.025   9.404  0.0000  0.0000  0.0000
 3876OM     OM1 3876   4.877   0.940   0.051  0.0000  0.0000  0.0000
 3877OM     OM1 3877   9.415   8.482   8.427  0.0000  0.0000  0.0000
 3878OM     OM1 3878   9.175   8.384   8.364  0.0000  0.0000  0.0000
 3879OM     OM1 3879   7.694   4.636   1.191  0.0000  0.0000  0.0000
 3880OM     OM1 3880   7.461   4.739   1.242  0.0000  0.0000  0.0000
 3881OM     OM1 3881   7.645   4.895   1.144  0.0000  0.0000  0.0000
 3882OM     OM1 3882   5.631   0.052   8.686  0.0000  0.0000  0.0000
 3883OM     OM1 3883   5.450   9.489   8.590  0.0000  0.0000  0.0000
 3884OM     OM1 3884   5.718   9.456   8.545  0.0000  0.0000  0.0000
 3885OM     OM1 3885   5.575   0.036   8.430  0.0000  0.0000  0.0000
 3886OM     OM1 3886   7.197   3.808   9.216  0.0000  0.0000  0.0000
 3887OM     OM1 3887   6.973   3.800   9.094  0.0000  0.0000  0.0000
 3888OM     OM1 3888   6.999   3.676   9.326  0.0000  0.0000  0.0000
 3889OM     OM1 3889   4.444   3.424   0.097  0.0000  0.0000  0.0000
 3890OM     OM1 3890   4.506   3.423   9.454  0.0000  0.0000  0.0000
 3891OM     OM1 3891   4.316   3.253   9.529  0.0000  0.0000  0.0000
 3892OM     OM1 3892   5.079   7.861   0.822  0.0000  0.0000  0.0000
 3893OM     OM1 3893   4.971   8.016   1.013  0.0000  0.0000  0.0000
 3894OM     OM1 3894   4.819   7.895   0.837  0.0000  0.0000  0.0000
 3895OM     OM1 3895   4.728   9.359   9.119  0.0000  0.0000  0.0000
 3896OM     OM1 3896   4.941   9.264   9.241  0.0000  0.0000  0.0000
 3897OM     OM1 3897   4.725   9.304   9.373  0.0000  0.0000  0.0000
 3898OM     OM1 3898   4.742   9.101   9.210  0.0000  0.0000  0.0000
 3899OM     OM1 3899   2.266   8.550   1.093  0.0000  0.0000  0.0000
 3900OM     OM1 3900   2.404   8.489   0.878  0.0000  0.0000  0.0000
 3901OM     OM1 3901   2.429   8.347   1.084  0.0000  0.0000  0.0000
 3902OM     OM1 3902   3.331   8.165   1.053  0.0000  0.0000  0.0000
 3903OM     OM1 3903   3.530   8.250   0.922  0.0000  0.0000  0.0000
 3904OM     OM1 3904   3.538   8.219   1.190  0.0000  0.0000  0.0000
 3905OM     OM1 3905   3.546   8.012   1.031  0.0000  0.0000  0.0000
 3906OM     OM1 3906   2.718   5.231   0.537  0.0000  0.0000  0.0000
 3907OM     OM1 3907   2.878   5.400   0.424  0.0000  0.0000  0.0000
 3908OM     OM1 3908   2.944   5.281   0.648  0.0000  0.0000  0.0000
 3909OM     OM1 3909   2.767   5.476   0.638  0.0000  0.0000  0.0000
 3910OM     OM1 3910   8.803   2.138   0.293  0.0000  0.0000  0.0000
 3911OM     OM1 3911   8.649   2.337   0.204  0.0000  0.0000  0.0000
 3912OM     OM1 3912   8.553   2.093   0.201  0.0000  0.0000  0.0000
 3913OM     OM1 3913   5.137   4.495   8.707  0.0000  0.0000  0.0000
 3914OM     OM1 3914   5.089   4.597   8.476  0.0000  0.0000  0.0000
 3915OM     OM1 3915   8.431   4.910   8.969  0.0000  0.0000  0.0000
 3916OM     OM1 3916   8.270   5.078   8.848  0.0000  0.0000  0.0000
 3917OM     OM1 3917   8.490   5.165   8.963  0.0000  0.0000  0.0000
 3918OM     OM1 3918   8.505   5.021   8.745  0.0000  0.0000  0.0000
 3919OM     OM1 3919   5.220   0.223   0.967  0.0000  0.0000  0.0000
 3920OM     OM1 3920   5.230   0.385   0.764  0.0000  0.0000  0.0000
 3921OM     OM1 3921   4.979   0.361   0.732  0.0000  0.0000  0.0000
 3922OM     OM1 3922   3.372   6.915   1.340  0.0000  0.0000  0.0000
 3923OM     OM1 3923   3.545   6.806   1.186  0.0000  0.0000  0.0000
 3924OM     OM1 3924   0.072   3.903   9.229  0.0000  0.0000  0.0000
 3925OM     OM1 3925   0.298   3.916   9.133  0.0000  0.0000  0.0000
 3926OM     OM1 3926   0.250   3.705   9.273  0.0000  0.0000  0.0000
 3927OM     OM1 3927   2.707   2.448   8.463  0.0000  0.0000  0.0000
 3928OM     OM1 3928   2.585   2.617   8.606  0.0000  0.0000  0.0000
 3929OM     OM1 3929   4.084   8.749   1.164  0.0000  0.0000  0.0000
 3930OM     OM1 3930   4.319   8.642   1.247  0.0000  0.0000  0.0000
 3931OM     OM1 3931   8.887   3.171   0.085  0.0000  0.0000  0.0000
 3932OM     OM1 3932   9.050   2.965   0.129  0.0000  0.0000  0.0000
 3933OM     OM1 3933   8.778   2.947   0.137  0.0000  0.0000  0.0000
 3934OM     OM1 3934   8.922   2.978   9.521  0.0000  0.0000  0.0000
 3935OM     OM1 3935   0.573   3.033   1.278  0.0000  0.0000  0.0000
 3936OM     OM1 3936   0.799   2.984   1.172  0.0000  0.0000  0.0000
 3937OM     OM1 3937   3.598   6.097   9.515  0.0000  0.0000  0.0000
 3938OM     OM1 3938   3.680   5.903   0.074  0.0000  0.0000  0.0000
 3939OM     OM1 3939   1.606   9.166   1.056  0.0000  0.0000  0.0000
 3940OM     OM1 3940   1.723   9.033   0.869  0.0000  0.0000  0.0000
 3941OM     OM1 3941   1.476   9.090   0.837  0.0000  0.0000  0.0000
 3942OM     OM1 3942   1.668   9.282   0.837  0.0000  0.0000  0.0000
 3943OM     OM1 3943   1.977   3.226   9.003  0.0000  0.0000  0.0000
 3944OM     OM1 3944   1.788   3.287   8.828  0.0000  0.0000  0.0000
 3945OM     OM1 3945   1.884   3.468   8.971  0.0000  0.0000  0.0000
 3946OM     OM1 3946   5.803   8.482   8.488  0.0000  0.0000  0.0000
 3947OM     OM1 3947   0.342   3.261   9.517  0.0000  0.0000  0.0000
 3948OM     OM1 3948   0.166   3.109   0.029  0.0000  0.0000  0.0000
 3949OM     OM1 3949   0.339   3.002   9.474  0.0000  0.0000  0.0000
 3950OM     OM1 3950   7.784   5.980   0.370  0.0000  0.0000  0.0000
 3951OM     OM1 3951   7.742   6.214   0.470  0.0000  0.0000  0.0000
 3952OM     OM1 3952   7.671   6.000   0.610  0.0000  0.0000  0.0000
 3953OM     OM1 3953   7.920   6.059   0.583  0.0000  0.0000  0.0000
 3954OM     OM1 3954   2.891   0.229   1.039  0.0000  0.0000  0.0000
 3955OM     OM1 3955   2.779   0.011   0.923  0.0000  0.0000  0.0000
 3956OM     OM1 3956   2.760   0.286   1.246  0.0000  0.0000  0.0000
 3957OM     OM1 3957   2.726   0.241   0.855  0.0000  0.0000  0.0000
 3958OM     OM1 3958   8.882   1.114   0.771  0.0000  0.0000  0.0000
 3959OM     OM1 3959   9.049   0.977   0.626  0.0000  0.0000  0.0000
 3960OM     OM1 3960   2.077   0.577   0.325  0.0000  0.0000  0.0000
 3961OM     OM1 3961   2.038   0.600   0.076  0.0000  0.0000  0.0000
 3962OM     OM1 3962   6.567   7.082   0.225  0.0000  0.0000  0.0000
 3963OM     OM1 3963   6.395   7.017   0.051  0.0000  0.0000  0.0000
 3964OM     OM1 3964   6.382   7.254   0.159  0.0000  0.0000  0.0000
 3965OM     OM1 3965   6.313   7.052   0.306  0.0000  0.0000  0.0000
 3966OM     OM1 3966   5.560   2.362   9.401  0.0000  0.0000  0.0000
 3967OM     OM1 3967   5.691   2.585   9.364  0.0000  0.0000  0.0000
 3968OM     OM1 3968   5.434   2.572   9.484  0.0000  0.0000  0.0000
 3969OM     OM1 3969   5.472   2.537   9.240  0.0000  0.0000  0.0000
 3970OM     OM1 3970   5.446   2.419   8.701  0.0000  0.0000  0.0000
 3971OM     OM1 3971   5.373   2.173   8.609  0.0000  0.0000  0.0000
 3972OM     OM1 3972   5.186   2.291   9.012  0.0000  0.0000  0.0000
 3973OM     OM1 3973   0.481   6.254   8.663  0.0000  0.0000  0.0000
 3974OM     OM1 3974   0.444   6.182   8.417  0.0000  0.0000  0.0000
 3975OM     OM1 3975   0.689   6.177   8.538  0.0000  0.0000  0.0000
 3976OM     OM1 3976   0.592   6.390   8.449  0.0000  0.0000  0.0000
 3977OM     OM1 3977   5.079   9.472   9.177  0.0000  0.0000  0.0000
 3978OM     OM1 3978   5.103   0.045   8.988  0.0000  0.0000  0.0000
 3979OM     OM1 3979   8.346   8.699   0.226  0.0000  0.0000  0.0000
 3980OM     OM1 3980   8.166   8.511   0.176  0.0000  0.0000  0.0000
 3981OM     OM1 3981   8.106   8.767   0.127  0.0000  0.0000  0.0000
 3982OM     OM1 3982   3.530   7.809   0.872  0.0000  0.0000  0.0000
 3983OM     OM1 3983   3.649   7.786   1.106  0.0000  0.0000  0.0000
 3984OM     OM1 3984   3.767   7.917   0.916  0.0000  0.0000  0.0000
 3985OM     OM1 3985   0.407   5.046   0.336  0.0000  0.0000  0.0000
 3986OM     OM1 3986   0.190   4.941   0.221  0.0000  0.0000  0.0000
 3987OM     OM1 3987   0.423   4.897   0.129  0.0000  0.0000  0.0000
 3988OM     OM1 3988   0.336   4.806   0.381  0.0000  0.0000  0.0000
 3989OM     OM1 3989   7.352   1.958   9.109  0.0000  0.0000  0.0000
 3990OM     OM1 3990   7.343   2.126   9.303  0.0000  0.0000  0.0000
 3991OM     OM1 3991   7.147   1.926   9.268  0.0000  0.0000  0.0000
 3992OM     OM1 3992   7.155   2.137   9.128  0.0000  0.0000  0.0000
 3993OM     OM1 3993   4.012   8.183   8.450  0.0000  0.0000  0.0000
 3994OM     OM1 3994   3.872   8.048   8.627  0.0000  0.0000  0.0000
 3995OM     OM1 3995   4.102   7.960   8.545  0.0000  0.0000  0.0000
 3996OM     OM1 3996   4.080   8.177   8.704  0.0000  0.0000  0.0000
 3997OM     OM1 3997   3.999   2.829   9.156  0.0000  0.0000  0.0000
 3998OM     OM1 3998   4.004   2.905   8.917  0.0000  0.0000  0.0000
 3999OM     OM1 3999   3.966   3.096   9.075  0.0000  0.0000  0.0000
 4000OM     OM1 4000   1.270   4.719   0.841  0.0000  0.0000  0.0000
 4001OM     OM1 4001   1.039   4.812   0.899  0.0000  0.0000  0.0000
 4002OM     OM1 4002   1.061   4.675   0.682  0.0000  0.0000  0.0000
 4003OM     OM1 4003   7.505   4.059   0.582  0.0000  0.0000  0.0000
 4004OM     OM1 4004   7.356   3.854   0.655  0.0000  0.0000  0.0000
 4005OM     OM1 4005   7.286   6.515   0.694  0.0000  0.0000  0.0000
 4006OM     OM1 4006   7.051   6.421   0.657  0.0000  0.0000  0.0000
 4007OM     OM1 4007   7.240   6.251   0.703  0.0000  0.0000  0.0000
 4008OM     OM1 4008   7.143   6.427   0.890  0.0000  0.0000  0.0000
 4009OM     OM1 4009   5.089   9.570   0.469  0.0000  0.0000  0.0000
 4010OM     OM1 4010   5.181   9.424   0.670  0.0000  0.0000  0.0000
 4011OM     OM1 4011   5.264   9.395   0.409  0.0000  0.0000  0.0000
 4012OM     OM1 4012   5.236   1.979   8.728  0.0000  0.0000  0.0000
 4013OM     OM1 4013   5.318   1.942   8.497  0.0000  0.0000  0.0000
 4014OM     OM1 4014   2.765   0.020   1.232  0.0000  0.0000  0.0000
 4015OM     OM1 4015   2.844   9.393   1.140  0.0000  0.0000  0.0000
 4016OM     OM1 4016   2.609   9.418   1.273  0.0000  0.0000  0.0000
 4017OM     OM1 4017   1.182   0.401   8.454  0.0000  0.0000  0.0000
 4018OM     OM1 4018   1.350   0.320   8.279  0.0000  0.0000  0.0000
 4019OM     OM1 4019   0.021   8.428   0.357  0.0000  0.0000  0.0000
 4020OM     OM1 4020   0.112   8.213   0.489  0.0000  0.0000  0.0000
 4021OM     OM1 4021   0.018   8.201   0.243  0.0000  0.0000  0.0000
 4022OM     OM1 4022   7.795   6.058   1.042  0.0000  0.0000  0.0000
 4023OM     OM1 4023   7.582   6.332   1.176  0.0000  0.0000  0.0000
 4024OM     OM1 4024   7.575   6.421   0.937  0.0000  0.0000  0.0000
 4025OM     OM1 4025   7.562   6.151   0.996  0.0000  0.0000  0.0000
 4026OM     OM1 4026   7.147   2.925   9.201  0.0000  0.0000  0.0000
 4027OM     OM1 4027   7.170   2.972   8.944  0.0000  0.0000  0.0000
 4028OM     OM1 4028   3.404   0.894   1.107  0.0000  0.0000  0.0000
 4029OM     OM1 4029   3.658   0.963   1.178  0.0000  0.0000  0.0000
 4030OM     OM1 4030   5.526   5.468   8.722  0.0000  0.0000  0.0000
 4031OM     OM1 4031   5.309   5.237   8.382  0.0000  0.0000  0.0000
 4032OM     OM1 4032   5.482   5.388   8.247  0.0000  0.0000  0.0000
 4033OM     OM1 4033   3.285   9.022   1.401  0.0000  0.0000  0.0000
 4034OM     OM1 4034   3.111   9.077   1.224  0.0000  0.0000  0.0000
 4035OM     OM1 4035   2.777   4.298   0.156  0.0000  0.0000  0.0000
 4036OM     OM1 4036   2.964   4.730   0.053  0.0000  0.0000  0.0000
 4037OM     OM1 4037   2.835   4.388   9.527  0.0000  0.0000  0.0000
 4038OM     OM1 4038   2.792   4.554   0.130  0.0000  0.0000  0.0000
 4039OM     OM1 4039   6.088   5.803   9.134  0.0000  0.0000  0.0000
 4040OM     OM1 4040   5.947   5.633   9.270  0.0000  0.0000  0.0000
 4041OM     OM1 4041   0.719   0.801   1.234  0.0000  0.0000  0.0000
 4042OM     OM1 4042   0.509   0.684   1.150  0.0000  0.0000  0.0000
 4043OM     OM1 4043   6.830   0.555   9.135  0.0000  0.0000  0.0000
 4044OM     OM1 4044   6.798   0.309   9.065  0.0000  0.0000  0.0000
 4045OM     OM1 4045   7.037   0.397   9.151  0.0000  0.0000  0.0000
 4046OM     OM1 4046   5.162   6.574   0.490  0.0000  0.0000  0.0000
 4047OM     OM1 4047   5.277   6.501   0.272  0.0000  0.0000  0.0000
 4048OM     OM1 4048   5.189   6.317   0.434  0.0000  0.0000  0.0000
 4049OM     OM1 4049   0.150   2.162   1.163  0.0000  0.0000  0.0000
 4050OM     OM1 4050   0.204   2.374   1.285  0.0000  0.0000  0.0000
 4051OM     OM1 4051   9.582   2.224   1.339  0.0000  0.0000  0.0000
 4052OM     OM1 4052   0.012   2.384   1.121  0.0000  0.0000  0.0000
 4053OM     OM1 4053   2.002   1.706   8.651  0.0000  0.0000  0.0000
 4054OM     OM1 4054   2.002   1.439   8.714  0.0000  0.0000  0.0000
 4055OM     OM1 4055   1.779   1.580   8.708  0.0000  0.0000  0.0000
 4056OM     OM1 4056   5.626   7.762   8.714  0.0000  0.0000  0.0000
 4057OM     OM1 4057   5.703   7.904   8.497  0.0000  0.0000  0.0000
 4058OM     OM1 4058   5.846   7.899   8.720  0.0000  0.0000  0.0000
 4059OM     OM1 4059   3.842   3.778   8.618  0.0000  0.0000  0.0000
 4060OM     OM1 4060   3.759   3.873   8.386  0.0000  0.0000  0.0000
 4061OM     OM1 4061   3.611   3.705   8.502  0.0000  0.0000  0.0000
 4062OM     OM1 4062   8.241   6.243   8.836  0.0000  0.0000  0.0000
 4063OM     OM1 4063   8.056   6.289   8.660  0.0000  0.0000  0.0000
 4064OM     OM1 4064   8.169   6.050   8.680  0.0000  0.0000  0.0000
 4065OM     OM1 4065   8.006   6.132   8.862  0.0000  0.0000  0.0000
 4066OM     OM1 4066   1.044   9.142   0.851  0.0000  0.0000  0.0000
 4067OM     OM1 4067   1.019   9.000   0.625  0.0000  0.0000  0.0000
 4068OM     OM1 4068   0.920   9.337   0.972  0.0000  0.0000  0.0000
 4069OM     OM1 4069   4.639   7.135   0.705  0.0000  0.0000  0.0000
 4070OM     OM1 4070   4.206   1.808   9.158  0.0000  0.0000  0.0000
 4071OM     OM1 4071   3.967   1.896   9.102  0.0000  0.0000  0.0000
 4072OM     OM1 4072   4.159   2.065   9.082  0.0000  0.0000  0.0000
 4073OM     OM1 4073   4.085   1.971   9.319  0.0000  0.0000  0.0000
 4074OM     OM1 4074   8.812   3.967   8.714  0.0000  0.0000  0.0000
 4075OM     OM1 4075   8.846   3.821   8.500  0.0000  0.0000  0.0000
 4076OM     OM1 4076   8.960   4.057   8.525  0.0000  0.0000  0.0000
 4077OM     OM1 4077   4.303   0.661   8.650  0.0000  0.0000  0.0000
 4078OM     OM1 4078   4.494   0.704   8.815  0.0000  0.0000  0.0000
 4079OM     OM1 4079   4.364   0.917   8.710  0.0000  0.0000  0.0000
 4080OM     OM1 4080   4.515   0.777   8.563  0.0000  0.0000  0.0000
 4081OM     OM1 4081   1.708   9.384   8.489  0.0000  0.0000  0.0000
 4082OM     OM1 4082   1.342   0.103   8.430  0.0000  0.0000  0.0000
 4083OM     OM1 4083   1.417   0.043   8.669  0.0000  0.0000  0.0000
 4084OM     OM1 4084   8.616   4.398   8.560  0.0000  0.0000  0.0000
 4085OM     OM1 4085   8.619   4.657   8.494  0.0000  0.0000  0.0000
 4086OM     OM1 4086   8.001   4.091   8.544  0.0000  0.0000  0.0000
 4087OM     OM1 4087   7.911   4.097   8.304  0.0000  0.0000  0.0000
 4088OM     OM1 4088   7.775   3.971   8.474  0.0000  0.0000  0.0000
 4089OM     OM1 4089   5.700   8.874   0.943  0.0000  0.0000  0.0000
 4090OM     OM1 4090   5.609   8.998   0.736  0.0000  0.0000  0.0000
 4091OM     OM1 4091   5.856   9.027   0.797  0.0000  0.0000  0.0000
 4092OM     OM1 4092   3.168   4.948   9.242  0.0000  0.0000  0.0000
 4093OM     OM1 4093   3.339   4.795   9.137  0.0000  0.0000  0.0000
 4094OM     OM1 4094   3.392   4.895   9.379  0.0000  0.0000  0.0000
 4095OM     OM1 4095   3.404   5.045   9.164  0.0000  0.0000  0.0000
 4096OM     OM1 4096   4.872   1.814   9.056  0.0000  0.0000  0.0000
 4097OM     OM1 4097   4.986   1.618   8.908  0.0000  0.0000  0.0000
 4098OM     OM1 4098   4.767   1.573   9.057  0.0000  0.0000  0.0000
 4099OM     OM1 4099   4.759   1.720   8.845  0.0000  0.0000  0.0000
 4100OM     OM1 4100   6.534   8.870   0.060  0.0000  0.0000  0.0000
 4101OM     OM1 4101   6.422   8.828   0.289  0.0000  0.0000  0.0000
 4102OM     OM1 4102   1.787   0.884   8.401  0.0000  0.0000  0.0000
 4103OM     OM1 4103   1.954   1.092   8.441  0.0000  0.0000  0.0000
 4104OM     OM1 4104   6.750   0.100   9.199  0.0000  0.0000  0.0000
 4105OM     OM1 4105   6.620   0.136   8.965  0.0000  0.0000  0.0000
 4106OM     OM1 4106   6.881   0.089   8.970  0.0000  0.0000  0.0000
 4107OM     OM1 4107   6.275   3.719   8.482  0.0000  0.0000  0.0000
 4108OM     OM1 4108   6.390   3.946   8.390  0.0000  0.0000  0.0000
 4109OM     OM1 4109   6.487   4.159   8.474  0.0000  0.0000  0.0000
 4110OM     OM1 4110   6.226   4.131   8.460  0.0000  0.0000  0.0000
 4111OM     OM1 4111   9.180   4.524   1.432  0.0000  0.0000  0.0000
 4112OM     OM1 4112   3.133   0.679   9.303  0.0000  0.0000  0.0000
 4113OM     OM1 4113   3.067   0.437   9.374  0.0000  0.0000  0.0000
 4114OM     OM1 4114   0.732   0.125   0.768  0.0000  0.0000  0.0000
 4115OM     OM1 4115   0.545   9.543   0.800  0.0000  0.0000  0.0000
 4116OM     OM1 4116   0.557   0.144   0.967  0.0000  0.0000  0.0000
 4117OM     OM1 4117   0.483   0.180   0.723  0.0000  0.0000  0.0000
 4118OM     OM1 4118   5.965   7.285   8.352  0.0000  0.0000  0.0000
 4119OM     OM1 4119   5.738   7.193   8.421  0.0000  0.0000  0.0000
 4120OM     OM1 4120   2.572   1.856   9.546  0.0000  0.0000  0.0000
 4121OM     OM1 4121   2.574   1.943   9.301  0.0000  0.0000  0.0000
 4122OM     OM1 4122   2.600   2.110   9.490  0.0000  0.0000  0.0000
 4123OM     OM1 4123   2.364   1.989   9.458  0.0000  0.0000  0.0000
 4124OM     OM1 4124   3.904   2.416   0.565  0.0000  0.0000  0.0000
 4125OM     OM1 4125   3.970   2.167   0.538  0.0000  0.0000  0.0000
 4126OM     OM1 4126   4.101   2.355   0.411  0.0000  0.0000  0.0000
 4127OM     OM1 4127   3.860   2.270   0.336  0.0000  0.0000  0.0000
 4128OM     OM1 4128   1.163   7.068   9.324  0.0000  0.0000  0.0000
 4129OM     OM1 4129   1.078   6.850   9.212  0.0000  0.0000  0.0000
 4130OM     OM1 4130   9.248   8.035   9.280  0.0000  0.0000  0.0000
 4131OM     OM1 4131   9.086   8.135   9.472  0.0000  0.0000  0.0000
 4132OM     OM1 4132   7.073   0.938   9.596  0.0000  0.0000  0.0000
 4133OM     OM1 4133   7.248   1.120   0.002  0.0000  0.0000  0.0000
 4134OM     OM1 4134   7.075   1.107   0.195  0.0000  0.0000  0.0000
 4135OM     OM1 4135   8.616   4.344   8.816  0.0000  0.0000  0.0000
 4136OM     OM1 4136   8.585   4.416   9.064  0.0000  0.0000  0.0000
 4137OM     OM1 4137   8.803   4.288   8.992  0.0000  0.0000  0.0000
 4138OM     OM1 4138   8.947   0.478   0.756  0.0000  0.0000  0.0000
 4139OM     OM1 4139   8.734   0.504   0.879  0.0000  0.0000  0.0000
 4140OM     OM1 4140   8.731   0.422   0.612  0.0000  0.0000  0.0000
 4141OM     OM1 4141   9.122   0.271   0.059  0.0000  0.0000  0.0000
 4142OM     OM1 4142   9.079   0.520   0.028  0.0000  0.0000  0.0000
 4143OM     OM1 4143   9.144   0.353   9.426  0.0000  0.0000  0.0000
 4144OM     OM1 4144   8.908   0.367   9.513  0.0000  0.0000  0.0000
 4145OM     OM1 4145   7.384   3.014   8.789  0.0000  0.0000  0.0000
 4146OM     OM1 4146   7.545   2.825   8.699  0.0000  0.0000  0.0000
 4147OM     OM1 4147   7.576   2.936   8.934  0.0000  0.0000  0.0000
 4148OM     OM1 4148   7.638   3.062   8.706  0.0000  0.0000  0.0000
 4149OM     OM1 4149   8.109   9.571   0.990  0.0000  0.0000  0.0000
 4150OM     OM1 4150   8.175   0.016   1.247  0.0000  0.0000  0.0000
 4151OM     OM1 4151   2.083   1.402   0.914  0.0000  0.0000  0.0000
 4152OM     OM1 4152   1.846   1.394   0.812  0.0000  0.0000  0.0000
 4153OM     OM1 4153   1.896   1.543   1.022  0.0000  0.0000  0.0000
 4154OM     OM1 4154   0.949   1.150   0.227  0.0000  0.0000  0.0000
 4155OM     OM1 4155   1.193   1.231   0.247  0.0000  0.0000  0.0000
 4156OM     OM1 4156   0.987   1.408   0.236  0.0000  0.0000  0.0000
 4157OM     OM1 4157   1.028   1.256   0.446  0.0000  0.0000  0.0000
 4158OM     OM1 4158   8.564   3.612   0.611  0.0000  0.0000  0.0000
 4159OM     OM1 4159   8.599   3.733   0.837  0.0000  0.0000  0.0000
 4160OM     OM1 4160   0.238   7.777   0.574  0.0000  0.0000  0.0000
 4161OM     OM1 4161   0.348   7.564   0.643  0.0000  0.0000  0.0000
 4162OM     OM1 4162   0.420   7.683   0.415  0.0000  0.0000  0.0000
 4163OM     OM1 4163   9.309   9.300   0.029  0.0000  0.0000  0.0000
 4164OM     OM1 4164   9.566   9.316   9.570  0.0000  0.0000  0.0000
 4165OM     OM1 4165   9.428   9.532   9.585  0.0000  0.0000  0.0000
 4166OM     OM1 4166   9.466   9.385   0.200  0.0000  0.0000  0.0000
 4167OM     OM1 4167   7.631   1.391   1.243  0.0000  0.0000  0.0000
 4168OM     OM1 4168   7.873   1.444   1.228  0.0000  0.0000  0.0000
 4169OM     OM1 4169   8.514   6.523   9.229  0.0000  0.0000  0.0000
 4170OM     OM1 4170   8.549   6.458   9.469  0.0000  0.0000  0.0000
 4171OM     OM1 4171   8.366   6.320   9.331  0.0000  0.0000  0.0000
 4172OM     OM1 4172   5.189   5.536   1.370  0.0000  0.0000  0.0000
 4173OM     OM1 4173   2.898   7.185   9.287  0.0000  0.0000  0.0000
 4174OM     OM1 4174   2.824   7.256   9.544  0.0000  0.0000  0.0000
 4175OM     OM1 4175   2.688   7.325   9.340  0.0000  0.0000  0.0000
 4176OM     OM1 4176   6.541   7.496   8.789  0.0000  0.0000  0.0000
 4177OM     OM1 4177   6.656   7.661   8.609  0.0000  0.0000  0.0000
 4178OM     OM1 4178   6.428   7.530   8.554  0.0000  0.0000  0.0000
 4179OM     OM1 4179   7.104   7.866   9.150  0.0000  0.0000  0.0000
 4180OM     OM1 4180   6.847   7.866   9.210  0.0000  0.0000  0.0000
 4181OM     OM1 4181   6.920   7.953   8.986  0.0000  0.0000  0.0000
 4182OM     OM1 4182   4.749   4.413   0.976  0.0000  0.0000  0.0000
 4183OM     OM1 4183   4.490   4.340   0.919  0.0000  0.0000  0.0000
 4184OM     OM1 4184   3.559   3.316   1.144  0.0000  0.0000  0.0000
 4185OM     OM1 4185   3.412   3.424   1.350  0.0000  0.0000  0.0000
 4186OM     OM1 4186   2.563   7.573   9.329  0.0000  0.0000  0.0000
 4187OM     OM1 4187   2.529   7.398   9.147  0.0000  0.0000  0.0000
 4188OM     OM1 4188   2.437   7.354   9.386  0.0000  0.0000  0.0000
 4189OM     OM1 4189   2.293   4.867   8.659  0.0000  0.0000  0.0000
 4190OM     OM1 4190   2.332   4.646   8.775  0.0000  0.0000  0.0000
 4191OM     OM1 4191   9.207   2.280   9.482  0.0000  0.0000  0.0000
 4192OM     OM1 4192   9.144   2.321   0.132  0.0000  0.0000  0.0000
 4193OM     OM1 4193   9.085   2.502   9.558  0.0000  0.0000  0.0000
 4194OM     OM1 4194   7.820   6.094   9.046  0.0000  0.0000  0.0000
 4195OM     OM1 4195   7.765   6.227   8.832  0.0000  0.0000  0.0000
 4196OM     OM1 4196   7.928   6.330   9.011  0.0000  0.0000  0.0000
 4197OM     OM1 4197   5.822   9.006   9.245  0.0000  0.0000  0.0000
 4198OM     OM1 4198   5.893   9.020   9.492  0.0000  0.0000  0.0000
 4199OM     OM1 4199   5.892   9.241   9.332  0.0000  0.0000  0.0000
 4200OM     OM1 4200   5.672   9.138   9.419  0.0000  0.0000  0.0000
 4201OM     OM1 4201   7.202   5.533   0.731  0.0000  0.0000  0.0000
 4202OM     OM1 4202   6.998   5.688   0.781  0.0000  0.0000  0.0000
 4203OM     OM1 4203   7.200   5.708   0.925  0.0000  0.0000  0.0000
 4204OM     OM1 4204   7.230   5.783   0.673  0.0000  0.0000  0.0000
 4205OM     OM1 4205   3.093   6.006   8.526  0.0000  0.0000  0.0000
 4206OM     OM1 4206   3.256   6.183   8.420  0.0000  0.0000  0.0000
 4207OM     OM1 4207   2.998   6.182   8.358  0.0000  0.0000  0.0000
 4208OM     OM1 4208   2.330   9.263   8.354  0.0000  0.0000  0.0000
 4209OM     OM1 4209   2.444   9.445   8.213  0.0000  0.0000  0.0000
 4210OM     OM1 4210   8.033   9.541   8.757  0.0000  0.0000  0.0000
 4211OM     OM1 4211   8.256   9.504   8.630  0.0000  0.0000  0.0000
 4212OM     OM1 4212   8.273   9.558   8.876  0.0000  0.0000  0.0000
 4213OM     OM1 4213   9.566   7.855   0.993  0.0000  0.0000  0.0000
 4214OM     OM1 4214   0.131   8.046   1.001  0.0000  0.0000  0.0000
 4215OM     OM1 4215   0.157   7.853   0.822  0.0000  0.0000  0.0000
 4216OM     OM1 4216   0.215   7.807   1.070  0.0000  0.0000  0.0000
 4217OM     OM1 4217   0.558   7.319   9.557  0.0000  0.0000  0.0000
 4218OM     OM1 4218   0.400   7.476   0.081  0.0000  0.0000  0.0000
 4219OM     OM1 4219   0.649   7.486   0.128  0.0000  0.0000  0.0000
 4220OM     OM1 4220   0.532   7.261   0.199  0.0000  0.0000  0.0000
 4221OM     OM1 4221   0.194   6.102   1.233  0.0000  0.0000  0.0000
 4222OM     OM1 4222   0.330   6.039   1.020  0.0000  0.0000  0.0000
 4223OM     OM1 4223   0.083   5.964   1.036  0.0000  0.0000  0.0000
 4224OM     OM1 4224   0.256   5.850   1.190  0.0000  0.0000  0.0000
 4225OM     OM1 4225   8.973   1.452   9.316  0.0000  0.0000  0.0000
 4226OM     OM1 4226   9.220   1.548   9.333  0.0000  0.0000  0.0000
 4227OM     OM1 4227   9.124   1.393   9.519  0.0000  0.0000  0.0000
 4228OM     OM1 4228   9.167   1.297   9.273  0.0000  0.0000  0.0000
 4229OM     OM1 4229   1.393   1.002   8.895  0.0000  0.0000  0.0000
 4230OM     OM1 4230   1.483   0.838   8.719  0.0000  0.0000  0.0000
 4231OM     OM1 4231   1.413   1.089   8.652  0.0000  0.0000  0.0000
 4232OM     OM1 4232   1.974   3.574   9.271  0.0000  0.0000  0.0000
 4233OM     OM1 4233   2.116   3.377   9.405  0.0000  0.0000  0.0000
 4234OM     OM1 4234   2.226   3.514   9.226  0.0000  0.0000  0.0000
 4235OM     OM1 4235   2.149   3.633   9.450  0.0000  0.0000  0.0000
 4236OM     OM1 4236   1.328   9.133   8.355  0.0000  0.0000  0.0000
 4237OM     OM1 4237   3.428   5.810   8.542  0.0000  0.0000  0.0000
 4238OM     OM1 4238   3.509   5.783   8.307  0.0000  0.0000  0.0000
 4239OM     OM1 4239   3.466   6.027   8.406  0.0000  0.0000  0.0000
 4240OM     OM1 4240   3.677   5.892   8.481  0.0000  0.0000  0.0000
 4241OM     OM1 4241   6.629   0.740   1.013  0.0000  0.0000  0.0000
 4242OM     OM1 4242   6.764   0.539   1.097  0.0000  0.0000  0.0000
 4243OM     OM1 4243   6.540   0.493   0.970  0.0000  0.0000  0.0000
 4244OM     OM1 4244   7.793   8.703   8.988  0.0000  0.0000  0.0000
 4245OM     OM1 4245   7.558   8.592   9.035  0.0000  0.0000  0.0000
 4246OM     OM1 4246   7.581   8.846   8.996  0.0000  0.0000  0.0000
 4247OM     OM1 4247   7.599   8.687   8.798  0.0000  0.0000  0.0000
 4248OM     OM1 4248   7.527   6.667   8.691  0.0000  0.0000  0.0000
 4249OM     OM1 4249   7.698   6.578   8.512  0.0000  0.0000  0.0000
 4250OM     OM1 4250   7.452   6.470   8.552  0.0000  0.0000  0.0000
 4251OM     OM1 4251   7.650   6.424   8.704  0.0000  0.0000  0.0000
 4252OM     OM1 4252   3.337   4.482   9.458  0.0000  0.0000  0.0000
 4253OM     OM1 4253   3.448   4.706   9.551  0.0000  0.0000  0.0000
 4254OM     OM1 4254   3.198   4.679   9.555  0.0000  0.0000  0.0000
 4255OM     OM1 4255   5.176   1.156   9.399  0.0000  0.0000  0.0000
 4256OM     OM1 4256   5.217   1.413   9.382  0.0000  0.0000  0.0000
 4257OM     OM1 4257   5.231   1.284   0.013  0.0000  0.0000  0.0000
 4258OM     OM1 4258   5.411   1.256   9.428  0.0000  0.0000  0.0000
 4259OM     OM1 4259   8.352   6.324   0.588  0.0000  0.0000  0.0000
 4260OM     OM1 4260   8.102   6.237   0.639  0.0000  0.0000  0.0000
 4261OM     OM1 4261   8.153   6.485   0.590  0.0000  0.0000  0.0000
 4262OM     OM1 4262   2.016   2.826   0.216  0.0000  0.0000  0.0000
 4263OM     OM1 4263   2.118   2.916   0.427  0.0000  0.0000  0.0000
 4264OM     OM1 4264   2.082   3.071   0.194  0.0000  0.0000  0.0000
 4265OM     OM1 4265   2.268   2.901   0.205  0.0000  0.0000  0.0000
 4266OM     OM1 4266   3.596   3.664   0.477  0.0000  0.0000  0.0000
 4267OM     OM1 4267   3.677   3.490   0.660  0.0000  0.0000  0.0000
 4268OM     OM1 4268   3.772   3.489   0.411  0.0000  0.0000  0.0000
 4269OM     OM1 4269   3.530   3.404   0.465  0.0000  0.0000  0.0000
 4270OM     OM1 4270   5.021   8.096   1.255  0.0000  0.0000  0.0000
 4271OM     OM1 4271   5.189   8.138   1.056  0.0000  0.0000  0.0000
 4272OM     OM1 4272   6.446   6.120   0.611  0.0000  0.0000  0.0000
 4273OM     OM1 4273   6.597   6.328   0.590  0.0000  0.0000  0.0000
 4274OM     OM1 4274   6.396   6.304   0.429  0.0000  0.0000  0.0000
 4275OM     OM1 4275   6.597   6.144   0.398  0.0000  0.0000  0.0000
 4276OM     OM1 4276   8.439   2.131   0.678  0.0000  0.0000  0.0000
 4277OM     OM1 4277   8.648   2.246   0.767  0.0000  0.0000  0.0000
 4278OM     OM1 4278   0.153   3.413   8.408  0.0000  0.0000  0.0000
 4279OM     OM1 4279   0.045   3.211   8.546  0.0000  0.0000  0.0000
 4280OM     OM1 4280   9.585   3.459   8.593  0.0000  0.0000  0.0000
 4281OM     OM1 4281   9.520   3.339   8.361  0.0000  0.0000  0.0000
 4282OM     OM1 4282   4.172   5.476   0.126  0.0000  0.0000  0.0000
 4283OM     OM1 4283   4.411   5.426   0.019  0.0000  0.0000  0.0000
 4284OM     OM1 4284   0.773   6.495   8.926  0.0000  0.0000  0.0000
 4285OM     OM1 4285   0.574   6.512   9.108  0.0000  0.0000  0.0000
 4286OM     OM1 4286   0.559   6.435   8.815  0.0000  0.0000  0.0000
 4287OM     OM1 4287   6.431   5.971   0.824  0.0000  0.0000  0.0000
 4288OM     OM1 4288   6.220   6.104   0.723  0.0000  0.0000  0.0000
 4289OM     OM1 4289   6.324   5.899   0.593  0.0000  0.0000  0.0000
 4290OM     OM1 4290   3.653   0.335   8.657  0.0000  0.0000  0.0000
 4291OM     OM1 4291   3.891   0.283   8.767  0.0000  0.0000  0.0000
 4292OM     OM1 4292   3.853   0.338   8.504  0.0000  0.0000  0.0000
 4293OM     OM1 4293   3.781   0.110   8.610  0.0000  0.0000  0.0000
 4294OM     OM1 4294   8.061   1.542   0.096  0.0000  0.0000  0.0000
 4295OM     OM1 4295   8.350   1.683   9.559  0.0000  0.0000  0.0000
 4296OM     OM1 4296   8.037   1.774   0.204  0.0000  0.0000  0.0000
 4297OM     OM1 4297   8.898   3.567   8.469  0.0000  0.0000  0.0000
 4298OM     OM1 4298   8.669   3.664   8.384  0.0000  0.0000  0.0000
 4299OM     OM1 4299   4.142   8.323   9.478  0.0000  0.0000  0.0000
 4300OM     OM1 4300   3.978   8.320   9.270  0.0000  0.0000  0.0000
 4301OM     OM1 4301   4.171   8.146   9.299  0.0000  0.0000  0.0000
 4302OM     OM1 4302   6.657   1.479   8.624  0.0000  0.0000  0.0000
 4303OM     OM1 4303   6.425   1.572   8.650  0.0000  0.0000  0.0000
 4304OM     OM1 4304   6.724   1.524   8.379  0.0000  0.0000  0.0000
 4305OM     OM1 4305   1.494   3.763   8.939  0.0000  0.0000  0.0000
 4306OM     OM1 4306   1.556   3.533   9.049  0.0000  0.0000  0.0000
 4307OM     OM1 4307   1.618   3.592   8.791  0.0000  0.0000  0.0000
 4308OM     OM1 4308   1.379   3.538   8.856  0.0000  0.0000  0.0000
 4309OM     OM1 4309   4.605   0.409   0.094  0.0000  0.0000  0.0000
 4310OM     OM1 4310   4.605   0.506   9.466  0.0000  0.0000  0.0000
 4311OM     OM1 4311   4.841   0.497   9.587  0.0000  0.0000  0.0000
 4312OM     OM1 4312   9.049   4.195   9.007  0.0000  0.0000  0.0000
 4313OM     OM1 4313   8.851   4.035   8.965  0.0000  0.0000  0.0000
 4314OM     OM1 4314   3.995   3.453   0.256  0.0000  0.0000  0.0000
 4315OM     OM1 4315   4.237   3.499   0.358  0.0000  0.0000  0.0000
 4316OM     OM1 4316   4.041   3.681   0.342  0.0000  0.0000  0.0000
 4317OM     OM1 4317   4.895   7.329   1.039  0.0000  0.0000  0.0000
 4318OM     OM1 4318   5.103   7.311   1.200  0.0000  0.0000  0.0000
 4319OM     OM1 4319   5.090   7.160   0.983  0.0000  0.0000  0.0000
 4320OM     OM1 4320   5.085   6.966   0.792  0.0000  0.0000  0.0000
 4321OM     OM1 4321   6.536   5.197   0.579  0.0000  0.0000  0.0000
 4322OM     OM1 4322   6.501   5.203   0.842  0.0000  0.0000  0.0000
 4323OM     OM1 4323   6.293   5.161   0.679  0.0000  0.0000  0.0000
 4324OM     OM1 4324   6.486   4.982   0.719  0.0000  0.0000  0.0000
 4325OM     OM1 4325   4.888   4.525   8.348  0.0000  0.0000  0.0000
 4326OM     OM1 4326   4.766   4.297   8.355  0.0000  0.0000  0.0000
 4327OM     OM1 4327   1.949   4.909   1.083  0.0000  0.0000  0.0000
 4328OM     OM1 4328   2.127   4.949   0.897  0.0000  0.0000  0.0000
 4329OM     OM1 4329   2.105   5.111   1.105  0.0000  0.0000  0.0000
 4330OM     OM1 4330   2.209   4.866   1.129  0.0000  0.0000  0.0000
 4331OM     OM1 4331   5.537   7.257   8.914  0.0000  0.0000  0.0000
 4332OM     OM1 4332   5.743   7.402   9.062  0.0000  0.0000  0.0000
 4333OM     OM1 4333   5.769   7.163   8.989  0.0000  0.0000  0.0000
 4334OM     OM1 4334   5.752   7.363   8.819  0.0000  0.0000  0.0000
 4335OM     OM1 4335   1.209   5.850   0.321  0.0000  0.0000  0.0000
 4336OM     OM1 4336   1.090   5.728   0.525  0.0000  0.0000  0.0000
 4337OM     OM1 4337   1.128   5.595   0.312  0.0000  0.0000  0.0000
 4338OM     OM1 4338   0.837   8.458   8.304  0.0000  0.0000  0.0000
 4339OM     OM1 4339   1.039   8.470   8.476  0.0000  0.0000  0.0000
 4340OM     OM1 4340   1.032   8.280   8.281  0.0000  0.0000  0.0000
 4341OM     OM1 4341   4.687   0.471   0.570  0.0000  0.0000  0.0000
 4342OM     OM1 4342   4.762   0.241   0.663  0.0000  0.0000  0.0000
 4343OM     OM1 4343   4.505   0.320   0.660  0.0000  0.0000  0.0000
 4344OM     OM1 4344   4.676   0.426   0.829  0.0000  0.0000  0.0000
 4345OM     OM1 4345   3.644   2.893   0.083  0.0000  0.0000  0.0000
 4346OM     OM1 4346   3.426   2.793   9.595  0.0000  0.0000  0.0000
 4347OM     OM1 4347   3.566   2.962   9.452  0.0000  0.0000  0.0000
 4348OM     OM1 4348   3.419   3.043   0.044  0.0000  0.0000  0.0000
 4349OM     OM1 4349   7.643   7.670   8.474  0.0000  0.0000  0.0000
 4350OM     OM1 4350   7.541   7.445   8.533  0.0000  0.0000  0.0000
 4351OM     OM1 4351   7.505   7.637   8.693  0.0000  0.0000  0.0000
 4352OM     OM1 4352   7.749   7.524   8.670  0.0000  0.0000  0.0000
 4353OM     OM1 4353   2.747   5.623   8.654  0.0000  0.0000  0.0000
 4354OM     OM1 4354   2.557   5.487   8.811  0.0000  0.0000  0.0000
 4355OM     OM1 4355   2.699   5.369   8.633  0.0000  0.0000  0.0000
 4356OM     OM1 4356   2.808   5.464   8.855  0.0000  0.0000  0.0000
 4357OM     OM1 4357   2.222   8.444   9.333  0.0000  0.0000  0.0000
 4358OM     OM1 4358   2.189   8.416   9.067  0.0000  0.0000  0.0000
 4359OM     OM1 4359   1.987   8.398   9.225  0.0000  0.0000  0.0000
 4360OM     OM1 4360   2.171   8.211   9.222  0.0000  0.0000  0.0000
 4361OM     OM1 4361   8.657   0.697   1.039  0.0000  0.0000  0.0000
 4362OM     OM1 4362   8.501   0.893   0.963  0.0000  0.0000  0.0000
 4363OM     OM1 4363   8.432   0.756   1.171  0.0000  0.0000  0.0000
 4364OM     OM1 4364   8.434   0.632   0.942  0.0000  0.0000  0.0000
 4365OM     OM1 4365   5.494   0.882   0.985  0.0000  0.0000  0.0000
 4366OM     OM1 4366   5.281   0.709   0.989  0.0000  0.0000  0.0000
 4367OM     OM1 4367   5.447   0.707   1.184  0.0000  0.0000  0.0000
 4368OM     OM1 4368   5.518   0.611   0.964  0.0000  0.0000  0.0000
 4369OM     OM1 4369   9.069   4.928   9.186  0.0000  0.0000  0.0000
 4370OM     OM1 4370   9.203   5.129   9.269  0.0000  0.0000  0.0000
 4371OM     OM1 4371   9.195   5.074   9.017  0.0000  0.0000  0.0000
 4372OM     OM1 4372   9.055   0.198   9.220  0.0000  0.0000  0.0000
 4373OM     OM1 4373   9.163   0.455   9.203  0.0000  0.0000  0.0000
 4374OM     OM1 4374   3.551   3.354   0.848  0.0000  0.0000  0.0000
 4375OM     OM1 4375   6.179   9.123   9.019  0.0000  0.0000  0.0000
 4376OM     OM1 4376   5.927   9.097   9.024  0.0000  0.0000  0.0000
 4377OM     OM1 4377   0.363   4.220   1.070  0.0000  0.0000  0.0000
 4378OM     OM1 4378   0.319   4.396   1.250  0.0000  0.0000  0.0000
 4379OM     OM1 4379   0.537   4.417   1.098  0.0000  0.0000  0.0000
 4380OM     OM1 4380   3.769   7.239   9.267  0.0000  0.0000  0.0000
 4381OM     OM1 4381   3.679   7.467   9.345  0.0000  0.0000  0.0000
 4382OM     OM1 4382   5.685   8.660   1.093  0.0000  0.0000  0.0000
 4383OM     OM1 4383   5.468   8.778   1.022  0.0000  0.0000  0.0000
 4384OM     OM1 4384   5.616   8.893   1.193  0.0000  0.0000  0.0000
 4385OM     OM1 4385   1.790   1.836   9.144  0.0000  0.0000  0.0000
 4386OM     OM1 4386   1.796   1.577   9.164  0.0000  0.0000  0.0000
 4387OM     OM1 4387   1.813   1.728   9.377  0.0000  0.0000  0.0000
 4388OM     OM1 4388   2.017   1.721   9.213  0.0000  0.0000  0.0000
 4389OM     OM1 4389   0.250   8.793   0.214  0.0000  0.0000  0.0000
 4390OM     OM1 4390   0.074   8.679   0.357  0.0000  0.0000  0.0000
 4391OM     OM1 4391   3.590   2.606   8.498  0.0000  0.0000  0.0000
 4392OM     OM1 4392   3.792   2.454   8.436  0.0000  0.0000  0.0000
 4393OM     OM1 4393   3.497   2.810   8.655  0.0000  0.0000  0.0000
 4394OM     OM1 4394   0.252   8.607   9.459  0.0000  0.0000  0.0000
 4395OM     OM1 4395   0.500   8.513   9.511  0.0000  0.0000  0.0000
 4396OM     OM1 4396   0.311   8.355   9.440  0.0000  0.0000  0.0000
 4397OM     OM1 4397   0.407   8.535   9.270  0.0000  0.0000  0.0000
 4398OM     OM1 4398   2.790   1.430   1.172  0.0000  0.0000  0.0000
 4399OM     OM1 4399   2.555   1.315   1.090  0.0000  0.0000  0.0000
 4400OM     OM1 4400   2.775   1.205   1.035  0.0000  0.0000  0.0000
 4401OM     OM1 4401   1.474   5.927   8.932  0.0000  0.0000  0.0000
 4402OM     OM1 4402   1.465   6.176   9.027  0.0000  0.0000  0.0000
 4403OM     OM1 4403   1.563   6.130   8.794  0.0000  0.0000  0.0000
 4404OM     OM1 4404   7.382   8.676   9.209  0.0000  0.0000  0.0000
 4405OM     OM1 4405   7.465   8.422   9.209  0.0000  0.0000  0.0000
 4406OM     OM1 4406   7.312   8.529   9.016  0.0000  0.0000  0.0000
 4407OM     OM1 4407   9.453   7.876   0.341  0.0000  0.0000  0.0000
 4408OM     OM1 4408   9.480   7.759   0.567  0.0000  0.0000  0.0000
 4409OM     OM1 4409   0.036   7.968   0.497  0.0000  0.0000  0.0000
 4410OM     OM1 4410   7.050   6.014   8.971  0.0000  0.0000  0.0000
 4411OM     OM1 4411   7.142   6.172   9.146  0.0000  0.0000  0.0000
 4412OM     OM1 4412   7.050   5.929   9.220  0.0000  0.0000  0.0000
 4413OM     OM1 4413   6.292   3.645   8.927  0.0000  0.0000  0.0000
 4414OM     OM1 4414   6.515   3.502   8.947  0.0000  0.0000  0.0000
 4415OM     OM1 4415   6.278   3.414   9.047  0.0000  0.0000  0.0000
 4416OM     OM1 4416   6.329   3.424   8.793  0.0000  0.0000  0.0000
 4417OM     OM1 4417   5.818   7.544   1.036  0.0000  0.0000  0.0000
 4418OM     OM1 4418   6.034   7.512   1.157  0.0000  0.0000  0.0000
 4419OM     OM1 4419   5.955   7.814   1.267  0.0000  0.0000  0.0000
 4420OM     OM1 4420   2.963   6.393   0.607  0.0000  0.0000  0.0000
 4421OM     OM1 4421   2.998   6.573   0.426  0.0000  0.0000  0.0000
 4422OM     OM1 4422   3.073   6.322   0.370  0.0000  0.0000  0.0000
 4423OM     OM1 4423   4.464   0.208   0.212  0.0000  0.0000  0.0000
 4424OM     OM1 4424   4.577   0.398   0.343  0.0000  0.0000  0.0000
 4425OM     OM1 4425   0.948   7.416   1.088  0.0000  0.0000  0.0000
 4426OM     OM1 4426   0.811   7.185   1.107  0.0000  0.0000  0.0000
 4427OM     OM1 4427   0.725   7.400   1.213  0.0000  0.0000  0.0000
 4428OM     OM1 4428   3.066   9.382   9.478  0.0000  0.0000  0.0000
 4429OM     OM1 4429   2.984   9.369   9.228  0.0000  0.0000  0.0000
 4430OM     OM1 4430   2.891   9.195   9.388  0.0000  0.0000  0.0000
 4431OM     OM1 4431   3.138   9.174   9.326  0.0000  0.0000  0.0000
 4432OM     OM1 4432   0.193   6.157   8.350  0.0000  0.0000  0.0000
 4433OM     OM1 4433   0.107   6.398   8.374  0.0000  0.0000  0.0000
 4434OM     OM1 4434   9.554   6.182   8.427  0.0000  0.0000  0.0000
 4435OM     OM1 4435   7.671   2.110   8.391  0.0000  0.0000  0.0000
 4436OM     OM1 4436   4.117   2.039   8.689  0.0000  0.0000  0.0000
 4437OM     OM1 4437   3.853   2.035   8.645  0.0000  0.0000  0.0000
 4438OM     OM1 4438   3.958   1.905   8.843  0.0000  0.0000  0.0000
 4439OM     OM1 4439   4.006   1.823   8.598  0.0000  0.0000  0.0000
 4440OM     OM1 4440   5.808   8.517   0.155  0.0000  0.0000  0.0000
 4441OM     OM1 4441   5.634   8.604   9.577  0.0000  0.0000  0.0000
 4442OM     OM1 4442   3.796   8.515   8.832  0.0000  0.0000  0.0000
 4443OM     OM1 4443   4.012   8.363   8.886  0.0000  0.0000  0.0000
 4444OM     OM1 4444   3.969   8.612   8.988  0.0000  0.0000  0.0000
 4445OM     OM1 4445   3.834   8.413   9.067  0.0000  0.0000  0.0000
 4446OM     OM1 4446   4.106   6.100   1.088  0.0000  0.0000  0.0000
 4447OM     OM1 4447   4.081   6.271   0.866  0.0000  0.0000  0.0000
 4448OM     OM1 4448   4.133   6.027   0.847  0.0000  0.0000  0.0000
 4449OM     OM1 4449   3.895   6.099   0.934  0.0000  0.0000  0.0000
 4450OM     OM1 4450   4.154   7.310   1.013  0.0000  0.0000  0.0000
 4451OM     OM1 4451   4.092   7.545   0.937  0.0000  0.0000  0.0000
 4452OM     OM1 4452   4.246   7.507   1.153  0.0000  0.0000  0.0000
 4453OM     OM1 4453   5.412   2.706   1.060  0.0000  0.0000  0.0000
 4454OM     OM1 4454   5.346   2.653   1.307  0.0000  0.0000  0.0000
 4455OM     OM1 4455   5.389   2.900   1.228  0.0000  0.0000  0.0000
 4456OM     OM1 4456   1.935   5.803   0.837  0.0000  0.0000  0.0000
 4457OM     OM1 4457   1.873   6.030   0.953  0.0000  0.0000  0.0000
 4458OM     OM1 4458   1.687   5.862   0.844  0.0000  0.0000  0.0000
 4459OM     OM1 4459   0.314   6.573   9.162  0.0000  0.0000  0.0000
 4460OM     OM1 4460   0.465   6.460   9.338  0.0000  0.0000  0.0000
 4461OM     OM1 4461   0.369   8.793   9.239  0.0000  0.0000  0.0000
 4462OM     OM1 4462   0.423   9.045   9.270  0.0000  0.0000  0.0000
 4463OM     OM1 4463   0.367   8.942   9.036  0.0000  0.0000  0.0000
 4464OM     OM1 4464   6.942   7.856   0.624  0.0000  0.0000  0.0000
 4465OM     OM1 4465   6.716   7.912   0.508  0.0000  0.0000  0.0000
 4466OM     OM1 4466   2.567   9.212   0.264  0.0000  0.0000  0.0000
 4467OM     OM1 4467   2.704   9.215   0.476  0.0000  0.0000  0.0000
 4468OM     OM1 4468   2.676   9.431   0.336  0.0000  0.0000  0.0000
 4469OM     OM1 4469   2.902   8.398   0.856  0.0000  0.0000  0.0000
 4470OM     OM1 4470   3.121   8.266   0.912  0.0000  0.0000  0.0000
 4471OM     OM1 4471   3.140   8.518   0.868  0.0000  0.0000  0.0000
 4472OM     OM1 4472   3.078   8.364   0.668  0.0000  0.0000  0.0000
 4473OM     OM1 4473   5.508   9.441   9.007  0.0000  0.0000  0.0000
 4474OM     OM1 4474   5.625   0.064   8.945  0.0000  0.0000  0.0000
 4475OM     OM1 4475   5.757   9.487   9.067  0.0000  0.0000  0.0000
 4476OM     OM1 4476   7.676   5.137   1.249  0.0000  0.0000  0.0000
 4477OM     OM1 4477   7.781   5.369   1.251  0.0000  0.0000  0.0000
 4478OM     OM1 4478   7.537   5.331   1.348  0.0000  0.0000  0.0000
 4479OM     OM1 4479   5.696   8.589   8.263  0.0000  0.0000  0.0000
 4480OM     OM1 4480   5.336   8.598   8.472  0.0000  0.0000  0.0000
 4481OM     OM1 4481   5.450   8.660   8.247  0.0000  0.0000  0.0000
 4482OM     OM1 4482   3.309   8.036   9.181  0.0000  0.0000  0.0000
 4483OM     OM1 4483   3.281   7.784   9.119  0.0000  0.0000  0.0000
 4484OM     OM1 4484   3.349   7.850   9.368  0.0000  0.0000  0.0000
 4485OM     OM1 4485   3.516   7.883   9.175  0.0000  0.0000  0.0000
 4486OM     OM1 4486   7.426   8.986   8.835  0.0000  0.0000  0.0000
 4487OM     OM1 4487   7.314   9.152   8.660  0.0000  0.0000  0.0000
 4488OM     OM1 4488   7.266   9.156   8.920  0.0000  0.0000  0.0000
 4489OM     OM1 4489   7.168   8.967   8.778  0.0000  0.0000  0.0000
 4490OM     OM1 4490   9.274   4.577   8.792  0.0000  0.0000  0.0000
 4491OM     OM1 4491   9.309   4.402   8.614  0.0000  0.0000  0.0000
 4492OM     OM1 4492   9.167   4.352   8.837  0.0000  0.0000  0.0000
 4493OM     OM1 4493   9.080   4.518   8.634  0.0000  0.0000  0.0000
 4494OM     OM1 4494   4.658   0.340   8.318  0.0000  0.0000  0.0000
 4495OM     OM1 4495   4.651   0.576   8.495  0.0000  0.0000  0.0000
 4496OM     OM1 4496   4.636   0.340   8.577  0.0000  0.0000  0.0000
 4497OM     OM1 4497   4.424   0.342   8.421  0.0000  0.0000  0.0000
 4498OM     OM1 4498   5.815   2.363   0.226  0.0000  0.0000  0.0000
 4499OM     OM1 4499   6.041   2.410   0.356  0.0000  0.0000  0.0000
 4500OM     OM1 4500   6.047   2.285   0.131  0.0000  0.0000  0.0000
 4501OM     OM1 4501   8.095   8.574   1.192  0.0000  0.0000  0.0000
 4502OM     OM1 4502   7.897   8.585   1.001  0.0000  0.0000  0.0000
 4503OM     OM1 4503   8.079   8.407   0.990  0.0000  0.0000  0.0000
 4504OM     OM1 4504   9.528   3.754   0.028  0.0000  0.0000  0.0000
 4505OM     OM1 4505   0.131   3.641   0.154  0.0000  0.0000  0.0000
 4506OM     OM1 4506   9.510   3.653   0.278  0.0000  0.0000  0.0000
 4507OM     OM1 4507   1.917   0.670   9.467  0.0000  0.0000  0.0000
 4508OM     OM1 4508   1.826   0.468   0.006  0.0000  0.0000  0.0000
 4509OM     OM1 4509   5.543   3.935   1.278  0.0000  0.0000  0.0000
 4510OM     OM1 4510   5.334   4.081   1.272  0.0000  0.0000  0.0000
 4511OM     OM1 4511   2.199   5.192   8.348  0.0000  0.0000  0.0000
 4512OM     OM1 4512   2.209   5.430   8.469  0.0000  0.0000  0.0000
 4513OM     OM1 4513   2.008   5.355   8.325  0.0000  0.0000  0.0000
 4514OM     OM1 4514   5.522   8.398   1.253  0.0000  0.0000  0.0000
 4515OM     OM1 4515   0.717   6.658   1.313  0.0000  0.0000  0.0000
 4516OM     OM1 4516   0.959   6.578   1.298  0.0000  0.0000  0.0000
 4517OM     OM1 4517   0.922   6.830   1.316  0.0000  0.0000  0.0000
 4518OM     OM1 4518   0.309   5.894   8.763  0.0000  0.0000  0.0000
 4519OM     OM1 4519   0.316   5.984   8.514  0.0000  0.0000  0.0000
 4520OM     OM1 4520   0.523   5.855   8.631  0.0000  0.0000  0.0000
 4521OM     OM1 4521   0.310   5.731   8.554  0.0000  0.0000  0.0000
 4522OM     OM1 4522   1.190   4.419   9.118  0.0000  0.0000  0.0000
 4523OM     OM1 4523   1.417   4.322   9.215  0.0000  0.0000  0.0000
 4524OM     OM1 4524   9.123   5.867   0.629  0.0000  0.0000  0.0000
 4525OM     OM1 4525   9.112   5.867   0.363  0.0000  0.0000  0.0000
 4526OM     OM1 4526   9.030   9.312   0.443  0.0000  0.0000  0.0000
 4527OM     OM1 4527   8.819   9.160   0.447  0.0000  0.0000  0.0000
 4528OM     OM1 4528   8.817   9.421   0.535  0.0000  0.0000  0.0000
 4529OM     OM1 4529   8.845   9.362   0.287  0.0000  0.0000  0.0000
 4530OM     OM1 4530   9.584   5.189   1.296  0.0000  0.0000  0.0000
 4531OM     OM1 4531   9.344   5.024   8.802  0.0000  0.0000  0.0000
 4532OM     OM1 4532   9.381   4.891   9.017  0.0000  0.0000  0.0000
 4533OM     OM1 4533   9.152   4.857   8.888  0.0000  0.0000  0.0000
 4534OM     OM1 4534   0.705   5.272   1.367  0.0000  0.0000  0.0000
 4535OM     OM1 4535   0.554   5.463   1.263  0.0000  0.0000  0.0000
 4536OM     OM1 4536   4.807   3.525   0.804  0.0000  0.0000  0.0000
 4537OM     OM1 4537   4.769   3.362   1.002  0.0000  0.0000  0.0000
 4538OM     OM1 4538   4.619   3.582   0.975  0.0000  0.0000  0.0000
 4539OM     OM1 4539   6.479   2.540   8.264  0.0000  0.0000  0.0000
 4540OM     OM1 4540   8.584   3.061   0.757  0.0000  0.0000  0.0000
 4541OM     OM1 4541   8.821   3.151   0.765  0.0000  0.0000  0.0000
 4542OM     OM1 4542   8.658   3.222   0.572  0.0000  0.0000  0.0000
 4543OM     OM1 4543   1.548   9.283   0.531  0.0000  0.0000  0.0000
 4544OM     OM1 4544   1.435   9.057   0.589  0.0000  0.0000  0.0000
 4545OM     OM1 4545   1.289   9.270   0.607  0.0000  0.0000  0.0000
 4546OM     OM1 4546   4.154   6.132   9.531  0.0000  0.0000  0.0000
 4547OM     OM1 4547   4.286   6.243   0.115  0.0000  0.0000  0.0000
 4548OM     OM1 4548   4.178   6.388   9.527  0.0000  0.0000  0.0000
 4549OM     OM1 4549   4.020   6.268   0.092  0.0000  0.0000  0.0000
 4550OM     OM1 4550   5.739   6.132   8.586  0.0000  0.0000  0.0000
 4551OM     OM1 4551   5.657   6.069   8.836  0.0000  0.0000  0.0000
 4552OM     OM1 4552   5.526   6.225   8.678  0.0000  0.0000  0.0000
 4553OM     OM1 4553   8.386   5.525   8.222  0.0000  0.0000  0.0000
 4554OM     OM1 4554   8.561   5.775   8.486  0.0000  0.0000  0.0000
 4555OM     OM1 4555   8.552   5.587   8.668  0.0000  0.0000  0.0000
 4556OM     OM1 4556   8.576   5.539   8.406  0.0000  0.0000  0.0000
 4557OM     OM1 4557   0.643   1.212   9.443  0.0000  0.0000  0.0000
 4558OM     OM1 4558   0.535   1.180   9.220  0.0000  0.0000  0.0000
 4559OM     OM1 4559   0.597   0.965   9.352  0.0000  0.0000  0.0000
 4560OM     OM1 4560   6.906   1.506   8.589  0.0000  0.0000  0.0000
 4561OM     OM1 4561   6.611   1.729   8.564  0.0000  0.0000  0.0000
 4562OM     OM1 4562   6.609   1.655   8.816  0.0000  0.0000  0.0000
 4563OM     OM1 4563   0.404   9.161   9.493  0.0000  0.0000  0.0000
 4564OM     OM1 4564   0.652   9.093   9.411  0.0000  0.0000  0.0000
 4565OM     OM1 4565   7.119   4.243   8.482  0.0000  0.0000  0.0000
 4566OM     OM1 4566   7.112   4.338   8.721  0.0000  0.0000  0.0000
 4567OM     OM1 4567   6.650   7.947   9.362  0.0000  0.0000  0.0000
 4568OM     OM1 4568   7.680   9.218   9.483  0.0000  0.0000  0.0000
 4569OM     OM1 4569   7.544   9.190   0.099  0.0000  0.0000  0.0000
 4570OM     OM1 4570   7.632   8.982   9.596  0.0000  0.0000  0.0000
 4571OM     OM1 4571   7.448   9.103   9.459  0.0000  0.0000  0.0000
 4572OM     OM1 4572   7.722   2.797   0.067  0.0000  0.0000  0.0000
 4573OM     OM1 4573   7.941   2.905   9.568  0.0000  0.0000  0.0000
 4574OM     OM1 4574   7.714   3.041   9.596  0.0000  0.0000  0.0000
 4575OM     OM1 4575   5.864   8.063   1.111  0.0000  0.0000  0.0000
 4576OM     OM1 4576   5.680   8.195   1.222  0.0000  0.0000  0.0000
 4577OM     OM1 4577   5.790   7.992   1.347  0.0000  0.0000  0.0000
 4578OM     OM1 4578   5.624   7.950   1.154  0.0000  0.0000  0.0000
 4579OM     OM1 4579   0.849   3.110   8.678  0.0000  0.0000  0.0000
 4580OM     OM1 4580   0.680   3.199   8.493  0.0000  0.0000  0.0000
 4581OM     OM1 4581   0.599   3.032   8.670  0.0000  0.0000  0.0000
 4582OM     OM1 4582   0.654   3.281   8.735  0.0000  0.0000  0.0000
 4583OM     OM1 4583   3.335   2.427   0.871  0.0000  0.0000  0.0000
 4584OM     OM1 4584   3.219   2.300   1.058  0.0000  0.0000  0.0000
 4585OM     OM1 4585   8.221   0.637   0.806  0.0000  0.0000  0.0000
 4586OM     OM1 4586   0.086   3.145   1.236  0.0000  0.0000  0.0000
 4587OM     OM1 4587   9.552   3.362   1.180  0.0000  0.0000  0.0000
 4588OM     OM1 4588   9.489   3.129   1.075  0.0000  0.0000  0.0000
 4589OM     OM1 4589   4.324   0.724   1.189  0.0000  0.0000  0.0000
 4590OM     OM1 4590   4.213   0.735   0.956  0.0000  0.0000  0.0000
 4591OM     OM1 4591   4.253   0.510   1.077  0.0000  0.0000  0.0000
 4592OM     OM1 4592   4.068   0.680   1.171  0.0000  0.0000  0.0000
 4593OM     OM1 4593   1.507   2.943   0.736  0.0000  0.0000  0.0000
 4594OM     OM1 4594   1.374   3.412   0.591  0.0000  0.0000  0.0000
 4595OM     OM1 4595   1.477   3.200   0.701  0.0000  0.0000  0.0000
 4596OM     OM1 4596   3.824   2.655   9.562  0.0000  0.0000  0.0000
 4597OM     OM1 4597   3.959   2.707   0.189  0.0000  0.0000  0.0000
 4598OM     OM1 4598   3.759   2.553   0.191  0.0000  0.0000  0.0000
 4599OM     OM1 4599   5.804   8.231   0.813  0.0000  0.0000  0.0000
 4600OM     OM1 4600   5.913   8.047   0.652  0.0000  0.0000  0.0000
 4601OM     OM1 4601   6.001   8.092   0.897  0.0000  0.0000  0.0000
 4602OM     OM1 4602   5.780   7.962   0.852  0.0000  0.0000  0.0000
 4603OM     OM1 4603   0.524   0.424   8.274  0.0000  0.0000  0.0000
 4604OM     OM1 4604   0.480   0.166   8.257  0.0000  0.0000  0.0000
 4605OM     OM1 4605   3.987   8.803   8.767  0.0000  0.0000  0.0000
 4606OM     OM1 4606   4.062   9.041   8.841  0.0000  0.0000  0.0000
 4607OM     OM1 4607   0.953   4.598   8.369  0.0000  0.0000  0.0000
 4608OM     OM1 4608   1.051   4.388   8.469  0.0000  0.0000  0.0000
 4609OM     OM1 4609   4.375   2.408   0.879  0.0000  0.0000  0.0000
 4610OM     OM1 4610   4.639   2.470   0.876  0.0000  0.0000  0.0000
 4611OM     OM1 4611   4.483   2.521   0.673  0.0000  0.0000  0.0000
 4612OM     OM1 4612   4.546   2.271   0.737  0.0000  0.0000  0.0000
 4613OM     OM1 4613   1.967   6.616   0.054  0.0000  0.0000  0.0000
 4614OM     OM1 4614   2.179   6.616   9.483  0.0000  0.0000  0.0000
 4615OM     OM1 4615   2.160   6.447   0.066  0.0000  0.0000  0.0000
 4616OM     OM1 4616   2.192   6.705   0.126  0.0000  0.0000  0.0000
 4617OM     OM1 4617   0.368   3.645   8.513  0.0000  0.0000  0.0000
 4618OM     OM1 4618   0.266   3.620   8.759  0.0000  0.0000  0.0000
 4619OM     OM1 4619   0.455   3.453   8.685  0.0000  0.0000  0.0000
 4620OM     OM1 4620   7.262   1.063   0.500  0.0000  0.0000  0.0000
 4621OM     OM1 4621   7.310   0.798   0.471  0.0000  0.0000  0.0000
 4622OM     OM1 4622   7.461   0.942   0.621  0.0000  0.0000  0.0000
 4623OM     OM1 4623   6.130   7.302   1.283  0.0000  0.0000  0.0000
 4624OM     OM1 4624   6.266   7.513   1.239  0.0000  0.0000  0.0000
 4625OM     OM1 4625   6.932   7.704   9.024  0.0000  0.0000  0.0000
 4626OM     OM1 4626   7.109   7.773   9.378  0.0000  0.0000  0.0000
 4627OM     OM1 4627   7.324   7.881   9.298  0.0000  0.0000  0.0000
 4628OM     OM1 4628   2.970   6.429   0.867  0.0000  0.0000  0.0000
 4629OM     OM1 4629   2.758   6.325   0.755  0.0000  0.0000  0.0000
 4630OM     OM1 4630   3.518   1.073   0.748  0.0000  0.0000  0.0000
 4631OM     OM1 4631   3.739   1.160   0.868  0.0000  0.0000  0.0000
 4632OM     OM1 4632   3.549   1.325   0.818  0.0000  0.0000  0.0000
 4633OM     OM1 4633   3.702   1.220   0.625  0.0000  0.0000  0.0000
 4634OM     OM1 4634   8.321   6.014   0.557  0.0000  0.0000  0.0000
 4635OM     OM1 4635   8.147   5.847   0.477  0.0000  0.0000  0.0000
 4636OM     OM1 4636   2.247   7.187   8.404  0.0000  0.0000  0.0000
 4637OM     OM1 4637   2.441   7.009   8.426  0.0000  0.0000  0.0000
 4638OM     OM1 4638   2.461   7.247   8.538  0.0000  0.0000  0.0000
 4639OM     OM1 4639   5.996   3.541   0.068  0.0000  0.0000  0.0000
 4640OM     OM1 4640   6.000   3.667   0.302  0.0000  0.0000  0.0000
 4641OM     OM1 4641   1.001   4.875   9.273  0.0000  0.0000  0.0000
 4642OM     OM1 4642   1.019   4.851   9.009  0.0000  0.0000  0.0000
 4643OM     OM1 4643   1.052   4.647   9.154  0.0000  0.0000  0.0000
 4644OM     OM1 4644   0.815   4.750   9.145  0.0000  0.0000  0.0000
 4645OM     OM1 4645   3.143   1.372   8.572  0.0000  0.0000  0.0000
 4646OM     OM1 4646   2.972   1.565   8.613  0.0000  0.0000  0.0000
 4647OM     OM1 4647   3.231   1.600   8.663  0.0000  0.0000  0.0000
 4648OM     OM1 4648   3.881   4.301   1.208  0.0000  0.0000  0.0000
 4649OM     OM1 4649   3.975   4.505   1.049  0.0000  0.0000  0.0000
 4650OM     OM1 4650   3.886   4.540   1.289  0.0000  0.0000  0.0000
 4651OM     OM1 4651   4.961   6.483   0.609  0.0000  0.0000  0.0000
 4652OM     OM1 4652   5.026   6.730   0.659  0.0000  0.0000  0.0000
 4653OM     OM1 4653   4.936   6.665   0.415  0.0000  0.0000  0.0000
 4654OM     OM1 4654   6.454   1.994   0.500  0.0000  0.0000  0.0000
 4655OM     OM1 4655   6.521   1.796   0.337  0.0000  0.0000  0.0000
 4656OM     OM1 4656   6.515   2.038   0.251  0.0000  0.0000  0.0000
 4657OM     OM1 4657   6.290   1.917   0.313  0.0000  0.0000  0.0000
 4658OM     OM1 4658   1.299   1.301   8.742  0.0000  0.0000  0.0000
 4659OM     OM1 4659   1.043   1.279   8.760  0.0000  0.0000  0.0000
 4660OM     OM1 4660   2.627   2.240   0.614  0.0000  0.0000  0.0000
 4661OM     OM1 4661   2.727   2.313   0.830  0.0000  0.0000  0.0000
 4662OM     OM1 4662   2.476   2.392   0.777  0.0000  0.0000  0.0000
 4663OM     OM1 4663   2.676   2.501   0.655  0.0000  0.0000  0.0000
 4664OM     OM1 4664   9.523   2.208   0.664  0.0000  0.0000  0.0000
 4665OM     OM1 4665   0.039   2.431   0.713  0.0000  0.0000  0.0000
 4666OM     OM1 4666   9.409   2.402   0.814  0.0000  0.0000  0.0000
 4667OM     OM1 4667   7.463   8.080   8.882  0.0000  0.0000  0.0000
 4668OM     OM1 4668   7.524   8.089   8.613  0.0000  0.0000  0.0000
 4669OM     OM1 4669   7.423   7.880   8.733  0.0000  0.0000  0.0000
 4670OM     OM1 4670   7.270   8.086   8.700  0.0000  0.0000  0.0000
 4671OM     OM1 4671   3.314   6.233   0.346  0.0000  0.0000  0.0000
 4672OM     OM1 4672   3.123   6.061   0.359  0.0000  0.0000  0.0000
 4673OM     OM1 4673   3.162   6.210   0.143  0.0000  0.0000  0.0000
 4674OM     OM1 4674   3.630   8.360   8.401  0.0000  0.0000  0.0000
 4675OM     OM1 4675   3.487   8.145   8.461  0.0000  0.0000  0.0000
 4676OM     OM1 4676   3.368   8.561   8.576  0.0000  0.0000  0.0000
 4677OM     OM1 4677   3.466   8.340   8.621  0.0000  0.0000  0.0000
 4678OM     OM1 4678   8.763   3.549   8.792  0.0000  0.0000  0.0000
 4679OM     OM1 4679   8.589   3.735   8.731  0.0000  0.0000  0.0000
 4680OM     OM1 4680   8.792   3.786   8.891  0.0000  0.0000  0.0000
 4681OM     OM1 4681   8.588   3.644   8.973  0.0000  0.0000  0.0000
 4682OM     OM1 4682   9.602   1.267   9.269  0.0000  0.0000  0.0000
 4683OM     OM1 4683   0.072   1.471   9.419  0.0000  0.0000  0.0000
 4684OM     OM1 4684   1.370   0.273   9.290  0.0000  0.0000  0.0000
 4685OM     OM1 4685   1.327   0.038   9.388  0.0000  0.0000  0.0000
 4686OM     OM1 4686   1.127   0.165   9.279  0.0000  0.0000  0.0000
 4687OM     OM1 4687   1.317   0.067   9.129  0.0000  0.0000  0.0000
 4688OM     OM1 4688   4.709   5.406   0.993  0.0000  0.0000  0.0000
 4689OM     OM1 4689   4.665   5.658   1.036  0.0000  0.0000  0.0000
 4690OM     OM1 4690   4.736   5.576   0.801  0.0000  0.0000  0.0000
 4691OM     OM1 4691   2.510   6.998   1.333  0.0000  0.0000  0.0000
 4692OM     OM1 4692   2.300   6.946   1.468  0.0000  0.0000  0.0000
 4693OM     OM1 4693   2.291   7.141   1.302  0.0000  0.0000  0.0000
 4694OM     OM1 4694   3.941   4.712   0.879  0.0000  0.0000  0.0000
 4695OM     OM1 4695   4.162   4.685   1.007  0.0000  0.0000  0.0000
 4696OM     OM1 4696   9.281   7.051   0.077  0.0000  0.0000  0.0000
 4697OM     OM1 4697   9.442   6.956   9.518  0.0000  0.0000  0.0000
 4698OM     OM1 4698   8.783   8.930   0.732  0.0000  0.0000  0.0000
 4699OM     OM1 4699   8.932   9.079   0.880  0.0000  0.0000  0.0000
 4700OM     OM1 4700   3.906   4.045   1.219  0.0000  0.0000  0.0000
 4701OM     OM1 4701   3.711   4.162   1.351  0.0000  0.0000  0.0000
 4702OM     OM1 4702   1.814   2.978   0.168  0.0000  0.0000  0.0000
 4703OM     OM1 4703   1.777   2.771   0.309  0.0000  0.0000  0.0000
 4704OM     OM1 4704   1.838   2.740   0.050  0.0000  0.0000  0.0000
 4705OM     OM1 4705   1.772   7.400   8.725  0.0000  0.0000  0.0000
 4706OM     OM1 4706   2.019   7.372   8.639  0.0000  0.0000  0.0000
 4707OM     OM1 4707   1.841   7.453   8.476  0.0000  0.0000  0.0000
 4708OM     OM1 4708   6.685   2.833   8.644  0.0000  0.0000  0.0000
 4709OM     OM1 4709   6.715   2.970   8.415  0.0000  0.0000  0.0000
 4710OM     OM1 4710   6.680   3.085   8.643  0.0000  0.0000  0.0000
 4711OM     OM1 4711   5.048   2.830   0.873  0.0000  0.0000  0.0000
 4712OM     OM1 4712   5.315   2.863   0.884  0.0000  0.0000  0.0000
 4713OM     OM1 4713   5.193   2.931   0.673  0.0000  0.0000  0.0000
 4714OM     OM1 4714   5.157   3.073   0.880  0.0000  0.0000  0.0000
 4715OM     OM1 4715   1.474   0.037   8.924  0.0000  0.0000  0.0000
 4716OM     OM1 4716   1.288   0.192   8.828  0.0000  0.0000  0.0000
 4717OM     OM1 4717   5.156   8.989   9.476  0.0000  0.0000  0.0000
 4718OM     OM1 4718   5.298   8.835   9.320  0.0000  0.0000  0.0000
 4719OM     OM1 4719   5.071   8.919   9.237  0.0000  0.0000  0.0000
 4720OM     OM1 4720   5.272   9.089   9.264  0.0000  0.0000  0.0000
 4721OM     OM1 4721   7.975   4.720   0.211  0.0000  0.0000  0.0000
 4722OM     OM1 4722   8.024   4.834   0.432  0.0000  0.0000  0.0000
 4723OM     OM1 4723   8.055   4.977   0.220  0.0000  0.0000  0.0000
 4724OM     OM1 4724   8.224   4.787   0.259  0.0000  0.0000  0.0000
 4725OM     OM1 4725   1.247   8.446   9.390  0.0000  0.0000  0.0000
 4726OM     OM1 4726   1.027   8.406   9.523  0.0000  0.0000  0.0000
 4727OM     OM1 4727   1.010   8.434   9.264  0.0000  0.0000  0.0000
 4728OM     OM1 4728   1.118   8.221   9.368  0.0000  0.0000  0.0000
 4729OM     OM1 4729   0.894   1.177   9.378  0.0000  0.0000  0.0000
 4730OM     OM1 4730   0.832   1.417   9.453  0.0000  0.0000  0.0000
 4731OM     OM1 4731   0.820   1.229   0.020  0.0000  0.0000  0.0000
 4732OM     OM1 4732   6.137   4.230   1.005  0.0000  0.0000  0.0000
 4733OM     OM1 4733   6.134   4.208   1.255  0.0000  0.0000  0.0000
 4734OM     OM1 4734   5.907   4.283   1.128  0.0000  0.0000  0.0000
 4735OM     OM1 4735   5.977   4.046   1.103  0.0000  0.0000  0.0000
 4736OM     OM1 4736   5.929   5.023   1.204  0.0000  0.0000  0.0000
 4737OM     OM1 4737   5.910   4.823   1.369  0.0000  0.0000  0.0000
 4738OM     OM1 4738   5.527   5.776   1.064  0.0000  0.0000  0.0000
 4739OM     OM1 4739   5.464   5.890   0.812  0.0000  0.0000  0.0000
 4740OM     OM1 4740   5.377   5.664   0.898  0.0000  0.0000  0.0000
 4741OM     OM1 4741   5.288   5.889   0.998  0.0000  0.0000  0.0000
 4742OM     OM1 4742   6.426   3.961   9.588  0.0000  0.0000  0.0000
 4743OM     OM1 4743   6.543   4.154   9.457  0.0000  0.0000  0.0000
 4744OM     OM1 4744   6.527   3.898   9.365  0.0000  0.0000  0.0000
 4745OM     OM1 4745   8.733   0.340   0.081  0.0000  0.0000  0.0000
 4746OM     OM1 4746   8.688   0.256   9.431  0.0000  0.0000  0.0000
 4747OM     OM1 4747   3.049   0.552   9.095  0.0000  0.0000  0.0000
 4748OM     OM1 4748   2.960   0.795   9.149  0.0000  0.0000  0.0000
 4749OM     OM1 4749   3.198   0.749   9.055  0.0000  0.0000  0.0000
 4750OM     OM1 4750   0.062   6.626   9.089  0.0000  0.0000  0.0000
 4751OM     OM1 4751   9.427   6.716   8.996  0.0000  0.0000  0.0000
 4752OM     OM1 4752   8.133   5.214   0.133  0.0000  0.0000  0.0000
 4753OM     OM1 4753   8.140   5.157   0.386  0.0000  0.0000  0.0000
 4754OM     OM1 4754   7.910   5.192   0.260  0.0000  0.0000  0.0000
 4755OM     OM1 4755   7.772   5.363   0.116  0.0000  0.0000  0.0000
 4756OM     OM1 4756   6.716   6.384   8.942  0.0000  0.0000  0.0000
 4757OM     OM1 4757   6.860   6.183   8.876  0.0000  0.0000  0.0000
 4758OM     OM1 4758   6.642   6.244   8.728  0.0000  0.0000  0.0000
 4759OM     OM1 4759   6.233   6.300   0.880  0.0000  0.0000  0.0000
 4760OM     OM1 4760   6.038   6.116   0.958  0.0000  0.0000  0.0000
 4761OM     OM1 4761   6.011   6.260   0.757  0.0000  0.0000  0.0000
 4762OM     OM1 4762   5.350   2.781   0.525  0.0000  0.0000  0.0000
 4763OM     OM1 4763   5.121   2.698   0.622  0.0000  0.0000  0.0000
 4764OM     OM1 4764   5.130   2.879   0.424  0.0000  0.0000  0.0000
 4765OM     OM1 4765   7.501   1.066   0.008  0.0000  0.0000  0.0000
 4766OM     OM1 4766   4.272   9.182   8.807  0.0000  0.0000  0.0000
 4767OM     OM1 4767   4.092   9.169   8.611  0.0000  0.0000  0.0000
 4768OM     OM1 4768   4.050   9.306   8.818  0.0000  0.0000  0.0000
 4769OM     OM1 4769   0.526   5.199   9.423  0.0000  0.0000  0.0000
 4770OM     OM1 4770   0.501   5.385   9.600  0.0000  0.0000  0.0000
 4771OM     OM1 4771   6.685   9.579   8.271  0.0000  0.0000  0.0000
 4772OM     OM1 4772   6.879   9.441   8.374  0.0000  0.0000  0.0000
 4773OM     OM1 4773   5.698   1.524   1.159  0.0000  0.0000  0.0000
 4774OM     OM1 4774   5.861   1.491   0.957  0.0000  0.0000  0.0000
 4775OM     OM1 4775   5.812   1.298   1.123  0.0000  0.0000  0.0000
 4776OM     OM1 4776   5.953   1.514   1.211  0.0000  0.0000  0.0000
 4777OM     OM1 4777   6.791   0.168   1.199  0.0000  0.0000  0.0000
 4778OM     OM1 4778   6.790   0.002   1.007  0.0000  0.0000  0.0000
 4779OM     OM1 4779   6.668   9.536   1.211  0.0000  0.0000  0.0000
 4780OM     OM1 4780   6.571   0.123   1.044  0.0000  0.0000  0.0000
 4781OM     OM1 4781   4.290   2.245   9.203  0.0000  0.0000  0.0000
 4782OM     OM1 4782   4.353   2.189   8.953  0.0000  0.0000  0.0000
 4783OM     OM1 4783   4.474   2.075   9.271  0.0000  0.0000  0.0000
 4784OM     OM1 4784   6.606   5.284   1.075  0.0000  0.0000  0.0000
 4785OM     OM1 4785   6.655   5.046   0.995  0.0000  0.0000  0.0000
 4786OM     OM1 4786   1.148   6.129   9.601  0.0000  0.0000  0.0000
 4787OM     OM1 4787   1.413   6.166   9.535  0.0000  0.0000  0.0000
 4788OM     OM1 4788   1.328   6.022   0.145  0.0000  0.0000  0.0000
 4789OM     OM1 4789   8.043   7.823   8.327  0.0000  0.0000  0.0000
 4790OM     OM1 4790   3.109   8.293   1.217  0.0000  0.0000  0.0000
 4791OM     OM1 4791   3.262   8.520   1.225  0.0000  0.0000  0.0000
 4792OM     OM1 4792   3.343   8.298   1.339  0.0000  0.0000  0.0000
 4793OM     OM1 4793   5.376   9.107   0.732  0.0000  0.0000  0.0000
 4794OM     OM1 4794   5.150   9.098   0.621  0.0000  0.0000  0.0000
 4795OM     OM1 4795   1.334   1.495   1.387  0.0000  0.0000  0.0000
 4796OM     OM1 4796   8.743   9.137   9.520  0.0000  0.0000  0.0000
 4797OM     OM1 4797   8.704   9.147   9.269  0.0000  0.0000  0.0000
 4798OM     OM1 4798   8.554   8.999   9.424  0.0000  0.0000  0.0000
 4799OM     OM1 4799   8.816   8.940   9.343  0.0000  0.0000  0.0000
 4800OM     OM1 4800   9.044   1.442   1.190  0.0000  0.0000  0.0000
 4801OM     OM1 4801   8.781   0.017   9.400  0.0000  0.0000  0.0000
 4802OM     OM1 4802   8.535   0.045   9.367  0.0000  0.0000  0.0000
 4803OM     OM1 4803   8.670   9.385   9.469  0.0000  0.0000  0.0000
 4804OM     OM1 4804   1.720   4.075   0.637  0.0000  0.0000  0.0000
 4805OM     OM1 4805   1.608   3.848   0.582  0.0000  0.0000  0.0000
 4806OM     OM1 4806   1.683   3.962   0.162  0.0000  0.0000  0.0000
 4807OM     OM1 4807   3.132   2.498   8.562  0.0000  0.0000  0.0000
 4808OM     OM1 4808   3.162   2.240   8.518  0.0000  0.0000  0.0000
 4809OM     OM1 4809   2.951   2.360   8.434  0.0000  0.0000  0.0000
 4810OM     OM1 4810   5.872   4.418   8.326  0.0000  0.0000  0.0000
 4811OM     OM1 4811   6.068   4.563   8.392  0.0000  0.0000  0.0000
 4812OM     OM1 4812   5.978   4.206   8.415  0.0000  0.0000  0.0000
 4813OM     OM1 4813   8.969   2.882   8.443  0.0000  0.0000  0.0000
 4814OM     OM1 4814   9.043   2.680   8.299  0.0000  0.0000  0.0000
 4815OM     OM1 4815   4.606   5.682   8.295  0.0000  0.0000  0.0000
 4816OM     OM1 4816   4.848   5.580   8.291  0.0000  0.0000  0.0000
 4817OM     OM1 4817   5.736   5.456   8.297  0.0000  0.0000  0.0000
 4818OM     OM1 4818   6.220   4.272   0.036  0.0000  0.0000  0.0000
 4819OM     OM1 4819   6.096   4.045   0.065  0.0000  0.0000  0.0000
 4820OM     OM1 4820   6.044   4.234   0.219  0.0000  0.0000  0.0000
 4821OM     OM1 4821   0.534   3.938   0.512  0.0000  0.0000  0.0000
 4822OM     OM1 4822   0.290   3.879   0.443  0.0000  0.0000  0.0000
 4823OM     OM1 4823   0.498   3.814   0.291  0.0000  0.0000  0.0000
 4824OM     OM1 4824   0.452   3.687   0.512  0.0000  0.0000  0.0000
 4825OM     OM1 4825   4.256   0.186   1.178  0.0000  0.0000  0.0000
 4826OM     OM1 4826   4.075   0.022   1.227  0.0000  0.0000  0.0000
 4827OM     OM1 4827   4.025   0.221   1.057  0.0000  0.0000  0.0000
 4828OM     OM1 4828   6.117   8.175   9.059  0.0000  0.0000  0.0000
 4829OM     OM1 4829   6.161   8.261   8.822  0.0000  0.0000  0.0000
 4830OM     OM1 4830   6.027   8.035   8.859  0.0000  0.0000  0.0000
 4831OM     OM1 4831   5.806   3.242   8.954  0.0000  0.0000  0.0000
 4832OM     OM1 4832   6.060   3.275   8.987  0.0000  0.0000  0.0000
 4833OM     OM1 4833   5.962   3.238   8.745  0.0000  0.0000  0.0000
 4834OM     OM1 4834   5.954   3.031   8.887  0.0000  0.0000  0.0000
 4835OM     OM1 4835   3.543   6.942   0.084  0.0000  0.0000  0.0000
 4836OM     OM1 4836   3.315   6.894   0.195  0.0000  0.0000  0.0000
 4837OM     OM1 4837   3.363   7.123   0.050  0.0000  0.0000  0.0000
 4838OM     OM1 4838   7.975   3.267   8.904  0.0000  0.0000  0.0000
 4839OM     OM1 4839   7.735   3.378   8.865  0.0000  0.0000  0.0000
 4840OM     OM1 4840   7.841   3.221   8.681  0.0000  0.0000  0.0000
 4841OM     OM1 4841   5.787   8.463   0.686  0.0000  0.0000  0.0000
 4842OM     OM1 4842   5.597   8.457   0.509  0.0000  0.0000  0.0000
 4843OM     OM1 4843   5.838   8.461   0.418  0.0000  0.0000  0.0000
 4844OM     OM1 4844   5.748   8.675   0.525  0.0000  0.0000  0.0000
 4845OM     OM1 4845   8.337   1.946   0.239  0.0000  0.0000  0.0000
 4846OM     OM1 4846   8.556   1.857   0.110  0.0000  0.0000  0.0000
 4847OM     OM1 4847   8.397   2.036   0.000  0.0000  0.0000  0.0000
 4848OM     OM1 4848   5.606   2.230   8.444  0.0000  0.0000  0.0000
 4849OM     OM1 4849   5.822   2.315   8.352  0.0000  0.0000  0.0000
 4850OM     OM1 4850   8.621   2.822   9.586  0.0000  0.0000  0.0000
 4851OM     OM1 4851   8.553   2.583   9.506  0.0000  0.0000  0.0000
 4852OM     OM1 4852   8.509   2.787   9.358  0.0000  0.0000  0.0000
 4853OM     OM1 4853   3.907   2.278   8.585  0.0000  0.0000  0.0000
 4854OM     OM1 4854   4.058   2.433   8.439  0.0000  0.0000  0.0000
 4855OM     OM1 4855   3.935   2.524   8.646  0.0000  0.0000  0.0000
 4856OM     OM1 4856   2.874   5.659   0.788  0.0000  0.0000  0.0000
 4857OM     OM1 4857   2.820   5.713   0.539  0.0000  0.0000  0.0000
 4858OM     OM1 4858   1.495   3.341   0.219  0.0000  0.0000  0.0000
 4859OM     OM1 4859   1.423   3.190   0.414  0.0000  0.0000  0.0000
 4860OM     OM1 4860   1.702   3.610   0.544  0.0000  0.0000  0.0000
 4861OM     OM1 4861   7.216   2.306   8.298  0.0000  0.0000  0.0000
 4862OM     OM1 4862   7.458   2.226   8.318  0.0000  0.0000  0.0000
 4863OM     OM1 4863   2.366   2.746   8.842  0.0000  0.0000  0.0000
 4864OM     OM1 4864   2.478   2.953   8.946  0.0000  0.0000  0.0000
 4865OM     OM1 4865   2.571   2.850   8.723  0.0000  0.0000  0.0000
 4866OM     OM1 4866   2.340   2.981   8.727  0.0000  0.0000  0.0000
 4867OM     OM1 4867   6.684   5.538   0.001  0.0000  0.0000  0.0000
 4868OM     OM1 4868   6.550   5.758   9.543  0.0000  0.0000  0.0000
 4869OM     OM1 4869   6.599   5.704   0.185  0.0000  0.0000  0.0000
 4870OM     OM1 4870   6.917   0.827   1.361  0.0000  0.0000  0.0000
 4871OM     OM1 4871   6.892   1.084   1.297  0.0000  0.0000  0.0000
 4872OM     OM1 4872   6.362   0.521   9.404  0.0000  0.0000  0.0000
 4873OM     OM1 4873   0.079   1.613   8.902  0.0000  0.0000  0.0000
 4874OM     OM1 4874   0.113   1.839   9.037  0.0000  0.0000  0.0000
 4875OM     OM1 4875   0.042   1.830   8.783  0.0000  0.0000  0.0000
 4876OM     OM1 4876   5.164   4.615   9.354  0.0000  0.0000  0.0000
 4877OM     OM1 4877   5.428   4.651   9.340  0.0000  0.0000  0.0000
 4878OM     OM1 4878   5.303   4.503   9.169  0.0000  0.0000  0.0000
 4879OM     OM1 4879   6.591   8.104   1.186  0.0000  0.0000  0.0000
 4880OM     OM1 4880   5.176   2.526   8.566  0.0000  0.0000  0.0000
 4881OM     OM1 4881   4.971   2.449   8.708  0.0000  0.0000  0.0000
 4882OM     OM1 4882   5.181   2.493   8.839  0.0000  0.0000  0.0000
 4883OM     OM1 4883   7.905   4.659   0.583  0.0000  0.0000  0.0000
 4884OM     OM1 4884   8.075   4.836   0.679  0.0000  0.0000  0.0000
 4885OM     OM1 4885   7.830   4.906   0.588  0.0000  0.0000  0.0000
 4886OM     OM1 4886   8.347   4.798   1.296  0.0000  0.0000  0.0000
 4887OM     OM1 4887   3.007   5.955   0.917  0.0000  0.0000  0.0000
 4888OM     OM1 4888   3.236   5.875   1.027  0.0000  0.0000  0.0000
 4889OM     OM1 4889   3.108   5.721   0.872  0.0000  0.0000  0.0000
 4890OM     OM1 4890   3.225   5.940   0.775  0.0000  0.0000  0.0000
 4891OM     OM1 4891   1.050   0.495   9.111  0.0000  0.0000  0.0000
 4892OM     OM1 4892   1.068   0.288   8.947  0.0000  0.0000  0.0000
 4893OM     OM1 4893   0.922   0.270   9.161  0.0000  0.0000  0.0000
 4894OM     OM1 4894   0.964   1.869   8.305  0.0000  0.0000  0.0000
 4895OM     OM1 4895   3.669   7.861   8.443  0.0000  0.0000  0.0000
 4896OM     OM1 4896   3.691   7.665   8.287  0.0000  0.0000  0.0000
 4897OM     OM1 4897   2.884   3.298   8.904  0.0000  0.0000  0.0000
 4898OM     OM1 4898   2.924   3.479   9.083  0.0000  0.0000  0.0000
 4899OM     OM1 4899   2.677   6.178   8.698  0.0000  0.0000  0.0000
 4900OM     OM1 4900   2.559   6.238   8.475  0.0000  0.0000  0.0000
 4901OM     OM1 4901   2.525   6.495   8.489  0.0000  0.0000  0.0000
 4902OM     OM1 4902   2.803   9.033   9.197  0.0000  0.0000  0.0000
 4903OM     OM1 4903   2.804   8.843   9.002  0.0000  0.0000  0.0000
 4904OM     OM1 4904   2.985   9.021   9.007  0.0000  0.0000  0.0000
 4905OM     OM1 4905   2.734   9.090   8.953  0.0000  0.0000  0.0000
 4906OM     OM1 4906   0.205   0.508   9.395  0.0000  0.0000  0.0000
 4907OM     OM1 4907   0.031   0.675   9.281  0.0000  0.0000  0.0000
 4908OM     OM1 4908   0.148   0.729   9.507  0.0000  0.0000  0.0000
 4909OM     OM1 4909   0.286   0.725   9.283  0.0000  0.0000  0.0000
 4910OM     OM1 4910   6.023   3.581   9.389  0.0000  0.0000  0.0000
 4911OM     OM1 4911   6.061   3.763   9.206  0.0000  0.0000  0.0000
 4912OM     OM1 4912   5.834   3.624   9.227  0.0000  0.0000  0.0000
 4913OM     OM1 4913   6.052   3.505   9.134  0.0000  0.0000  0.0000
 4914OM     OM1 4914   7.609   3.283   9.564  0.0000  0.0000  0.0000
 4915OM     OM1 4915   7.679   3.545   9.580  0.0000  0.0000  0.0000
 4916OM     OM1 4916   7.751   3.363   0.150  0.0000  0.0000  0.0000
 4917OM     OM1 4917   7.848   3.361   9.513  0.0000  0.0000  0.0000
 4918OM     OM1 4918   5.680   2.151   9.520  0.0000  0.0000  0.0000
 4919OM     OM1 4919   5.824   1.962   9.416  0.0000  0.0000  0.0000
 4920OM     OM1 4920   5.729   1.950   0.062  0.0000  0.0000  0.0000
 4921OM     OM1 4921   5.930   2.107   9.599  0.0000  0.0000  0.0000
 4922OM     OM1 4922   8.828   2.405   1.311  0.0000  0.0000  0.0000
 4923OM     OM1 4923   1.376   2.900   9.187  0.0000  0.0000  0.0000
 4924OM     OM1 4924   1.313   2.706   9.012  0.0000  0.0000  0.0000
 4925OM     OM1 4925   1.181   2.933   9.023  0.0000  0.0000  0.0000
 4926OM     OM1 4926   1.627   5.647   0.693  0.0000  0.0000  0.0000
 4927OM     OM1 4927   1.454   5.749   0.865  0.0000  0.0000  0.0000
 4928OM     OM1 4928   1.671   5.631   0.954  0.0000  0.0000  0.0000
 4929OM     OM1 4929   0.581   3.592   8.370  0.0000  0.0000  0.0000
 4930OM     OM1 4930   0.345   3.543   8.285  0.0000  0.0000  0.0000
 4931OM     OM1 4931   7.625   6.157   9.205  0.0000  0.0000  0.0000
 4932OM     OM1 4932   5.058   1.096   1.187  0.0000  0.0000  0.0000
 4933OM     OM1 4933   1.136   8.642   0.903  0.0000  0.0000  0.0000
 4934OM     OM1 4934   1.155   8.399   0.794  0.0000  0.0000  0.0000
 4935OM     OM1 4935   1.318   8.605   0.721  0.0000  0.0000  0.0000
 4936OM     OM1 4936   1.070   8.589   0.655  0.0000  0.0000  0.0000
 4937OM     OM1 4937   0.713   4.928   8.373  0.0000  0.0000  0.0000
 4938OM     OM1 4938   1.148   5.105   8.436  0.0000  0.0000  0.0000
 4939OM     OM1 4939   0.888   5.127   8.400  0.0000  0.0000  0.0000
 4940OM     OM1 4940   5.323   0.491   8.970  0.0000  0.0000  0.0000
 4941OM     OM1 4941   5.459   0.578   9.253  0.0000  0.0000  0.0000
 4942OM     OM1 4942   5.207   0.532   9.193  0.0000  0.0000  0.0000
 4943OM     OM1 4943   5.309   0.763   9.147  0.0000  0.0000  0.0000
 4944OM     OM1 4944   1.079   6.598   9.152  0.0000  0.0000  0.0000
 4945OM     OM1 4945   1.017   6.353   9.211  0.0000  0.0000  0.0000
 4946OM     OM1 4946   0.825   6.520   9.176  0.0000  0.0000  0.0000
 4947OM     OM1 4947   6.510   3.790   9.132  0.0000  0.0000  0.0000
 4948OM     OM1 4948   6.296   3.797   9.301  0.0000  0.0000  0.0000
 4949OM     OM1 4949   6.498   3.633   9.336  0.0000  0.0000  0.0000
 4950OM     OM1 4950   3.694   2.184   0.968  0.0000  0.0000  0.0000
 4951OM     OM1 4951   3.821   2.343   0.797  0.0000  0.0000  0.0000
 4952OM     OM1 4952   3.778   2.419   1.039  0.0000  0.0000  0.0000
 4953OM     OM1 4953   3.948   2.228   0.990  0.0000  0.0000  0.0000
 4954OM     OM1 4954   5.670   6.581   1.060  0.0000  0.0000  0.0000
 4955OM     OM1 4955   5.580   6.520   1.299  0.0000  0.0000  0.0000
 4956OM     OM1 4956   5.759   6.365   1.195  0.0000  0.0000  0.0000
 4957OM     OM1 4957   4.459   4.173   0.728  0.0000  0.0000  0.0000
 4958OM     OM1 4958   4.518   4.036   0.518  0.0000  0.0000  0.0000
 4959OM     OM1 4959   4.494   4.297   0.506  0.0000  0.0000  0.0000
 4960OM     OM1 4960   4.701   4.200   0.635  0.0000  0.0000  0.0000
 4961OM     OM1 4961   5.374   2.392   1.318  0.0000  0.0000  0.0000
 4962OM     OM1 4962   2.146   2.217   0.959  0.0000  0.0000  0.0000
 4963OM     OM1 4963   2.201   2.296   1.201  0.0000  0.0000  0.0000
 4964OM     OM1 4964   6.579   0.050   0.786  0.0000  0.0000  0.0000
 4965OM     OM1 4965   6.450   0.270   0.864  0.0000  0.0000  0.0000
 4966OM     OM1 4966   6.363   0.024   0.925  0.0000  0.0000  0.0000
 4967OM     OM1 4967   4.960   1.615   0.966  0.0000  0.0000  0.0000
 4968OM     OM1 4968   5.169   1.750   1.006  0.0000  0.0000  0.0000
 4969OM     OM1 4969   8.510   1.783   8.532  0.0000  0.0000  0.0000
 4970OM     OM1 4970   8.601   2.031   8.532  0.0000  0.0000  0.0000
 4971OM     OM1 4971   8.522   1.917   8.309  0.0000  0.0000  0.0000
 4972OM     OM1 4972   8.719   8.164   9.416  0.0000  0.0000  0.0000
 4973OM     OM1 4973   8.922   8.319   9.391  0.0000  0.0000  0.0000
 4974OM     OM1 4974   8.682   8.419   9.350  0.0000  0.0000  0.0000
 4975OM     OM1 4975   8.789   8.249   9.180  0.0000  0.0000  0.0000
 4976OM     OM1 4976   7.777   8.777   9.230  0.0000  0.0000  0.0000
 4977OM     OM1 4977   7.929   8.923   9.043  0.0000  0.0000  0.0000
 4978OM     OM1 4978   8.006   8.709   9.162  0.0000  0.0000  0.0000
 4979OM     OM1 4979   8.044   0.531   9.172  0.0000  0.0000  0.0000
 4980OM     OM1 4980   8.154   0.322   9.285  0.0000  0.0000  0.0000
 4981OM     OM1 4981   5.711   1.643   8.265  0.0000  0.0000  0.0000
 4982OM     OM1 4982   5.577   1.458   8.392  0.0000  0.0000  0.0000
 4983OM     OM1 4983   6.095   7.924   0.492  0.0000  0.0000  0.0000
 4984OM     OM1 4984   5.962   8.124   0.409  0.0000  0.0000  0.0000
 4985OM     OM1 4985   6.134   8.160   0.605  0.0000  0.0000  0.0000
 4986OM     OM1 4986   1.721   3.596   9.512  0.0000  0.0000  0.0000
 4987OM     OM1 4987   1.579   3.509   9.323  0.0000  0.0000  0.0000
 4988OM     OM1 4988   1.533   3.416   9.567  0.0000  0.0000  0.0000
 4989OM     OM1 4989   3.544   7.681   9.405  0.0000  0.0000  0.0000
 4990OM     OM1 4990   2.827   8.061   8.526  0.0000  0.0000  0.0000
 4991OM     OM1 4991   2.960   7.988   8.308  0.0000  0.0000  0.0000
 4992OM     OM1 4992   8.059   8.892   0.729  0.0000  0.0000  0.0000
 4993OM     OM1 4993   8.298   8.989   0.699  0.0000  0.0000  0.0000
 4994OM     OM1 4994   8.204   3.451   1.255  0.0000  0.0000  0.0000
 4995OM     OM1 4995   8.429   3.584   1.249  0.0000  0.0000  0.0000
 4996OM     OM1 4996   2.989   2.023   1.239  0.0000  0.0000  0.0000
 4997OM     OM1 4997   2.764   2.126   1.276  0.0000  0.0000  0.0000
 4998OM     OM1 4998   7.248   5.246   8.539  0.0000  0.0000  0.0000
 4999OM     OM1 4999   7.520   5.228   8.559  0.0000  0.0000  0.0000
 5000OM     OM1 5000   7.393   5.380   8.379  0.0000  0.0000  0.0000
 5001OM     OM1 5001   7.403   5.103   8.387  0.0000  0.0000  0.0000
 5002OM     OM1 5002   2.034   3.817   9.222  0.0000  0.0000  0.0000
 5003OM     OM1 5003   1.865   3.702   9.068  0.0000  0.0000  0.0000
 5004OM     OM1 5004   1.798   3.759   9.326  0.0000  0.0000  0.0000
 5005OM     OM1 5005   3.768   9.399   9.564  0.0000  0.0000  0.0000
 5006OM     OM1 5006   3.550   9.538   9.601  0.0000  0.0000  0.0000
 5007OM     OM1 5007   3.561   9.286   0.074  0.0000  0.0000  0.0000
 5008OM     OM1 5008   7.894   6.093   0.161  0.0000  0.0000  0.0000
 5009OM     OM1 5009   7.861   6.349   0.123  0.0000  0.0000  0.0000
 5010OM     OM1 5010   7.528   9.497   0.372  0.0000  0.0000  0.0000
 5011OM     OM1 5011   7.627   9.389   0.586  0.0000  0.0000  0.0000
 5012OM     OM1 5012   7.927   0.025   0.511  0.0000  0.0000  0.0000
 5013OM     OM1 5013   7.694   0.080   0.405  0.0000  0.0000  0.0000
 5014OM     OM1 5014   5.304   1.535   9.162  0.0000  0.0000  0.0000
 5015OM     OM1 5015   5.357   1.323   9.020  0.0000  0.0000  0.0000
 5016OM     OM1 5016   5.231   1.524   8.899  0.0000  0.0000  0.0000
 5017OM     OM1 5017   5.116   1.389   9.081  0.0000  0.0000  0.0000
 5018OM     OM1 5018   3.530   4.509   8.547  0.0000  0.0000  0.0000
 5019OM     OM1 5019   3.564   4.539   8.272  0.0000  0.0000  0.0000
 5020OM     OM1 5020   3.336   4.492   8.377  0.0000  0.0000  0.0000
 5021OM     OM1 5021   8.376   1.101   9.322  0.0000  0.0000  0.0000
 5022OM     OM1 5022   6.313   5.094   9.006  0.0000  0.0000  0.0000
 5023OM     OM1 5023   6.097   4.967   9.031  0.0000  0.0000  0.0000
 5024OM     OM1 5024   6.127   5.163   8.850  0.0000  0.0000  0.0000
 5025OM     OM1 5025   6.083   5.215   9.099  0.0000  0.0000  0.0000
 5026OM     OM1 5026   2.145   0.132   0.852  0.0000  0.0000  0.0000
 5027OM     OM1 5027   2.060   0.379   0.826  0.0000  0.0000  0.0000
 5028OM     OM1 5028   0.011   2.276   9.544  0.0000  0.0000  0.0000
 5029OM     OM1 5029   9.440   2.234   9.354  0.0000  0.0000  0.0000
 5030OM     OM1 5030   0.057   6.875   1.314  0.0000  0.0000  0.0000
 5031OM     OM1 5031   9.547   6.996   1.106  0.0000  0.0000  0.0000
 5032OM     OM1 5032   0.055   7.509   9.296  0.0000  0.0000  0.0000
 5033OM     OM1 5033   0.021   7.615   9.057  0.0000  0.0000  0.0000
 5034OM     OM1 5034   9.584   7.759   9.261  0.0000  0.0000  0.0000
 5035OM     OM1 5035   9.418   7.551   9.205  0.0000  0.0000  0.0000
 5036OM     OM1 5036   4.871   4.013   8.844  0.0000  0.0000  0.0000
 5037OM     OM1 5037   5.097   3.892   8.786  0.0000  0.0000  0.0000
 5038OM     OM1 5038   1.050   3.520   8.366  0.0000  0.0000  0.0000
 5039OM     OM1 5039   6.890   0.311   8.349  0.0000  0.0000  0.0000
 5040OM     OM1 5040   7.114   0.422   8.356  0.0000  0.0000  0.0000
 5041OM     OM1 5041   7.096   0.147   8.362  0.0000  0.0000  0.0000
 5042OM     OM1 5042   7.053   0.291   8.568  0.0000  0.0000  0.0000
 5043OM     OM1 5043   2.059   9.193   1.375  0.0000  0.0000  0.0000
 5044OM     OM1 5044   2.134   9.374   1.209  0.0000  0.0000  0.0000
 5045OM     OM1 5045   7.310   8.915   9.310  0.0000  0.0000  0.0000
 5046OM     OM1 5046   7.278   8.944   9.560  0.0000  0.0000  0.0000
 5047OM     OM1 5047   7.193   9.131   9.399  0.0000  0.0000  0.0000
 5048OM     OM1 5048   1.412   7.148   0.232  0.0000  0.0000  0.0000
 5049OM     OM1 5049   1.629   6.903   9.480  0.0000  0.0000  0.0000
 5050OM     OM1 5050   1.478   6.956   0.072  0.0000  0.0000  0.0000
 5051OM     OM1 5051   1.452   6.906   0.325  0.0000  0.0000  0.0000
 5052OM     OM1 5052   4.900   4.633   9.338  0.0000  0.0000  0.0000
 5053OM     OM1 5053   5.003   4.448   9.479  0.0000  0.0000  0.0000
 5054OM     OM1 5054   9.445   1.159   8.290  0.0000  0.0000  0.0000
 5055OM     OM1 5055   0.043   1.174   8.457  0.0000  0.0000  0.0000
 5056OM     OM1 5056   4.823   4.649   1.049  0.0000  0.0000  0.0000
 5057OM     OM1 5057   4.947   4.523   0.854  0.0000  0.0000  0.0000
 5058OM     OM1 5058   4.988   4.446   1.100  0.0000  0.0000  0.0000
 5059OM     OM1 5059   4.704   5.198   0.657  0.0000  0.0000  0.0000
 5060OM     OM1 5060   4.666   5.626   0.553  0.0000  0.0000  0.0000
 5061OM     OM1 5061   4.566   5.420   0.677  0.0000  0.0000  0.0000
 5062OM     OM1 5062   7.305   0.276   0.133  0.0000  0.0000  0.0000
 5063OM     OM1 5063   7.191   0.302   9.499  0.0000  0.0000  0.0000
 5064OM     OM1 5064   7.084   0.409   0.116  0.0000  0.0000  0.0000
 5065OM     OM1 5065   7.812   7.601   0.647  0.0000  0.0000  0.0000
 5066OM     OM1 5066   7.782   7.862   0.622  0.0000  0.0000  0.0000
 5067OM     OM1 5067   8.002   7.751   0.559  0.0000  0.0000  0.0000
 5068OM     OM1 5068   3.267   0.802   8.527  0.0000  0.0000  0.0000
 5069OM     OM1 5069   3.076   0.701   8.375  0.0000  0.0000  0.0000
 5070OM     OM1 5070   3.048   0.689   8.634  0.0000  0.0000  0.0000
 5071OM     OM1 5071   1.119   9.488   0.586  0.0000  0.0000  0.0000
 5072OM     OM1 5072   1.368   9.502   0.609  0.0000  0.0000  0.0000
 5073OM     OM1 5073   1.219   9.433   0.817  0.0000  0.0000  0.0000
 5074OM     OM1 5074   9.065   7.775   8.952  0.0000  0.0000  0.0000
 5075OM     OM1 5075   9.252   7.829   9.117  0.0000  0.0000  0.0000
 5076OM     OM1 5076   9.178   7.579   9.108  0.0000  0.0000  0.0000
 5077OM     OM1 5077   9.297   7.683   8.903  0.0000  0.0000  0.0000
 5078OM     OM1 5078   3.767   8.892   0.682  0.0000  0.0000  0.0000
 5079OM     OM1 5079   3.645   8.773   0.874  0.0000  0.0000  0.0000
 5080OM     OM1 5080   3.510   8.828   0.662  0.0000  0.0000  0.0000
 5081OM     OM1 5081   4.811   8.484   8.664  0.0000  0.0000  0.0000
 5082OM     OM1 5082   4.578   8.513   8.548  0.0000  0.0000  0.0000
 5083OM     OM1 5083   8.773   5.974   0.017  0.0000  0.0000  0.0000
 5084OM     OM1 5084   9.004   5.935   0.128  0.0000  0.0000  0.0000
 5085OM     OM1 5085   0.409   6.234   0.863  0.0000  0.0000  0.0000
 5086OM     OM1 5086   0.341   6.001   0.763  0.0000  0.0000  0.0000
 5087OM     OM1 5087   0.559   6.015   0.896  0.0000  0.0000  0.0000
 5088OM     OM1 5088   0.580   1.694   0.888  0.0000  0.0000  0.0000
 5089OM     OM1 5089   0.342   1.806   0.911  0.0000  0.0000  0.0000
 5090OM     OM1 5090   0.381   1.564   0.995  0.0000  0.0000  0.0000
 5091OM     OM1 5091   0.486   1.749   1.132  0.0000  0.0000  0.0000
 5092OM     OM1 5092   2.491   0.056   8.373  0.0000  0.0000  0.0000
 5093OM     OM1 5093   2.456   0.319   8.357  0.0000  0.0000  0.0000
 5094OM     OM1 5094   2.418   0.215   8.580  0.0000  0.0000  0.0000
 5095OM     OM1 5095   2.256   0.150   8.383  0.0000  0.0000  0.0000
 5096OM     OM1 5096   2.546   1.043   0.008  0.0000  0.0000  0.0000
 5097OM     OM1 5097   2.528   1.262   0.145  0.0000  0.0000  0.0000
 5098OM     OM1 5098   2.743   1.214   0.006  0.0000  0.0000  0.0000
 5099OM     OM1 5099   2.694   1.080   0.225  0.0000  0.0000  0.0000
 5100OM     OM1 5100   5.171   5.163   0.133  0.0000  0.0000  0.0000
 5101OM     OM1 5101   5.421   5.216   0.067  0.0000  0.0000  0.0000
 5102OM     OM1 5102   5.294   5.383   0.217  0.0000  0.0000  0.0000
 5103OM     OM1 5103   5.340   5.150   0.323  0.0000  0.0000  0.0000
 5104OM     OM1 5104   6.940   3.012   8.303  0.0000  0.0000  0.0000
 5105OM     OM1 5105   6.794   3.218   8.389  0.0000  0.0000  0.0000
 5106OM     OM1 5106   2.819   2.182   1.028  0.0000  0.0000  0.0000
 5107OM     OM1 5107   2.576   2.146   1.103  0.0000  0.0000  0.0000
 5108OM     OM1 5108   8.576   5.257   0.319  0.0000  0.0000  0.0000
 5109OM     OM1 5109   8.670   5.012   0.323  0.0000  0.0000  0.0000
 5110OM     OM1 5110   8.483   5.073   0.482  0.0000  0.0000  0.0000
 5111OM     OM1 5111   8.438   5.066   0.222  0.0000  0.0000  0.0000
 5112OM     OM1 5112   6.855   9.027   9.221  0.0000  0.0000  0.0000
 5113OM     OM1 5113   6.857   9.283   9.180  0.0000  0.0000  0.0000
 5114OM     OM1 5114   7.039   9.138   9.065  0.0000  0.0000  0.0000
 5115OM     OM1 5115   7.007   9.322   9.389  0.0000  0.0000  0.0000
 5116OM     OM1 5116   5.663   4.229   1.015  0.0000  0.0000  0.0000
 5117OM     OM1 5117   5.879   4.296   0.877  0.0000  0.0000  0.0000
 5118OM     OM1 5118   8.156   4.317   8.576  0.0000  0.0000  0.0000
 5119OM     OM1 5119   8.189   4.497   8.765  0.0000  0.0000  0.0000
 5120OM     OM1 5120   8.390   4.354   8.688  0.0000  0.0000  0.0000
 5121OM     OM1 5121   8.302   4.541   8.536  0.0000  0.0000  0.0000
 5122OM     OM1 5122   3.965   5.184   0.364  0.0000  0.0000  0.0000
 5123OM     OM1 5123   3.924   4.943   0.281  0.0000  0.0000  0.0000
 5124OM     OM1 5124   4.080   4.970   0.487  0.0000  0.0000  0.0000
 5125OM     OM1 5125   3.769   4.767   0.385  0.0000  0.0000  0.0000
 5126OM     OM1 5126   3.837   4.742   0.133  0.0000  0.0000  0.0000
 5127OM     OM1 5127   6.878   7.102   8.684  0.0000  0.0000  0.0000
 5128OM     OM1 5128   7.106   6.987   8.616  0.0000  0.0000  0.0000
 5129OM     OM1 5129   7.106   7.235   8.700  0.0000  0.0000  0.0000
 5130OM     OM1 5130   5.369   0.125   8.294  0.0000  0.0000  0.0000
 5131OM     OM1 5131   5.295   9.502   8.377  0.0000  0.0000  0.0000
 5132OM     OM1 5132   5.106   0.039   8.282  0.0000  0.0000  0.0000
 5133OM     OM1 5133   3.538   3.561   8.290  0.0000  0.0000  0.0000
 5134OM     OM1 5134   3.449   3.801   8.332  0.0000  0.0000  0.0000
 5135OM     OM1 5135   6.324   9.023   8.365  0.0000  0.0000  0.0000
 5136OM     OM1 5136   6.377   9.258   8.460  0.0000  0.0000  0.0000
 5137OM     OM1 5137   6.003   4.750   0.905  0.0000  0.0000  0.0000
 5138OM     OM1 5138   5.765   4.734   0.995  0.0000  0.0000  0.0000
 5139OM     OM1 5139   5.845   4.944   0.834  0.0000  0.0000  0.0000
 5140OM     OM1 5140   5.805   4.712   0.737  0.0000  0.0000  0.0000
 5141OM     OM1 5141   1.999   6.790   8.220  0.0000  0.0000  0.0000
 5142OM     OM1 5142   2.164   6.987   8.265  0.0000  0.0000  0.0000
 5143OM     OM1 5143   2.155   6.775   8.424  0.0000  0.0000  0.0000
 5144OM     OM1 5144   5.571   3.081   0.805  0.0000  0.0000  0.0000
 5145OM     OM1 5145   5.620   3.277   0.978  0.0000  0.0000  0.0000
 5146OM     OM1 5146   5.516   3.061   1.069  0.0000  0.0000  0.0000
 5147OM     OM1 5147   5.377   3.213   0.903  0.0000  0.0000  0.0000
 5148OM     OM1 5148   9.261   6.374   0.305  0.0000  0.0000  0.0000
 5149OM     OM1 5149   9.463   6.401   0.139  0.0000  0.0000  0.0000
 5150OM     OM1 5150   9.217   6.431   0.053  0.0000  0.0000  0.0000
 5151OM     OM1 5151   5.887   4.499   8.571  0.0000  0.0000  0.0000
 5152OM     OM1 5152   5.995   4.696   8.684  0.0000  0.0000  0.0000
 5153OM     OM1 5153   6.017   4.462   8.793  0.0000  0.0000  0.0000
 5154OM     OM1 5154   2.371   6.737   8.893  0.0000  0.0000  0.0000
 5155OM     OM1 5155   2.523   6.635   8.714  0.0000  0.0000  0.0000
 5156OM     OM1 5156   2.593   6.598   8.963  0.0000  0.0000  0.0000
 5157OM     OM1 5157   6.042   2.036   0.516  0.0000  0.0000  0.0000
 5158OM     OM1 5158   6.262   2.066   0.659  0.0000  0.0000  0.0000
 5159OM     OM1 5159   6.194   2.245   0.489  0.0000  0.0000  0.0000
 5160OM     OM1 5160   6.052   2.223   0.702  0.0000  0.0000  0.0000
 5161OM     OM1 5161   8.541   6.941   9.560  0.0000  0.0000  0.0000
 5162OM     OM1 5162   8.628   7.186   0.044  0.0000  0.0000  0.0000
 5163OM     OM1 5163   8.575   2.503   1.277  0.0000  0.0000  0.0000
 5164OM     OM1 5164   8.359   2.561   1.127  0.0000  0.0000  0.0000
 5165OM     OM1 5165   9.131   2.759   9.601  0.0000  0.0000  0.0000
 5166OM     OM1 5166   9.264   2.626   9.428  0.0000  0.0000  0.0000
 5167OM     OM1 5167   7.065   4.698   9.489  0.0000  0.0000  0.0000
 5168OM     OM1 5168   6.984   4.939   9.402  0.0000  0.0000  0.0000
 5169OM     OM1 5169   7.429   5.497   8.749  0.0000  0.0000  0.0000
 5170OM     OM1 5170   7.230   5.669   8.695  0.0000  0.0000  0.0000
 5171OM     OM1 5171   2.536   2.032   8.466  0.0000  0.0000  0.0000
 5172OM     OM1 5172   2.221   3.141   1.359  0.0000  0.0000  0.0000
 5173OM     OM1 5173   7.660   0.417   1.460  0.0000  0.0000  0.0000
 5174OM     OM1 5174   7.457   0.479   1.307  0.0000  0.0000  0.0000
 5175OM     OM1 5175   0.007   4.530   1.184  0.0000  0.0000  0.0000
 5176OM     OM1 5176   0.159   4.502   0.961  0.0000  0.0000  0.0000
 5177OM     OM1 5177   9.582   4.674   0.975  0.0000  0.0000  0.0000
 5178OM     OM1 5178   0.192   4.694   1.141  0.0000  0.0000  0.0000
 5179OM     OM1 5179   3.157   1.078   0.195  0.0000  0.0000  0.0000
 5180OM     OM1 5180   3.349   0.911   0.112  0.0000  0.0000  0.0000
 5181OM     OM1 5181   3.302   0.908   0.355  0.0000  0.0000  0.0000
 5182OM     OM1 5182   1.426   2.533   8.410  0.0000  0.0000  0.0000
 5183OM     OM1 5183   1.480   2.766   8.315  0.0000  0.0000  0.0000
 5184OM     OM1 5184   1.273   2.734   8.483  0.0000  0.0000  0.0000
 5185OM     OM1 5185   5.786   1.548   0.136  0.0000  0.0000  0.0000
 5186OM     OM1 5186   5.549   1.513   0.244  0.0000  0.0000  0.0000
 5187OM     OM1 5187   5.635   1.756   0.207  0.0000  0.0000  0.0000
 5188OM     OM1 5188   5.376   3.994   8.308  0.0000  0.0000  0.0000
 5189OM     OM1 5189   5.164   3.863   8.339  0.0000  0.0000  0.0000
 5190OM     OM1 5190   7.923   5.835   0.205  0.0000  0.0000  0.0000
 5191OM     OM1 5191   7.954   6.265   1.050  0.0000  0.0000  0.0000
 5192OM     OM1 5192   8.048   6.016   1.012  0.0000  0.0000  0.0000
 5193OM     OM1 5193   7.931   6.142   0.826  0.0000  0.0000  0.0000
 5194OM     OM1 5194   1.603   0.602   8.731  0.0000  0.0000  0.0000
 5195OM     OM1 5195   1.771   0.514   8.553  0.0000  0.0000  0.0000
 5196OM     OM1 5196   1.850   0.662   8.752  0.0000  0.0000  0.0000
 5197OM     OM1 5197   0.594   4.171   0.622  0.0000  0.0000  0.0000
 5198OM     OM1 5198   0.788   4.021   0.529  0.0000  0.0000  0.0000
 5199OM     OM1 5199   0.619   4.137   0.372  0.0000  0.0000  0.0000
 5200OM     OM1 5200   0.992   2.983   0.543  0.0000  0.0000  0.0000
 5201OM     OM1 5201   0.995   3.183   0.708  0.0000  0.0000  0.0000
 5202OM     OM1 5202   1.220   3.101   0.594  0.0000  0.0000  0.0000
 5203OM     OM1 5203   3.083   6.579   9.521  0.0000  0.0000  0.0000
 5204OM     OM1 5204   2.962   6.432   9.356  0.0000  0.0000  0.0000
 5205OM     OM1 5205   2.962   6.691   9.310  0.0000  0.0000  0.0000
 5206OM     OM1 5206   4.791   9.286   0.564  0.0000  0.0000  0.0000
 5207OM     OM1 5207   4.759   9.078   0.714  0.0000  0.0000  0.0000
 5208OM     OM1 5208   4.604   9.449   0.626  0.0000  0.0000  0.0000
 5209OM     OM1 5209   4.833   9.483   0.743  0.0000  0.0000  0.0000
 5210OM     OM1 5210   2.023   2.119   9.103  0.0000  0.0000  0.0000
 5211OM     OM1 5211   1.958   2.233   9.336  0.0000  0.0000  0.0000
 5212OM     OM1 5212   1.876   2.326   9.098  0.0000  0.0000  0.0000
 5213OM     OM1 5213   1.792   2.092   9.195  0.0000  0.0000  0.0000
 5214OM     OM1 5214   6.423   0.479   8.634  0.0000  0.0000  0.0000
 5215OM     OM1 5215   6.479   0.263   8.775  0.0000  0.0000  0.0000
 5216OM     OM1 5216   6.483   0.259   8.510  0.0000  0.0000  0.0000
 5217OM     OM1 5217   1.907   2.997   8.490  0.0000  0.0000  0.0000
 5218OM     OM1 5218   1.978   3.228   8.391  0.0000  0.0000  0.0000
 5219OM     OM1 5219   1.807   3.215   8.577  0.0000  0.0000  0.0000
 5220OM     OM1 5220   1.733   3.141   8.342  0.0000  0.0000  0.0000
 5221OM     OM1 5221   3.263   3.959   8.397  0.0000  0.0000  0.0000
 5222OM     OM1 5222   7.575   6.176   8.647  0.0000  0.0000  0.0000
 5223OM     OM1 5223   4.010   0.085   0.237  0.0000  0.0000  0.0000
 5224OM     OM1 5224   4.131   9.576   0.424  0.0000  0.0000  0.0000
 5225OM     OM1 5225   4.201   9.431   0.215  0.0000  0.0000  0.0000
 5226OM     OM1 5226   4.379   9.578   0.319  0.0000  0.0000  0.0000
 5227OM     OM1 5227   1.558   5.783   8.568  0.0000  0.0000  0.0000
 5228OM     OM1 5228   1.354   5.882   8.709  0.0000  0.0000  0.0000
 5229OM     OM1 5229   1.316   5.761   8.481  0.0000  0.0000  0.0000
 5230OM     OM1 5230   1.445   5.992   8.481  0.0000  0.0000  0.0000
 5231OM     OM1 5231   1.281   1.817   0.768  0.0000  0.0000  0.0000
 5232OM     OM1 5232   1.279   1.527   0.499  0.0000  0.0000  0.0000
 5233OM     OM1 5233   1.367   1.576   0.742  0.0000  0.0000  0.0000
 5234OM     OM1 5234   8.629   8.707   8.245  0.0000  0.0000  0.0000
 5235OM     OM1 5235   8.726   8.501   8.368  0.0000  0.0000  0.0000
 5236OM     OM1 5236   1.748   1.763   1.028  0.0000  0.0000  0.0000
 5237OM     OM1 5237   1.545   1.870   1.139  0.0000  0.0000  0.0000
 5238OM     OM1 5238   2.928   7.538   0.374  0.0000  0.0000  0.0000
 5239OM     OM1 5239   2.830   7.333   0.517  0.0000  0.0000  0.0000
 5240OM     OM1 5240   2.843   7.435   0.150  0.0000  0.0000  0.0000
 5241OM     OM1 5241   3.094   7.488   0.186  0.0000  0.0000  0.0000
 5242OM     OM1 5242   7.763   2.139   9.578  0.0000  0.0000  0.0000
 5243OM     OM1 5243   7.595   1.964   9.470  0.0000  0.0000  0.0000
 5244OM     OM1 5244   7.543   2.075   0.095  0.0000  0.0000  0.0000
 5245OM     OM1 5245   7.524   2.211   9.472  0.0000  0.0000  0.0000
 5246OM     OM1 5246   5.462   1.548   8.615  0.0000  0.0000  0.0000
 5247OM     OM1 5247   5.419   1.783   8.730  0.0000  0.0000  0.0000
 5248OM     OM1 5248   5.586   1.620   8.841  0.0000  0.0000  0.0000
 5249OM     OM1 5249   7.197   9.521   1.173  0.0000  0.0000  0.0000
 5250OM     OM1 5250   7.312   0.142   1.110  0.0000  0.0000  0.0000
 5251OM     OM1 5251   7.055   0.133   1.174  0.0000  0.0000  0.0000
 5252OM     OM1 5252   9.173   7.148   0.476  0.0000  0.0000  0.0000
 5253OM     OM1 5253   9.186   7.316   0.286  0.0000  0.0000  0.0000
 5254OM     OM1 5254   9.383   7.466   0.378  0.0000  0.0000  0.0000
 5255OM     OM1 5255   9.155   7.448   0.507  0.0000  0.0000  0.0000
 5256OM     OM1 5256   3.162   4.315   1.298  0.0000  0.0000  0.0000
 5257OM     OM1 5257   3.134   4.569   1.373  0.0000  0.0000  0.0000
 5258OM     OM1 5258   0.089   5.690   8.425  0.0000  0.0000  0.0000
 5259OM     OM1 5259   0.104   5.646   8.677  0.0000  0.0000  0.0000
 5260OM     OM1 5260   8.888   0.591   1.087  0.0000  0.0000  0.0000
 5261OM     OM1 5261   8.890   0.793   1.261  0.0000  0.0000  0.0000
 5262OM     OM1 5262   7.023   1.314   8.730  0.0000  0.0000  0.0000
 5263OM     OM1 5263   7.215   1.162   8.634  0.0000  0.0000  0.0000
 5264OM     OM1 5264   7.054   1.069   8.817  0.0000  0.0000  0.0000
 5265OM     OM1 5265   7.420   1.616   8.706  0.0000  0.0000  0.0000
 5266OM     OM1 5266   7.151   1.555   8.708  0.0000  0.0000  0.0000
 5267OM     OM1 5267   0.168   6.515   1.110  0.0000  0.0000  0.0000
 5268OM     OM1 5268   0.096   6.615   1.342  0.0000  0.0000  0.0000
 5269OM     OM1 5269   9.527   6.484   1.209  0.0000  0.0000  0.0000
 5270OM     OM1 5270   0.134   6.351   1.306  0.0000  0.0000  0.0000
 5271OM     OM1 5271   3.066   4.119   8.897  0.0000  0.0000  0.0000
 5272OM     OM1 5272   3.207   4.336   8.969  0.0000  0.0000  0.0000
 5273OM     OM1 5273   3.272   4.184   8.768  0.0000  0.0000  0.0000
 5274OM     OM1 5274   1.691   0.646   9.188  0.0000  0.0000  0.0000
 5275OM     OM1 5275   1.497   0.506   9.327  0.0000  0.0000  0.0000
 5276OM     OM1 5276   1.460   0.582   9.088  0.0000  0.0000  0.0000
 5277OM     OM1 5277   6.058   9.071   0.631  0.0000  0.0000  0.0000
 5278OM     OM1 5278   6.166   9.155   0.417  0.0000  0.0000  0.0000
 5279OM     OM1 5279   6.310   9.039   0.610  0.0000  0.0000  0.0000
 5280OM     OM1 5280   6.215   9.285   0.645  0.0000  0.0000  0.0000
 5281OM     OM1 5281   1.100   6.352   0.448  0.0000  0.0000  0.0000
 5282OM     OM1 5282   0.973   6.567   0.523  0.0000  0.0000  0.0000
 5283OM     OM1 5283   0.958   6.467   0.264  0.0000  0.0000  0.0000
 5284OM     OM1 5284   0.841   6.360   0.463  0.0000  0.0000  0.0000
 5285OM     OM1 5285   5.323   3.871   9.215  0.0000  0.0000  0.0000
 5286OM     OM1 5286   5.344   4.091   9.355  0.0000  0.0000  0.0000
 5287OM     OM1 5287   2.738   2.199   8.437  0.0000  0.0000  0.0000
 5288OM     OM1 5288   2.774   1.955   8.385  0.0000  0.0000  0.0000
 5289OM     OM1 5289   7.056   6.943   0.257  0.0000  0.0000  0.0000
 5290OM     OM1 5290   7.101   7.087   0.476  0.0000  0.0000  0.0000
 5291OM     OM1 5291   7.190   6.840   0.458  0.0000  0.0000  0.0000
 5292OM     OM1 5292   5.757   6.493   0.203  0.0000  0.0000  0.0000
 5293OM     OM1 5293   5.752   6.759   0.252  0.0000  0.0000  0.0000
 5294OM     OM1 5294   5.968   6.611   0.298  0.0000  0.0000  0.0000
 5295OM     OM1 5295   5.918   7.169   0.873  0.0000  0.0000  0.0000
 5296OM     OM1 5296   5.850   7.290   1.090  0.0000  0.0000  0.0000
 5297OM     OM1 5297   6.082   7.153   1.085  0.0000  0.0000  0.0000
 5298OM     OM1 5298   3.813   6.259   8.458  0.0000  0.0000  0.0000
 5299OM     OM1 5299   3.728   6.309   8.221  0.0000  0.0000  0.0000
 5300OM     OM1 5300   0.233   4.655   9.128  0.0000  0.0000  0.0000
 5301OM     OM1 5301   0.386   4.541   9.307  0.0000  0.0000  0.0000
 5302OM     OM1 5302   0.148   4.456   9.295  0.0000  0.0000  0.0000
 5303OM     OM1 5303   0.424   5.248   8.870  0.0000  0.0000  0.0000
 5304OM     OM1 5304   0.618   5.418   8.912  0.0000  0.0000  0.0000
 5305OM     OM1 5305   4.327   3.063   0.997  0.0000  0.0000  0.0000
 5306OM     OM1 5306   4.572   3.012   0.894  0.0000  0.0000  0.0000
 5307OM     OM1 5307   4.487   2.887   1.107  0.0000  0.0000  0.0000
 5308OM     OM1 5308   6.359   7.730   9.189  0.0000  0.0000  0.0000
 5309OM     OM1 5309   6.259   7.978   9.154  0.0000  0.0000  0.0000
 5310OM     OM1 5310   6.125   7.757   9.090  0.0000  0.0000  0.0000
 5311OM     OM1 5311   6.177   7.828   9.346  0.0000  0.0000  0.0000
 5312OM     OM1 5312   8.120   0.170   8.739  0.0000  0.0000  0.0000
 5313OM     OM1 5313   3.985   3.543   0.829  0.0000  0.0000  0.0000
 5314OM     OM1 5314   4.180   3.702   0.741  0.0000  0.0000  0.0000
 5315OM     OM1 5315   3.949   3.801   0.796  0.0000  0.0000  0.0000
 5316OM     OM1 5316   3.967   3.662   0.587  0.0000  0.0000  0.0000
 5317OM     OM1 5317   3.144   4.748   0.745  0.0000  0.0000  0.0000
 5318OM     OM1 5318   3.011   4.663   0.951  0.0000  0.0000  0.0000
 5319OM     OM1 5319   3.044   4.512   0.733  0.0000  0.0000  0.0000
 5320OM     OM1 5320   3.241   4.551   0.892  0.0000  0.0000  0.0000
 5321OM     OM1 5321   2.865   0.247   8.497  0.0000  0.0000  0.0000
 5322OM     OM1 5322   2.676   0.416   8.456  0.0000  0.0000  0.0000
 5323OM     OM1 5323   2.888   0.490   8.603  0.0000  0.0000  0.0000
 5324OM     OM1 5324   7.320   1.027   1.341  0.0000  0.0000  0.0000
 5325OM     OM1 5325   7.485   1.153   1.193  0.0000  0.0000  0.0000
 5326OM     OM1 5326   4.292   5.212   8.855  0.0000  0.0000  0.0000
 5327OM     OM1 5327   4.243   4.986   8.999  0.0000  0.0000  0.0000
 5328OM     OM1 5328   4.388   5.178   9.092  0.0000  0.0000  0.0000
 5329OM     OM1 5329   6.400   1.854   0.708  0.0000  0.0000  0.0000
 5330OM     OM1 5330   3.993   6.741   0.534  0.0000  0.0000  0.0000
 5331OM     OM1 5331   3.887   6.819   0.759  0.0000  0.0000  0.0000
 5332OM     OM1 5332   4.029   6.989   0.606  0.0000  0.0000  0.0000
 5333OM     OM1 5333   1.809   4.801   1.272  0.0000  0.0000  0.0000
 5334OM     OM1 5334   1.682   4.856   1.066  0.0000  0.0000  0.0000
 5335OM     OM1 5335   5.434   6.837   8.911  0.0000  0.0000  0.0000
 5336OM     OM1 5336   5.427   6.782   9.263  0.0000  0.0000  0.0000
 5337OM     OM1 5337   5.239   6.811   9.085  0.0000  0.0000  0.0000
 5338OM     OM1 5338   5.331   6.607   8.973  0.0000  0.0000  0.0000
 5339OM     OM1 5339   6.524   7.576   9.040  0.0000  0.0000  0.0000
 5340OM     OM1 5340   6.545   7.572   9.300  0.0000  0.0000  0.0000
 5341OM     OM1 5341   6.607   7.785   9.163  0.0000  0.0000  0.0000
 5342OM     OM1 5342   9.572   5.931   9.376  0.0000  0.0000  0.0000
 5343OM     OM1 5343   9.392   5.774   9.486  0.0000  0.0000  0.0000
 5344OM     OM1 5344   3.786   4.421   8.256  0.0000  0.0000  0.0000
 5345OM     OM1 5345   7.165   5.601   0.001  0.0000  0.0000  0.0000
 5346OM     OM1 5346   7.010   5.667   0.212  0.0000  0.0000  0.0000
 5347OM     OM1 5347   6.934   5.484   0.040  0.0000  0.0000  0.0000
 5348OM     OM1 5348   2.594   8.355   8.425  0.0000  0.0000  0.0000
 5349OM     OM1 5349   2.447   8.237   8.599  0.0000  0.0000  0.0000
 5350OM     OM1 5350   2.509   8.495   8.623  0.0000  0.0000  0.0000
 5351OM     OM1 5351   5.954   9.515   8.429  0.0000  0.0000  0.0000
 5352OM     OM1 5352   3.637   1.240   1.421  0.0000  0.0000  0.0000
 5353OM     OM1 5353   5.818   6.109   1.157  0.0000  0.0000  0.0000
 5354OM     OM1 5354   2.307   6.619   8.568  0.0000  0.0000  0.0000
 5355OM     OM1 5355   2.504   6.756   8.484  0.0000  0.0000  0.0000
 5356OM     OM1 5356   8.636   6.311   1.373  0.0000  0.0000  0.0000
 5357OM     OM1 5357   7.218   1.774   0.521  0.0000  0.0000  0.0000
 5358OM     OM1 5358   7.438   1.891   0.630  0.0000  0.0000  0.0000
 5359OM     OM1 5359   7.441   1.640   0.543  0.0000  0.0000  0.0000
 5360OM     OM1 5360   7.315   1.708   0.754  0.0000  0.0000  0.0000
 5361OM     OM1 5361   4.421   5.360   8.373  0.0000  0.0000  0.0000
 5362OM     OM1 5362   4.604   5.205   8.479  0.0000  0.0000  0.0000
 5363OM     OM1 5363   4.409   5.304   8.631  0.0000  0.0000  0.0000
 5364OM     OM1 5364   6.158   8.610   9.498  0.0000  0.0000  0.0000
 5365OM     OM1 5365   5.945   8.763   9.456  0.0000  0.0000  0.0000
 5366OM     OM1 5366   7.643   6.672   0.998  0.0000  0.0000  0.0000
 5367OM     OM1 5367   7.505   6.615   0.775  0.0000  0.0000  0.0000
 5368OM     OM1 5368   7.750   6.570   0.790  0.0000  0.0000  0.0000
 5369OM     OM1 5369   1.516   7.252   0.559  0.0000  0.0000  0.0000
 5370OM     OM1 5370   1.383   7.234   0.793  0.0000  0.0000  0.0000
 5371OM     OM1 5371   1.289   7.133   0.567  0.0000  0.0000  0.0000
 5372OM     OM1 5372   9.428   8.581   0.389  0.0000  0.0000  0.0000
 5373OM     OM1 5373   2.311   7.603   8.322  0.0000  0.0000  0.0000
 5374OM     OM1 5374   2.058   7.507   8.336  0.0000  0.0000  0.0000
 5375OM     OM1 5375   1.003   6.765   1.018  0.0000  0.0000  0.0000
 5376OM     OM1 5376   0.987   6.687   0.769  0.0000  0.0000  0.0000
 5377OM     OM1 5377   1.054   7.079   0.639  0.0000  0.0000  0.0000
 5378OM     OM1 5378   0.863   7.158   0.802  0.0000  0.0000  0.0000
 5379OM     OM1 5379   1.165   2.666   8.810  0.0000  0.0000  0.0000
 5380OM     OM1 5380   1.281   2.466   8.895  0.0000  0.0000  0.0000
 5381OM     OM1 5381   7.381   9.120   0.961  0.0000  0.0000  0.0000
 5382OM     OM1 5382   4.252   5.463   8.767  0.0000  0.0000  0.0000
 5383OM     OM1 5383   4.265   5.684   8.903  0.0000  0.0000  0.0000
 5384OM     OM1 5384   4.339   5.686   8.659  0.0000  0.0000  0.0000
 5385OM     OM1 5385   3.378   0.685   0.461  0.0000  0.0000  0.0000
 5386OM     OM1 5386   3.366   0.897   0.613  0.0000  0.0000  0.0000
 5387OM     OM1 5387   3.148   0.790   0.524  0.0000  0.0000  0.0000
 5388OM     OM1 5388   6.427   7.370   0.902  0.0000  0.0000  0.0000
 5389OM     OM1 5389   6.330   7.526   0.688  0.0000  0.0000  0.0000
 5390OM     OM1 5390   6.564   7.547   0.767  0.0000  0.0000  0.0000
 5391OM     OM1 5391   4.463   1.931   1.227  0.0000  0.0000  0.0000
 5392OM     OM1 5392   4.593   2.157   1.252  0.0000  0.0000  0.0000
 5393OM     OM1 5393   6.119   0.926   1.167  0.0000  0.0000  0.0000
 5394OM     OM1 5394   6.247   1.108   1.292  0.0000  0.0000  0.0000
 5395OM     OM1 5395   1.482   5.168   0.800  0.0000  0.0000  0.0000
 5396OM     OM1 5396   1.513   5.076   0.573  0.0000  0.0000  0.0000
 5397OM     OM1 5397   1.267   5.111   0.657  0.0000  0.0000  0.0000
 5398OM     OM1 5398   1.402   4.927   0.771  0.0000  0.0000  0.0000
 5399OM     OM1 5399   3.402   5.364   8.742  0.0000  0.0000  0.0000
 5400OM     OM1 5400   3.666   5.434   8.677  0.0000  0.0000  0.0000
 5401OM     OM1 5401   3.474   5.602   8.685  0.0000  0.0000  0.0000
 5402OM     OM1 5402   3.552   5.470   8.907  0.0000  0.0000  0.0000
 5403OM     OM1 5403   1.420   0.837   9.088  0.0000  0.0000  0.0000
 5404OM     OM1 5404   1.227   0.679   9.166  0.0000  0.0000  0.0000
 5405OM     OM1 5405   1.286   0.685   8.921  0.0000  0.0000  0.0000
 5406OM     OM1 5406   8.787   3.303   8.695  0.0000  0.0000  0.0000
 5407OM     OM1 5407   8.985   3.448   8.672  0.0000  0.0000  0.0000
 5408OM     OM1 5408   8.924   3.380   8.910  0.0000  0.0000  0.0000
 5409OM     OM1 5409   9.408   7.125   8.611  0.0000  0.0000  0.0000
 5410OM     OM1 5410   0.057   7.152   8.538  0.0000  0.0000  0.0000
 5411OM     OM1 5411   4.094   4.842   0.712  0.0000  0.0000  0.0000
 5412OM     OM1 5412   4.215   4.741   0.506  0.0000  0.0000  0.0000
 5413OM     OM1 5413   9.276   4.427   8.366  0.0000  0.0000  0.0000
 5414OM     OM1 5414   9.116   4.224   8.389  0.0000  0.0000  0.0000
 5415OM     OM1 5415   5.085   7.210   8.394  0.0000  0.0000  0.0000
 5416OM     OM1 5416   5.091   7.486   8.410  0.0000  0.0000  0.0000
 5417OM     OM1 5417   1.317   7.224   1.060  0.0000  0.0000  0.0000
 5418OM     OM1 5418   1.322   7.020   0.911  0.0000  0.0000  0.0000
 5419OM     OM1 5419   1.138   7.201   0.855  0.0000  0.0000  0.0000
 5420OM     OM1 5420   0.803   6.102   9.251  0.0000  0.0000  0.0000
 5421OM     OM1 5421   1.057   6.106   9.270  0.0000  0.0000  0.0000
 5422OM     OM1 5422   0.926   5.888   9.342  0.0000  0.0000  0.0000
 5423OM     OM1 5423   0.916   6.102   9.491  0.0000  0.0000  0.0000
 5424OM     OM1 5424   1.182   6.184   8.501  0.0000  0.0000  0.0000
 5425OM     OM1 5425   0.953   6.221   8.597  0.0000  0.0000  0.0000
 5426OM     OM1 5426   1.146   6.395   8.659  0.0000  0.0000  0.0000
 5427OM     OM1 5427   0.481   7.452   1.289  0.0000  0.0000  0.0000
 5428OM     OM1 5428   0.587   7.230   1.348  0.0000  0.0000  0.0000
 5429OM     OM1 5429   3.319   6.538   0.549  0.0000  0.0000  0.0000
 5430OM     OM1 5430   3.484   6.428   0.379  0.0000  0.0000  0.0000
 5431OM     OM1 5431   1.907   8.216   9.384  0.0000  0.0000  0.0000
 5432OM     OM1 5432   1.720   8.054   9.406  0.0000  0.0000  0.0000
 5433OM     OM1 5433   1.954   7.952   9.422  0.0000  0.0000  0.0000
 5434OM     OM1 5434   5.133   8.541   8.619  0.0000  0.0000  0.0000
 5435OM     OM1 5435   5.222   8.510   8.860  0.0000  0.0000  0.0000
 5436OM     OM1 5436   4.977   8.598   8.823  0.0000  0.0000  0.0000
 5437OM     OM1 5437   7.093   8.481   1.171  0.0000  0.0000  0.0000
 5438OM     OM1 5438   6.860   8.505   1.036  0.0000  0.0000  0.0000
 5439OM     OM1 5439   7.084   8.462   0.898  0.0000  0.0000  0.0000
 5440OM     OM1 5440   6.594   8.790   1.192  0.0000  0.0000  0.0000
 5441OM     OM1 5441   9.011   5.229   8.428  0.0000  0.0000  0.0000
 5442OM     OM1 5442   9.093   4.978   8.452  0.0000  0.0000  0.0000
 5443OM     OM1 5443   9.254   5.183   8.523  0.0000  0.0000  0.0000
 5444OM     OM1 5444   4.295   2.373   8.367  0.0000  0.0000  0.0000
 5445OM     OM1 5445   9.366   1.784   0.442  0.0000  0.0000  0.0000
 5446OM     OM1 5446   9.418   1.543   0.503  0.0000  0.0000  0.0000
 5447OM     OM1 5447   9.358   1.292   0.471  0.0000  0.0000  0.0000
 5448OM     OM1 5448   3.048   4.735   1.203  0.0000  0.0000  0.0000
 5449OM     OM1 5449   2.895   4.532   1.146  0.0000  0.0000  0.0000
 5450OM     OM1 5450   0.595   8.043   8.709  0.0000  0.0000  0.0000
 5451OM     OM1 5451   0.320   8.132   9.044  0.0000  0.0000  0.0000
 5452OM     OM1 5452   0.529   8.251   9.157  0.0000  0.0000  0.0000
 5453OM     OM1 5453   1.854   4.930   0.265  0.0000  0.0000  0.0000
 5454OM     OM1 5454   2.078   4.880   0.137  0.0000  0.0000  0.0000
 5455OM     OM1 5455   2.081   4.953   0.386  0.0000  0.0000  0.0000
 5456OM     OM1 5456   2.739   2.037   0.461  0.0000  0.0000  0.0000
 5457OM     OM1 5457   2.804   1.768   0.421  0.0000  0.0000  0.0000
 5458OM     OM1 5458   2.987   1.938   0.487  0.0000  0.0000  0.0000
 5459OM     OM1 5459   2.792   1.883   0.649  0.0000  0.0000  0.0000
 5460OM     OM1 5460   2.241   7.825   1.367  0.0000  0.0000  0.0000
 5461OM     OM1 5461   2.171   7.748   1.128  0.0000  0.0000  0.0000
 5462OM     OM1 5462   2.279   7.585   1.285  0.0000  0.0000  0.0000
 5463OM     OM1 5463   2.428   7.783   1.191  0.0000  0.0000  0.0000
 5464OM     OM1 5464   0.989   0.987   9.223  0.0000  0.0000  0.0000
 5465OM     OM1 5465   1.036   0.620   9.335  0.0000  0.0000  0.0000
 5466OM     OM1 5466   0.986   0.752   9.111  0.0000  0.0000  0.0000
 5467OM     OM1 5467   2.176   6.094   1.349  0.0000  0.0000  0.0000
 5468OM     OM1 5468   2.154   6.333   1.242  0.0000  0.0000  0.0000
 5469OM     OM1 5469   1.975   6.144   1.188  0.0000  0.0000  0.0000
 5470OM     OM1 5470   6.692   6.400   9.205  0.0000  0.0000  0.0000
 5471OM     OM1 5471   6.520   6.267   9.063  0.0000  0.0000  0.0000
 5472OM     OM1 5472   4.487   0.839   1.349  0.0000  0.0000  0.0000
 5473OM     OM1 5473   4.546   0.601   1.250  0.0000  0.0000  0.0000
 5474OM     OM1 5474   1.257   8.831   8.671  0.0000  0.0000  0.0000
 5475OM     OM1 5475   1.151   8.977   8.880  0.0000  0.0000  0.0000
 5476OM     OM1 5476   0.415   9.052   8.807  0.0000  0.0000  0.0000
 5477OM     OM1 5477   6.698   3.937   0.512  0.0000  0.0000  0.0000
 5478OM     OM1 5478   6.888   3.948   0.331  0.0000  0.0000  0.0000
 5479OM     OM1 5479   4.131   8.517   0.282  0.0000  0.0000  0.0000
 5480OM     OM1 5480   4.353   8.383   0.295  0.0000  0.0000  0.0000
 5481OM     OM1 5481   4.135   8.283   0.184  0.0000  0.0000  0.0000
 5482OM     OM1 5482   4.277   8.452   0.058  0.0000  0.0000  0.0000
 5483OM     OM1 5483   8.385   4.453   0.636  0.0000  0.0000  0.0000
 5484OM     OM1 5484   8.237   4.656   0.594  0.0000  0.0000  0.0000
 5485OM     OM1 5485   8.440   4.609   0.441  0.0000  0.0000  0.0000
 5486OM     OM1 5486   8.408   4.754   8.400  0.0000  0.0000  0.0000
 5487OM     OM1 5487   8.570   4.923   8.505  0.0000  0.0000  0.0000
 5488OM     OM1 5488   4.732   1.084   9.019  0.0000  0.0000  0.0000
 5489OM     OM1 5489   4.900   1.274   8.995  0.0000  0.0000  0.0000
 5490OM     OM1 5490   4.771   1.187   8.780  0.0000  0.0000  0.0000
 5491OM     OM1 5491   0.605   6.568   0.532  0.0000  0.0000  0.0000
 5492OM     OM1 5492   0.658   6.322   0.633  0.0000  0.0000  0.0000
 5493OM     OM1 5493   0.444   6.445   0.702  0.0000  0.0000  0.0000
 5494OM     OM1 5494   0.140   9.295   0.335  0.0000  0.0000  0.0000
 5495OM     OM1 5495   0.252   9.239   0.095  0.0000  0.0000  0.0000
 5496OM     OM1 5496   7.040   4.447   1.078  0.0000  0.0000  0.0000
 5497OM     OM1 5497   6.824   4.302   1.132  0.0000  0.0000  0.0000
 5498OM     OM1 5498   7.054   4.260   1.246  0.0000  0.0000  0.0000
 5499OM     OM1 5499   0.111   6.513   9.318  0.0000  0.0000  0.0000
 5500OM     OM1 5500   0.176   6.760   9.283  0.0000  0.0000  0.0000
 5501OM     OM1 5501   2.123   0.324   8.261  0.0000  0.0000  0.0000
 5502OM     OM1 5502   2.169   0.493   8.466  0.0000  0.0000  0.0000
 5503OM     OM1 5503   1.936   0.471   8.355  0.0000  0.0000  0.0000
 5504OM     OM1 5504   1.542   0.016   1.249  0.0000  0.0000  0.0000
 5505OM     OM1 5505   1.438   0.166   1.059  0.0000  0.0000  0.0000
 5506OM     OM1 5506   1.627   0.258   1.208  0.0000  0.0000  0.0000
 5507OM     OM1 5507   6.966   1.719   0.452  0.0000  0.0000  0.0000
 5508OM     OM1 5508   7.133   1.843   0.293  0.0000  0.0000  0.0000
 5509OM     OM1 5509   7.164   1.580   0.358  0.0000  0.0000  0.0000
 5510OM     OM1 5510   4.721   0.913   0.262  0.0000  0.0000  0.0000
 5511OM     OM1 5511   4.887   0.720   0.195  0.0000  0.0000  0.0000
 5512OM     OM1 5512   5.773   4.164   0.614  0.0000  0.0000  0.0000
 5513OM     OM1 5513   5.914   4.382   0.636  0.0000  0.0000  0.0000
 5514OM     OM1 5514   5.757   4.351   0.435  0.0000  0.0000  0.0000
 5515OM     OM1 5515   5.980   4.205   0.464  0.0000  0.0000  0.0000
 5516OM     OM1 5516   2.409   0.563   1.127  0.0000  0.0000  0.0000
 5517OM     OM1 5517   2.832   2.276   0.467  0.0000  0.0000  0.0000
 5518OM     OM1 5518   2.862   2.483   0.318  0.0000  0.0000  0.0000
 5519OM     OM1 5519   3.050   2.431   0.505  0.0000  0.0000  0.0000
 5520OM     OM1 5520   2.758   6.405   9.046  0.0000  0.0000  0.0000
 5521OM     OM1 5521   2.786   6.651   9.128  0.0000  0.0000  0.0000
 5522OM     OM1 5522   2.837   6.573   8.878  0.0000  0.0000  0.0000
 5523OM     OM1 5523   8.941   6.283   8.898  0.0000  0.0000  0.0000
 5524OM     OM1 5524   8.869   6.534   8.938  0.0000  0.0000  0.0000
 5525OM     OM1 5525   7.209   8.522   0.668  0.0000  0.0000  0.0000
 5526OM     OM1 5526   2.153   3.330   1.200  0.0000  0.0000  0.0000
 5527OM     OM1 5527   2.381   3.355   1.336  0.0000  0.0000  0.0000
 5528OM     OM1 5528   5.268   4.233   0.485  0.0000  0.0000  0.0000
 5529OM     OM1 5529   5.254   4.462   0.368  0.0000  0.0000  0.0000
 5530OM     OM1 5530   5.067   4.265   0.324  0.0000  0.0000  0.0000
 5531OM     OM1 5531   5.316   4.254   0.234  0.0000  0.0000  0.0000
 5532OM     OM1 5532   5.936   1.379   0.729  0.0000  0.0000  0.0000
 5533OM     OM1 5533   5.936   1.639   0.754  0.0000  0.0000  0.0000
 5534OM     OM1 5534   5.712   1.516   0.736  0.0000  0.0000  0.0000
 5535OM     OM1 5535   7.656   4.608   0.554  0.0000  0.0000  0.0000
 5536OM     OM1 5536   7.520   4.776   0.706  0.0000  0.0000  0.0000
 5537OM     OM1 5537   2.279   8.318   0.562  0.0000  0.0000  0.0000
 5538OM     OM1 5538   2.261   8.546   0.677  0.0000  0.0000  0.0000
 5539OM     OM1 5539   2.123   8.507   0.462  0.0000  0.0000  0.0000
 5540OM     OM1 5540   3.251   6.435   1.392  0.0000  0.0000  0.0000
 5541OM     OM1 5541   3.249   6.229   1.234  0.0000  0.0000  0.0000
 5542OM     OM1 5542   5.988   0.533   8.322  0.0000  0.0000  0.0000
 5543OM     OM1 5543   5.736   0.483   8.393  0.0000  0.0000  0.0000
 5544OM     OM1 5544   8.591   8.402   8.904  0.0000  0.0000  0.0000
 5545OM     OM1 5545   8.279   8.037   8.974  0.0000  0.0000  0.0000
 5546OM     OM1 5546   8.517   8.241   8.710  0.0000  0.0000  0.0000
 5547OM     OM1 5547   8.508   8.151   8.953  0.0000  0.0000  0.0000
 5548OM     OM1 5548   3.830   7.000   9.332  0.0000  0.0000  0.0000
 5549OM     OM1 5549   3.575   6.985   9.273  0.0000  0.0000  0.0000
 5550OM     OM1 5550   3.811   6.943   8.824  0.0000  0.0000  0.0000
 5551OM     OM1 5551   9.181   9.362   8.379  0.0000  0.0000  0.0000
 5552OM     OM1 5552   9.443   9.352   8.387  0.0000  0.0000  0.0000
 5553OM     OM1 5553   0.490   9.276   8.720  0.0000  0.0000  0.0000
 5554OM     OM1 5554   0.732   9.191   8.806  0.0000  0.0000  0.0000
 5555OM     OM1 5555   0.717   9.413   8.694  0.0000  0.0000  0.0000
 5556OM     OM1 5556   0.599   9.380   8.929  0.0000  0.0000  0.0000
 5557OM     OM1 5557   3.692   0.423   0.030  0.0000  0.0000  0.0000
 5558OM     OM1 5558   3.800   0.636   9.534  0.0000  0.0000  0.0000
 5559OM     OM1 5559   3.599   0.661   0.084  0.0000  0.0000  0.0000
 5560OM     OM1 5560   4.730   2.434   8.630  0.0000  0.0000  0.0000
 5561OM     OM1 5561   4.696   2.549   8.397  0.0000  0.0000  0.0000
 5562OM     OM1 5562   6.978   7.461   8.992  0.0000  0.0000  0.0000
 5563OM     OM1 5563   7.074   7.556   9.225  0.0000  0.0000  0.0000
 5564OM     OM1 5564   6.969   7.327   9.224  0.0000  0.0000  0.0000
 5565OM     OM1 5565   4.596   7.583   8.629  0.0000  0.0000  0.0000
 5566OM     OM1 5566   4.562   7.401   8.440  0.0000  0.0000  0.0000
 5567OM     OM1 5567   4.693   7.341   8.652  0.0000  0.0000  0.0000
 5568OM     OM1 5568   4.278   0.661   9.112  0.0000  0.0000  0.0000
 5569OM     OM1 5569   4.389   0.554   9.321  0.0000  0.0000  0.0000
 5570OM     OM1 5570   4.362   0.414   9.098  0.0000  0.0000  0.0000
 5571OM     OM1 5571   4.535   4.419   0.282  0.0000  0.0000  0.0000
 5572OM     OM1 5572   0.493   8.018   8.358  0.0000  0.0000  0.0000
 5573OM     OM1 5573   0.355   8.221   8.463  0.0000  0.0000  0.0000
 5574OM     OM1 5574   9.090   0.866   8.952  0.0000  0.0000  0.0000
 5575OM     OM1 5575   9.161   0.622   8.845  0.0000  0.0000  0.0000
 5576OM     OM1 5576   9.200   0.683   9.090  0.0000  0.0000  0.0000
 5577OM     OM1 5577   8.562   6.942   8.654  0.0000  0.0000  0.0000
 5578OM     OM1 5578   8.622   6.947   8.396  0.0000  0.0000  0.0000
 5579OM     OM1 5579   1.433   0.401   1.296  0.0000  0.0000  0.0000
 5580OM     OM1 5580   1.906   0.597   1.235  0.0000  0.0000  0.0000
 5581OM     OM1 5581   1.677   0.494   1.316  0.0000  0.0000  0.0000
 5582OM     OM1 5582   1.418   5.878   1.087  0.0000  0.0000  0.0000
 5583OM     OM1 5583   1.210   5.773   0.968  0.0000  0.0000  0.0000
 5584OM     OM1 5584   1.324   5.974   0.857  0.0000  0.0000  0.0000
 5585OM     OM1 5585   2.369   5.296   8.787  0.0000  0.0000  0.0000
 5586OM     OM1 5586   2.559   5.270   8.963  0.0000  0.0000  0.0000
 5587OM     OM1 5587   2.475   4.427   9.343  0.0000  0.0000  0.0000
 5588OM     OM1 5588   2.466   4.199   9.234  0.0000  0.0000  0.0000
 5589OM     OM1 5589   2.517   4.183   9.478  0.0000  0.0000  0.0000
 5590OM     OM1 5590   2.695   4.295   9.334  0.0000  0.0000  0.0000
 5591OM     OM1 5591   4.381   1.148   8.830  0.0000  0.0000  0.0000
 5592OM     OM1 5592   4.346   1.155   8.579  0.0000  0.0000  0.0000
 5593OM     OM1 5593   4.573   1.069   8.664  0.0000  0.0000  0.0000
 5594OM     OM1 5594   0.630   4.633   0.404  0.0000  0.0000  0.0000
 5595OM     OM1 5595   0.607   4.812   0.598  0.0000  0.0000  0.0000
 5596OM     OM1 5596   0.846   4.715   0.533  0.0000  0.0000  0.0000
 5597OM     OM1 5597   0.683   4.575   0.664  0.0000  0.0000  0.0000
 5598OM     OM1 5598   3.712   0.335   9.120  0.0000  0.0000  0.0000
 5599OM     OM1 5599   3.941   0.392   8.999  0.0000  0.0000  0.0000
 5600OM     OM1 5600   0.846   4.076   8.962  0.0000  0.0000  0.0000
 5601OM     OM1 5601   0.579   4.082   8.970  0.0000  0.0000  0.0000
 5602OM     OM1 5602   8.754   5.826   8.738  0.0000  0.0000  0.0000
 5603OM     OM1 5603   8.880   6.039   8.825  0.0000  0.0000  0.0000
 5604OM     OM1 5604   8.659   6.066   8.699  0.0000  0.0000  0.0000
 5605OM     OM1 5605   2.141   9.279   9.197  0.0000  0.0000  0.0000
 5606OM     OM1 5606   1.963   9.343   8.999  0.0000  0.0000  0.0000
 5607OM     OM1 5607   1.960   9.463   9.220  0.0000  0.0000  0.0000
 5608OM     OM1 5608   2.161   9.500   9.059  0.0000  0.0000  0.0000
 5609OM     OM1 5609   4.701   8.336   0.810  0.0000  0.0000  0.0000
 5610OM     OM1 5610   4.533   8.469   0.969  0.0000  0.0000  0.0000
 5611OM     OM1 5611   4.646   8.234   1.056  0.0000  0.0000  0.0000
 5612OM     OM1 5612   7.237   0.156   9.299  0.0000  0.0000  0.0000
 5613OM     OM1 5613   7.435   0.293   9.438  0.0000  0.0000  0.0000
 5614OM     OM1 5614   7.272   0.400   9.263  0.0000  0.0000  0.0000
 5615OM     OM1 5615   4.385   0.304   8.861  0.0000  0.0000  0.0000
 5616OM     OM1 5616   4.558   0.482   8.952  0.0000  0.0000  0.0000
 5617OM     OM1 5617   4.533   0.224   9.055  0.0000  0.0000  0.0000
 5618OM     OM1 5618   7.994   6.883   8.755  0.0000  0.0000  0.0000
 5619OM     OM1 5619   8.044   6.980   9.000  0.0000  0.0000  0.0000
 5620OM     OM1 5620   8.098   7.110   8.776  0.0000  0.0000  0.0000
 5621OM     OM1 5621   7.855   7.090   8.862  0.0000  0.0000  0.0000
 5622OM     OM1 5622   7.866   7.018   9.489  0.0000  0.0000  0.0000
 5623OM     OM1 5623   7.835   7.219   9.316  0.0000  0.0000  0.0000
 5624OM     OM1 5624   8.050   7.199   9.461  0.0000  0.0000  0.0000
 5625OM     OM1 5625   8.005   7.036   9.262  0.0000  0.0000  0.0000
 5626OM     OM1 5626   8.601   5.088   9.178  0.0000  0.0000  0.0000
 5627OM     OM1 5627   6.599   1.878   1.198  0.0000  0.0000  0.0000
 5628OM     OM1 5628   6.788   1.797   1.026  0.0000  0.0000  0.0000
 5629OM     OM1 5629   3.784   2.851   9.397  0.0000  0.0000  0.0000
 5630OM     OM1 5630   3.544   3.060   1.107  0.0000  0.0000  0.0000
 5631OM     OM1 5631   0.205   2.590   9.209  0.0000  0.0000  0.0000
 5632OM     OM1 5632   0.302   2.225   8.896  0.0000  0.0000  0.0000
 5633OM     OM1 5633   0.217   2.345   9.106  0.0000  0.0000  0.0000
 5634OM     OM1 5634   0.340   2.411   9.336  0.0000  0.0000  0.0000
 5635OM     OM1 5635   7.426   0.900   8.767  0.0000  0.0000  0.0000
 5636OM     OM1 5636   7.379   0.998   8.530  0.0000  0.0000  0.0000
 5637OM     OM1 5637   7.451   0.750   8.571  0.0000  0.0000  0.0000
 5638OM     OM1 5638   7.206   0.834   8.628  0.0000  0.0000  0.0000
 5639OM     OM1 5639   5.274   2.897   0.219  0.0000  0.0000  0.0000
 5640OM     OM1 5640   5.246   3.105   0.400  0.0000  0.0000  0.0000
 5641OM     OM1 5641   5.058   3.045   0.231  0.0000  0.0000  0.0000
 5642OM     OM1 5642   7.664   7.235   0.658  0.0000  0.0000  0.0000
 5643OM     OM1 5643   7.847   7.099   0.799  0.0000  0.0000  0.0000
 5644OM     OM1 5644   7.672   7.237   0.923  0.0000  0.0000  0.0000
 5645OM     OM1 5645   7.843   7.367   0.776  0.0000  0.0000  0.0000
 5646OM     OM1 5646   1.781   9.112   8.654  0.0000  0.0000  0.0000
 5647OM     OM1 5647   1.807   9.078   8.916  0.0000  0.0000  0.0000
 5648OM     OM1 5648   1.775   9.311   8.814  0.0000  0.0000  0.0000
 5649OM     OM1 5649   3.910   4.199   9.261  0.0000  0.0000  0.0000
 5650OM     OM1 5650   3.770   4.415   9.264  0.0000  0.0000  0.0000
 5651OM     OM1 5651   3.842   4.296   9.492  0.0000  0.0000  0.0000
 5652OM     OM1 5652   4.028   4.412   9.356  0.0000  0.0000  0.0000
 5653OM     OM1 5653   8.988   9.119   9.314  0.0000  0.0000  0.0000
 5654OM     OM1 5654   9.132   9.311   9.240  0.0000  0.0000  0.0000
 5655OM     OM1 5655   9.311   9.128   9.203  0.0000  0.0000  0.0000
 5656OM     OM1 5656   2.137   1.056   9.341  0.0000  0.0000  0.0000
 5657OM     OM1 5657   2.034   1.188   9.130  0.0000  0.0000  0.0000
 5658OM     OM1 5658   2.194   1.305   9.295  0.0000  0.0000  0.0000
 5659OM     OM1 5659   2.288   1.099   9.146  0.0000  0.0000  0.0000
 5660OM     OM1 5660   1.109   5.369   1.025  0.0000  0.0000  0.0000
 5661OM     OM1 5661   1.612   6.026   9.469  0.0000  0.0000  0.0000
 5662OM     OM1 5662   1.647   6.260   9.394  0.0000  0.0000  0.0000
 5663OM     OM1 5663   1.457   6.149   9.282  0.0000  0.0000  0.0000
 5664OM     OM1 5664   0.311   6.674   8.667  0.0000  0.0000  0.0000
 5665OM     OM1 5665   0.311   6.423   8.761  0.0000  0.0000  0.0000
 5666OM     OM1 5666   0.311   6.468   8.505  0.0000  0.0000  0.0000
 5667OM     OM1 5667   2.275   7.811   0.506  0.0000  0.0000  0.0000
 5668OM     OM1 5668   2.254   8.068   0.493  0.0000  0.0000  0.0000
 5669OM     OM1 5669   2.176   7.950   0.703  0.0000  0.0000  0.0000
 5670OM     OM1 5670   4.243   0.163   8.657  0.0000  0.0000  0.0000
 5671OM     OM1 5671   4.240   0.028   8.432  0.0000  0.0000  0.0000
 5672OM     OM1 5672   4.021   0.082   8.549  0.0000  0.0000  0.0000
 5673OM     OM1 5673   4.176   0.273   8.428  0.0000  0.0000  0.0000
 5674OM     OM1 5674   0.154   2.726   9.413  0.0000  0.0000  0.0000
 5675OM     OM1 5675   9.512   2.713   9.475  0.0000  0.0000  0.0000
 5676OM     OM1 5676   0.070   2.865   0.010  0.0000  0.0000  0.0000
 5677OM     OM1 5677   0.083   2.604   0.031  0.0000  0.0000  0.0000
 5678OM     OM1 5678   1.991   1.011   0.209  0.0000  0.0000  0.0000
 5679OM     OM1 5679   2.082   0.966   9.575  0.0000  0.0000  0.0000
 5680OM     OM1 5680   2.058   1.212   0.058  0.0000  0.0000  0.0000
 5681OM     OM1 5681   1.854   0.249   0.149  0.0000  0.0000  0.0000
 5682OM     OM1 5682   1.972   0.031   0.222  0.0000  0.0000  0.0000
 5683OM     OM1 5683   2.037   5.565   9.533  0.0000  0.0000  0.0000
 5684OM     OM1 5684   2.166   5.346   9.475  0.0000  0.0000  0.0000
 5685OM     OM1 5685   2.243   5.498   0.072  0.0000  0.0000  0.0000
 5686OM     OM1 5686   7.330   1.241   0.661  0.0000  0.0000  0.0000
 5687OM     OM1 5687   7.579   1.156   0.663  0.0000  0.0000  0.0000
 5688OM     OM1 5688   7.469   1.283   0.875  0.0000  0.0000  0.0000
 5689OM     OM1 5689   2.786   6.872   9.264  0.0000  0.0000  0.0000
 5690OM     OM1 5690   2.962   6.829   9.074  0.0000  0.0000  0.0000
 5691OM     OM1 5691   1.526   5.300   0.425  0.0000  0.0000  0.0000
 5692OM     OM1 5692   1.414   5.091   0.347  0.0000  0.0000  0.0000
 5693OM     OM1 5693   1.683   5.086   0.386  0.0000  0.0000  0.0000
 5694OM     OM1 5694   4.047   8.974   1.063  0.0000  0.0000  0.0000
 5695OM     OM1 5695   4.128   8.766   0.917  0.0000  0.0000  0.0000
 5696OM     OM1 5696   1.250   2.272   9.588  0.0000  0.0000  0.0000
 5697OM     OM1 5697   1.370   2.455   0.128  0.0000  0.0000  0.0000
 5698OM     OM1 5698   1.423   2.201   0.149  0.0000  0.0000  0.0000
 5699OM     OM1 5699   1.189   2.291   0.239  0.0000  0.0000  0.0000
 5700OM     OM1 5700   3.166   4.986   0.840  0.0000  0.0000  0.0000
 5701OM     OM1 5701   2.954   4.916   0.710  0.0000  0.0000  0.0000
 5702OM     OM1 5702   3.179   4.942   0.571  0.0000  0.0000  0.0000
 5703OM     OM1 5703   6.385   0.553   8.875  0.0000  0.0000  0.0000
 5704OM     OM1 5704   6.532   0.705   8.722  0.0000  0.0000  0.0000
 5705OM     OM1 5705   6.274   0.695   8.690  0.0000  0.0000  0.0000
 5706OM     OM1 5706   5.431   0.363   0.926  0.0000  0.0000  0.0000
 5707OM     OM1 5707   5.717   0.615   0.658  0.0000  0.0000  0.0000
 5708OM     OM1 5708   5.664   0.437   0.846  0.0000  0.0000  0.0000
 5709OM     OM1 5709   1.695   5.722   1.199  0.0000  0.0000  0.0000
 5710OM     OM1 5710   1.841   5.522   1.127  0.0000  0.0000  0.0000
 5711OM     OM1 5711   3.778   3.740   8.867  0.0000  0.0000  0.0000
 5712OM     OM1 5712   3.723   3.758   9.120  0.0000  0.0000  0.0000
 5713OM     OM1 5713   7.721   5.377   8.566  0.0000  0.0000  0.0000
 5714OM     OM1 5714   7.768   5.599   8.426  0.0000  0.0000  0.0000
 5715OM     OM1 5715   1.916   7.987   8.431  0.0000  0.0000  0.0000
 5716OM     OM1 5716   1.782   8.201   8.485  0.0000  0.0000  0.0000
 5717OM     OM1 5717   2.022   8.205   8.370  0.0000  0.0000  0.0000
 5718OM     OM1 5718   2.195   6.262   0.238  0.0000  0.0000  0.0000
 5719OM     OM1 5719   2.234   6.477   0.381  0.0000  0.0000  0.0000
 5720OM     OM1 5720   2.169   6.247   0.493  0.0000  0.0000  0.0000
 5721OM     OM1 5721   2.402   6.274   0.390  0.0000  0.0000  0.0000
 5722OM     OM1 5722   1.755   8.687   0.449  0.0000  0.0000  0.0000
 5723OM     OM1 5723   1.860   8.920   0.494  0.0000  0.0000  0.0000
 5724OM     OM1 5724   2.010   8.731   0.389  0.0000  0.0000  0.0000
 5725OM     OM1 5725   7.877   6.685   1.098  0.0000  0.0000  0.0000
 5726OM     OM1 5726   8.025   6.479   1.181  0.0000  0.0000  0.0000
 5727OM     OM1 5727   7.774   6.497   1.246  0.0000  0.0000  0.0000
 5728OM     OM1 5728   0.963   2.262   8.728  0.0000  0.0000  0.0000
 5729OM     OM1 5729   0.917   2.180   8.978  0.0000  0.0000  0.0000
 5730OM     OM1 5730   0.763   2.354   8.874  0.0000  0.0000  0.0000
 5731OM     OM1 5731   9.504   6.371   9.270  0.0000  0.0000  0.0000
 5732OM     OM1 5732   9.517   6.269   9.025  0.0000  0.0000  0.0000
 5733OM     OM1 5733   3.040   6.983   0.683  0.0000  0.0000  0.0000
 5734OM     OM1 5734   3.176   7.179   0.789  0.0000  0.0000  0.0000
 5735OM     OM1 5735   5.419   2.090   8.325  0.0000  0.0000  0.0000
 5736OM     OM1 5736   5.385   1.828   8.270  0.0000  0.0000  0.0000
 5737OM     OM1 5737   0.648   8.639   8.320  0.0000  0.0000  0.0000
 5738OM     OM1 5738   2.336   4.619   0.549  0.0000  0.0000  0.0000
 5739OM     OM1 5739   2.171   4.470   0.694  0.0000  0.0000  0.0000
 5740OM     OM1 5740   2.341   4.358   0.529  0.0000  0.0000  0.0000
 5741OM     OM1 5741   2.136   4.500   0.437  0.0000  0.0000  0.0000
 5742OM     OM1 5742   4.966   2.477   0.619  0.0000  0.0000  0.0000
 5743OM     OM1 5743   4.866   2.410   0.391  0.0000  0.0000  0.0000
 5744OM     OM1 5744   5.241   2.481   0.627  0.0000  0.0000  0.0000
 5745OM     OM1 5745   5.575   1.625   0.000  0.0000  0.0000  0.0000
 5746OM     OM1 5746   5.420   1.570   9.396  0.0000  0.0000  0.0000
 5747OM     OM1 5747   4.542   5.798   8.527  0.0000  0.0000  0.0000
 5748OM     OM1 5748   4.511   5.827   8.781  0.0000  0.0000  0.0000
 5749OM     OM1 5749   8.570   3.069   0.042  0.0000  0.0000  0.0000
 5750OM     OM1 5750   8.478   3.115   9.409  0.0000  0.0000  0.0000
 5751OM     OM1 5751   6.739   3.460   8.512  0.0000  0.0000  0.0000
 5752OM     OM1 5752   6.958   3.411   8.369  0.0000  0.0000  0.0000
 5753OM     OM1 5753   8.135   8.049   0.296  0.0000  0.0000  0.0000
 5754OM     OM1 5754   8.075   8.252   0.137  0.0000  0.0000  0.0000
 5755OM     OM1 5755   7.890   8.084   0.183  0.0000  0.0000  0.0000
 5756OM     OM1 5756   9.069   3.319   9.586  0.0000  0.0000  0.0000
 5757OM     OM1 5757   9.101   3.484   9.385  0.0000  0.0000  0.0000
 5758OM     OM1 5758   9.099   3.562   0.027  0.0000  0.0000  0.0000
 5759OM     OM1 5759   6.649   7.903   8.508  0.0000  0.0000  0.0000
 5760OM     OM1 5760   6.879   7.803   8.521  0.0000  0.0000  0.0000
 5761OM     OM1 5761   5.129   0.673   8.560  0.0000  0.0000  0.0000
 5762OM     OM1 5762   5.210   0.557   8.340  0.0000  0.0000  0.0000
 5763OM     OM1 5763   4.952   0.648   8.365  0.0000  0.0000  0.0000
 5764OM     OM1 5764   5.038   0.556   8.758  0.0000  0.0000  0.0000
 5765OM     OM1 5765   6.769   7.572   0.905  0.0000  0.0000  0.0000
 5766OM     OM1 5766   6.994   7.461   0.850  0.0000  0.0000  0.0000
 5767OM     OM1 5767   8.163   3.033   9.517  0.0000  0.0000  0.0000
 5768OM     OM1 5768   8.019   3.100   9.318  0.0000  0.0000  0.0000
 5769OM     OM1 5769   8.098   3.292   9.472  0.0000  0.0000  0.0000
 5770OM     OM1 5770   8.263   3.167   9.306  0.0000  0.0000  0.0000
 5771OM     OM1 5771   2.936   9.473   8.978  0.0000  0.0000  0.0000
 5772OM     OM1 5772   2.432   7.500   8.518  0.0000  0.0000  0.0000
 5773OM     OM1 5773   2.285   7.373   8.687  0.0000  0.0000  0.0000
 5774OM     OM1 5774   8.156   4.714   8.416  0.0000  0.0000  0.0000
 5775OM     OM1 5775   8.135   4.973   8.428  0.0000  0.0000  0.0000
 5776OM     OM1 5776   7.921   4.815   8.418  0.0000  0.0000  0.0000
 5777OM     OM1 5777   8.104   0.512   0.289  0.0000  0.0000  0.0000
 5778OM     OM1 5778   8.021   0.633   0.064  0.0000  0.0000  0.0000
 5779OM     OM1 5779   8.243   0.487   0.070  0.0000  0.0000  0.0000
 5780OM     OM1 5780   0.213   2.564   0.251  0.0000  0.0000  0.0000
 5781OM     OM1 5781   0.041   2.387   0.169  0.0000  0.0000  0.0000
 5782OM     OM1 5782   9.562   2.626   0.253  0.0000  0.0000  0.0000
 5783OM     OM1 5783   3.565   8.108   0.093  0.0000  0.0000  0.0000
 5784OM     OM1 5784   3.719   8.068   0.296  0.0000  0.0000  0.0000
 5785OM     OM1 5785   3.608   8.304   0.265  0.0000  0.0000  0.0000
 5786OM     OM1 5786   6.262   8.137   8.618  0.0000  0.0000  0.0000
 5787OM     OM1 5787   4.352   3.229   0.740  0.0000  0.0000  0.0000
 5788OM     OM1 5788   4.595   3.280   0.649  0.0000  0.0000  0.0000
 5789OM     OM1 5789   4.387   3.418   0.570  0.0000  0.0000  0.0000
 5790OM     OM1 5790   4.477   3.451   0.814  0.0000  0.0000  0.0000
 5791OM     OM1 5791   4.008   5.668   0.763  0.0000  0.0000  0.0000
 5792OM     OM1 5792   3.920   5.845   0.935  0.0000  0.0000  0.0000
 5793OM     OM1 5793   3.710   5.937   0.826  0.0000  0.0000  0.0000
 5794OM     OM1 5794   7.012   2.643   0.993  0.0000  0.0000  0.0000
 5795OM     OM1 5795   6.887   2.566   0.619  0.0000  0.0000  0.0000
 5796OM     OM1 5796   7.083   2.714   0.528  0.0000  0.0000  0.0000
 5797OM     OM1 5797   6.982   2.757   0.767  0.0000  0.0000  0.0000
 5798OM     OM1 5798   0.312   5.027   8.779  0.0000  0.0000  0.0000
 5799OM     OM1 5799   0.245   4.800   8.899  0.0000  0.0000  0.0000
 5800OM     OM1 5800   0.300   4.799   8.644  0.0000  0.0000  0.0000
 5801OM     OM1 5801   0.490   4.842   8.818  0.0000  0.0000  0.0000
 5802OM     OM1 5802   8.480   0.980   0.535  0.0000  0.0000  0.0000
 5803OM     OM1 5803   7.324   0.800   9.171  0.0000  0.0000  0.0000
 5804OM     OM1 5804   7.219   0.938   8.980  0.0000  0.0000  0.0000
 5805OM     OM1 5805   7.485   0.919   9.009  0.0000  0.0000  0.0000
 5806OM     OM1 5806   4.753   3.131   0.485  0.0000  0.0000  0.0000
 5807OM     OM1 5807   4.686   2.875   0.446  0.0000  0.0000  0.0000
 5808OM     OM1 5808   4.563   3.079   0.332  0.0000  0.0000  0.0000
 5809OM     OM1 5809   4.806   3.009   0.254  0.0000  0.0000  0.0000
 5810OM     OM1 5810   9.348   8.595   8.642  0.0000  0.0000  0.0000
 5811OM     OM1 5811   9.584   8.483   8.638  0.0000  0.0000  0.0000
 5812OM     OM1 5812   4.040   4.140   0.493  0.0000  0.0000  0.0000
 5813OM     OM1 5813   3.925   4.055   0.719  0.0000  0.0000  0.0000
 5814OM     OM1 5814   3.802   4.220   0.560  0.0000  0.0000  0.0000
 5815OM     OM1 5815   7.056   8.006   8.573  0.0000  0.0000  0.0000
 5816OM     OM1 5816   7.094   8.271   8.640  0.0000  0.0000  0.0000
 5817OM     OM1 5817   7.024   8.103   8.811  0.0000  0.0000  0.0000
 5818OM     OM1 5818   5.358   7.256   0.330  0.0000  0.0000  0.0000
 5819OM     OM1 5819   5.207   7.436   0.225  0.0000  0.0000  0.0000
 5820OM     OM1 5820   3.748   0.562   9.017  0.0000  0.0000  0.0000
 5821OM     OM1 5821   4.126   0.248   8.871  0.0000  0.0000  0.0000
 5822OM     OM1 5822   1.303   4.094   0.792  0.0000  0.0000  0.0000
 5823OM     OM1 5823   1.285   4.277   0.607  0.0000  0.0000  0.0000
 5824OM     OM1 5824   6.571   1.005   9.081  0.0000  0.0000  0.0000
 5825OM     OM1 5825   6.796   1.027   9.212  0.0000  0.0000  0.0000
 5826OM     OM1 5826   7.015   1.051   9.083  0.0000  0.0000  0.0000
 5827OM     OM1 5827   6.934   1.255   9.227  0.0000  0.0000  0.0000
 5828OM     OM1 5828   0.546   5.689   1.124  0.0000  0.0000  0.0000
 5829OM     OM1 5829   0.372   5.643   1.304  0.0000  0.0000  0.0000
 5830OM     OM1 5830   9.018   4.700   1.326  0.0000  0.0000  0.0000
 5831OM     OM1 5831   8.001   0.508   0.529  0.0000  0.0000  0.0000
 5832OM     OM1 5832   3.900   7.541   1.103  0.0000  0.0000  0.0000
 5833OM     OM1 5833   3.741   7.628   1.291  0.0000  0.0000  0.0000
 5834OM     OM1 5834   3.981   7.711   1.291  0.0000  0.0000  0.0000
 5835OM     OM1 5835   5.485   5.666   9.325  0.0000  0.0000  0.0000
 5836OM     OM1 5836   5.493   5.916   9.262  0.0000  0.0000  0.0000
 5837OM     OM1 5837   5.477   6.055   9.034  0.0000  0.0000  0.0000
 5838OM     OM1 5838   5.681   6.083   9.182  0.0000  0.0000  0.0000
 5839OM     OM1 5839   1.336   3.468   1.286  0.0000  0.0000  0.0000
 5840OM     OM1 5840   1.457   3.698   1.283  0.0000  0.0000  0.0000
 5841OM     OM1 5841   1.215   3.676   1.185  0.0000  0.0000  0.0000
 5842OM     OM1 5842   1.396   3.547   1.065  0.0000  0.0000  0.0000
 5843OM     OM1 5843   5.619   0.404   1.106  0.0000  0.0000  0.0000
 5844OM     OM1 5844   5.857   0.599   0.883  0.0000  0.0000  0.0000
 5845OM     OM1 5845   6.172   3.862   8.296  0.0000  0.0000  0.0000
 5846OM     OM1 5846   6.411   3.734   8.257  0.0000  0.0000  0.0000
 5847OM     OM1 5847   7.674   0.609   8.576  0.0000  0.0000  0.0000
 5848OM     OM1 5848   7.642   0.806   8.400  0.0000  0.0000  0.0000
 5849OM     OM1 5849   7.509   0.597   8.377  0.0000  0.0000  0.0000
 5850OM     OM1 5850   6.489   9.208   0.324  0.0000  0.0000  0.0000
 5851OM     OM1 5851   6.554   9.449   0.247  0.0000  0.0000  0.0000
 5852OM     OM1 5852   6.342   9.419   0.390  0.0000  0.0000  0.0000
 5853OM     OM1 5853   7.092   5.892   0.294  0.0000  0.0000  0.0000
 5854OM     OM1 5854   8.839   3.426   1.159  0.0000  0.0000  0.0000
 5855OM     OM1 5855   9.007   3.484   0.973  0.0000  0.0000  0.0000
 5856OM     OM1 5856   8.974   3.655   1.177  0.0000  0.0000  0.0000
 5857OM     OM1 5857   8.789   3.632   0.998  0.0000  0.0000  0.0000
 5858OM     OM1 5858   7.495   0.118   0.238  0.0000  0.0000  0.0000
 5859OM     OM1 5859   7.248   0.066   0.282  0.0000  0.0000  0.0000
 5860OM     OM1 5860   2.856   8.821   8.442  0.0000  0.0000  0.0000
 5861OM     OM1 5861   2.811   8.915   8.674  0.0000  0.0000  0.0000
 5862OM     OM1 5862   5.962   2.841   8.686  0.0000  0.0000  0.0000
 5863OM     OM1 5863   5.824   2.893   9.122  0.0000  0.0000  0.0000
 5864OM     OM1 5864   5.818   2.794   8.899  0.0000  0.0000  0.0000
 5865OM     OM1 5865   1.609   4.926   8.625  0.0000  0.0000  0.0000
 5866OM     OM1 5866   1.389   5.059   8.562  0.0000  0.0000  0.0000
 5867OM     OM1 5867   1.462   5.029   8.810  0.0000  0.0000  0.0000
 5868OM     OM1 5868   0.776   6.458   0.076  0.0000  0.0000  0.0000
 5869OM     OM1 5869   0.940   6.249   0.108  0.0000  0.0000  0.0000
 5870OM     OM1 5870   3.912   2.789   0.880  0.0000  0.0000  0.0000
 5871OM     OM1 5871   3.714   2.883   1.024  0.0000  0.0000  0.0000
 5872OM     OM1 5872   3.694   2.886   0.761  0.0000  0.0000  0.0000
 5873OM     OM1 5873   6.097   5.920   0.349  0.0000  0.0000  0.0000
 5874OM     OM1 5874   6.179   6.170   0.401  0.0000  0.0000  0.0000
 5875OM     OM1 5875   6.112   6.098   0.159  0.0000  0.0000  0.0000
 5876OM     OM1 5876   2.063   7.497   9.523  0.0000  0.0000  0.0000
 5877OM     OM1 5877   1.919   7.640   0.070  0.0000  0.0000  0.0000
 5878OM     OM1 5878   2.096   7.763   9.521  0.0000  0.0000  0.0000
 5879OM     OM1 5879   2.184   7.619   0.110  0.0000  0.0000  0.0000
 5880OM     OM1 5880   5.645   7.710   8.963  0.0000  0.0000  0.0000
 5881OM     OM1 5881   5.635   7.944   9.049  0.0000  0.0000  0.0000
 5882OM     OM1 5882   5.748   7.754   9.202  0.0000  0.0000  0.0000
 5883OM     OM1 5883   5.861   7.865   8.977  0.0000  0.0000  0.0000
 5884OM     OM1 5884   2.306   1.500   0.826  0.0000  0.0000  0.0000
 5885OM     OM1 5885   2.364   1.474   0.564  0.0000  0.0000  0.0000
 5886OM     OM1 5886   2.362   1.713   0.676  0.0000  0.0000  0.0000
 5887OM     OM1 5887   2.109   3.060   8.645  0.0000  0.0000  0.0000
 5888OM     OM1 5888   2.025   2.804   8.623  0.0000  0.0000  0.0000
 5889OM     OM1 5889   1.819   3.827   9.582  0.0000  0.0000  0.0000
 5890OM     OM1 5890   1.936   3.976   0.162  0.0000  0.0000  0.0000
 5891OM     OM1 5891   1.817   3.747   0.222  0.0000  0.0000  0.0000
 5892OM     OM1 5892   1.205   9.482   1.070  0.0000  0.0000  0.0000
 5893OM     OM1 5893   1.137   9.238   1.076  0.0000  0.0000  0.0000
 5894OM     OM1 5894   1.395   9.300   1.108  0.0000  0.0000  0.0000
 5895OM     OM1 5895   5.154   5.664   9.115  0.0000  0.0000  0.0000
 5896OM     OM1 5896   5.176   5.452   8.965  0.0000  0.0000  0.0000
 5897OM     OM1 5897   5.002   5.449   9.154  0.0000  0.0000  0.0000
 5898OM     OM1 5898   6.574   5.539   1.047  0.0000  0.0000  0.0000
 5899OM     OM1 5899   6.749   5.607   0.869  0.0000  0.0000  0.0000
 5900OM     OM1 5900   6.574   5.783   0.931  0.0000  0.0000  0.0000
 5901OM     OM1 5901   3.239   5.838   0.287  0.0000  0.0000  0.0000
 5902OM     OM1 5902   3.234   5.708   0.065  0.0000  0.0000  0.0000
 5903OM     OM1 5903   3.471   5.773   0.169  0.0000  0.0000  0.0000
 5904OM     OM1 5904   9.290   3.939   8.870  0.0000  0.0000  0.0000
 5905OM     OM1 5905   9.175   3.721   8.963  0.0000  0.0000  0.0000
 5906OM     OM1 5906   9.027   3.894   8.843  0.0000  0.0000  0.0000
 5907OM     OM1 5907   9.193   3.763   8.698  0.0000  0.0000  0.0000
 5908OM     OM1 5908   0.465   0.106   8.896  0.0000  0.0000  0.0000
 5909OM     OM1 5909   0.280   9.520   8.894  0.0000  0.0000  0.0000
 5910OM     OM1 5910   0.290   0.077   9.090  0.0000  0.0000  0.0000
 5911OM     OM1 5911   2.242   5.136   9.313  0.0000  0.0000  0.0000
 5912OM     OM1 5912   2.426   5.114   9.121  0.0000  0.0000  0.0000
 5913OM     OM1 5913   2.374   4.908   9.254  0.0000  0.0000  0.0000
 5914OM     OM1 5914   2.224   4.072   8.705  0.0000  0.0000  0.0000
 5915OM     OM1 5915   2.129   4.017   8.931  0.0000  0.0000  0.0000
 5916OM     OM1 5916   2.109   3.838   8.735  0.0000  0.0000  0.0000
 5917OM     OM1 5917   5.564   8.790   8.880  0.0000  0.0000  0.0000
 5918OM     OM1 5918   5.726   8.941   9.006  0.0000  0.0000  0.0000
 5919OM     OM1 5919   3.924   4.761   1.412  0.0000  0.0000  0.0000
 5920OM     OM1 5920   6.622   0.926   9.595  0.0000  0.0000  0.0000
 5921OM     OM1 5921   6.598   0.911   9.329  0.0000  0.0000  0.0000
 5922OM     OM1 5922   6.553   1.136   9.451  0.0000  0.0000  0.0000
 5923OM     OM1 5923   3.023   5.300   9.513  0.0000  0.0000  0.0000
 5924OM     OM1 5924   3.199   5.363   0.081  0.0000  0.0000  0.0000
 5925OM     OM1 5925   3.120   5.542   9.514  0.0000  0.0000  0.0000
 5926OM     OM1 5926   0.887   7.625   0.525  0.0000  0.0000  0.0000
 5927OM     OM1 5927   1.199   7.626   0.659  0.0000  0.0000  0.0000
 5928OM     OM1 5928   1.835   6.280   1.013  0.0000  0.0000  0.0000
 5929OM     OM1 5929   2.073   6.199   0.961  0.0000  0.0000  0.0000
 5930OM     OM1 5930   9.522   2.129   0.413  0.0000  0.0000  0.0000
 5931OM     OM1 5931   9.428   1.950   0.257  0.0000  0.0000  0.0000
 5932OM     OM1 5932   9.501   2.177   0.154  0.0000  0.0000  0.0000
 5933OM     OM1 5933   9.288   2.173   0.299  0.0000  0.0000  0.0000
 5934OM     OM1 5934   1.555   5.405   0.704  0.0000  0.0000  0.0000
 5935OM     OM1 5935   8.485   7.130   9.204  0.0000  0.0000  0.0000
 5936OM     OM1 5936   8.285   7.205   9.360  0.0000  0.0000  0.0000
 5937OM     OM1 5937   9.194   4.383   9.105  0.0000  0.0000  0.0000
 5938OM     OM1 5938   9.305   4.177   8.976  0.0000  0.0000  0.0000
 5939OM     OM1 5939   1.515   8.622   0.881  0.0000  0.0000  0.0000
 5940OM     OM1 5940   1.573   8.679   1.119  0.0000  0.0000  0.0000
 5941OM     OM1 5941   1.769   8.616   0.946  0.0000  0.0000  0.0000
 5942OM     OM1 5942   1.616   8.433   1.030  0.0000  0.0000  0.0000
 5943OM     OM1 5943   5.197   2.083   0.373  0.0000  0.0000  0.0000
 5944OM     OM1 5944   5.377   2.268   0.418  0.0000  0.0000  0.0000
 5945OM     OM1 5945   5.112   2.312   0.396  0.0000  0.0000  0.0000
 5946OM     OM1 5946   0.481   8.570   0.831  0.0000  0.0000  0.0000
 5947OM     OM1 5947   0.438   8.442   0.609  0.0000  0.0000  0.0000
 5948OM     OM1 5948   0.241   8.468   0.785  0.0000  0.0000  0.0000
 5949OM     OM1 5949   1.389   7.644   0.403  0.0000  0.0000  0.0000
 5950OM     OM1 5950   1.418   7.901   0.386  0.0000  0.0000  0.0000
 5951OM     OM1 5951   1.618   7.740   0.453  0.0000  0.0000  0.0000
 5952OM     OM1 5952   1.412   7.775   0.619  0.0000  0.0000  0.0000
 5953OM     OM1 5953   4.763   9.464   0.250  0.0000  0.0000  0.0000
 5954OM     OM1 5954   4.896   0.079   0.318  0.0000  0.0000  0.0000
 5955OM     OM1 5955   4.799   9.540   0.492  0.0000  0.0000  0.0000
 5956OM     OM1 5956   4.629   0.061   0.340  0.0000  0.0000  0.0000
 5957OM     OM1 5957   7.968   0.294   9.465  0.0000  0.0000  0.0000
 5958OM     OM1 5958   7.887   0.348   0.092  0.0000  0.0000  0.0000
 5959OM     OM1 5959   7.854   0.522   9.507  0.0000  0.0000  0.0000
 5960OM     OM1 5960   7.700   0.319   9.508  0.0000  0.0000  0.0000
 5961OM     OM1 5961   3.485   5.876   1.120  0.0000  0.0000  0.0000
 5962OM     OM1 5962   3.396   5.693   0.960  0.0000  0.0000  0.0000
 5963OM     OM1 5963   2.588   6.859   1.112  0.0000  0.0000  0.0000
 5964OM     OM1 5964   2.704   7.161   1.196  0.0000  0.0000  0.0000
 5965OM     OM1 5965   2.760   6.932   1.287  0.0000  0.0000  0.0000
 5966OM     OM1 5966   3.897   1.638   0.193  0.0000  0.0000  0.0000
 5967OM     OM1 5967   4.055   1.649   0.405  0.0000  0.0000  0.0000
 5968OM     OM1 5968   8.084   3.912   1.067  0.0000  0.0000  0.0000
 5969OM     OM1 5969   8.212   3.703   1.182  0.0000  0.0000  0.0000
 5970OM     OM1 5970   3.401   4.669   8.696  0.0000  0.0000  0.0000
 5971OM     OM1 5971   3.531   4.467   8.813  0.0000  0.0000  0.0000
 5972OM     OM1 5972   3.325   4.415   8.669  0.0000  0.0000  0.0000
 5973OM     OM1 5973   3.445   4.802   8.898  0.0000  0.0000  0.0000
 5974OM     OM1 5974   5.592   9.026   1.411  0.0000  0.0000  0.0000
 5975OM     OM1 5975   5.821   9.107   1.314  0.0000  0.0000  0.0000
 5976OM     OM1 5976   3.561   5.599   0.782  0.0000  0.0000  0.0000
 5977OM     OM1 5977   3.790   5.627   0.901  0.0000  0.0000  0.0000
 5978OM     OM1 5978   4.680   4.764   0.864  0.0000  0.0000  0.0000
 5979OM     OM1 5979   4.787   5.167   1.064  0.0000  0.0000  0.0000
 5980OM     OM1 5980   4.826   4.911   1.013  0.0000  0.0000  0.0000
 5981OM     OM1 5981   4.616   4.802   1.118  0.0000  0.0000  0.0000
 5982OM     OM1 5982   1.820   8.908   1.079  0.0000  0.0000  0.0000
 5983OM     OM1 5983   1.963   9.085   0.942  0.0000  0.0000  0.0000
 5984OM     OM1 5984   3.560   4.199   0.454  0.0000  0.0000  0.0000
 5985OM     OM1 5985   3.727   4.368   0.356  0.0000  0.0000  0.0000
 5986OM     OM1 5986   3.634   4.411   0.602  0.0000  0.0000  0.0000
 5987OM     OM1 5987   6.700   3.662   8.999  0.0000  0.0000  0.0000
 5988OM     OM1 5988   6.739   3.908   9.067  0.0000  0.0000  0.0000
 5989OM     OM1 5989   7.040   7.611   0.630  0.0000  0.0000  0.0000
 5990OM     OM1 5990   7.137   7.764   0.449  0.0000  0.0000  0.0000
 5991OM     OM1 5991   6.152   2.945   1.190  0.0000  0.0000  0.0000
 5992OM     OM1 5992   6.377   3.071   1.141  0.0000  0.0000  0.0000
 5993OM     OM1 5993   1.237   5.609   9.134  0.0000  0.0000  0.0000
 5994OM     OM1 5994   1.106   5.535   8.922  0.0000  0.0000  0.0000
 5995OM     OM1 5995   1.364   5.481   8.948  0.0000  0.0000  0.0000
 5996OM     OM1 5996   1.294   5.726   8.906  0.0000  0.0000  0.0000
 5997OM     OM1 5997   5.776   3.271   1.425  0.0000  0.0000  0.0000
 5998OM     OM1 5998   5.837   3.013   1.431  0.0000  0.0000  0.0000
 5999OM     OM1 5999   4.824   6.816   0.233  0.0000  0.0000  0.0000
 6000OM     OM1 6000   2.641   3.422   1.347  0.0000  0.0000  0.0000
 6001OM     OM1 6001   2.461   3.598   1.296  0.0000  0.0000  0.0000
 6002OM     OM1 6002   5.855   0.826   9.034  0.0000  0.0000  0.0000
 6003OM     OM1 6003   5.642   0.943   9.132  0.0000  0.0000  0.0000
 6004OM     OM1 6004   5.648   0.687   9.109  0.0000  0.0000  0.0000
 6005OM     OM1 6005   3.952   7.087   8.428  0.0000  0.0000  0.0000
 6006OM     OM1 6006   3.932   6.821   8.440  0.0000  0.0000  0.0000
 6007OM     OM1 6007   4.921   3.311   9.455  0.0000  0.0000  0.0000
 6008OM     OM1 6008   4.942   3.455   0.070  0.0000  0.0000  0.0000
 6009OM     OM1 6009   4.886   3.205   0.099  0.0000  0.0000  0.0000
 6010OM     OM1 6010   5.115   3.266   0.016  0.0000  0.0000  0.0000
 6011OM     OM1 6011   9.373   4.174   9.508  0.0000  0.0000  0.0000
 6012OM     OM1 6012   9.340   3.924   9.562  0.0000  0.0000  0.0000
 6013OM     OM1 6013   8.421   9.472   8.435  0.0000  0.0000  0.0000
 6014OM     OM1 6014   8.674   9.399   8.438  0.0000  0.0000  0.0000
 6015OM     OM1 6015   8.503   9.303   8.610  0.0000  0.0000  0.0000
 6016OM     OM1 6016   5.286   4.688   0.801  0.0000  0.0000  0.0000
 6017OM     OM1 6017   5.290   4.422   0.771  0.0000  0.0000  0.0000
 6018OM     OM1 6018   5.353   4.584   0.571  0.0000  0.0000  0.0000
 6019OM     OM1 6019   5.106   4.555   0.656  0.0000  0.0000  0.0000
 6020OM     OM1 6020   6.948   8.662   9.023  0.0000  0.0000  0.0000
 6021OM     OM1 6021   7.136   8.749   9.186  0.0000  0.0000  0.0000
 6022OM     OM1 6022   2.614   2.373   9.523  0.0000  0.0000  0.0000
 6023OM     OM1 6023   2.512   2.606   9.553  0.0000  0.0000  0.0000
 6024OM     OM1 6024   2.728   2.531   0.084  0.0000  0.0000  0.0000
 6025OM     OM1 6025   2.731   2.573   9.417  0.0000  0.0000  0.0000
 6026OM     OM1 6026   4.262   5.531   8.258  0.0000  0.0000  0.0000
 6027OM     OM1 6027   4.362   5.741   8.367  0.0000  0.0000  0.0000
 6028OM     OM1 6028   4.309   0.969   1.002  0.0000  0.0000  0.0000
 6029OM     OM1 6029   4.193   0.926   0.776  0.0000  0.0000  0.0000
 6030OM     OM1 6030   4.431   0.821   0.829  0.0000  0.0000  0.0000
 6031OM     OM1 6031   7.405   3.657   1.294  0.0000  0.0000  0.0000
 6032OM     OM1 6032   7.586   3.818   1.268  0.0000  0.0000  0.0000
 6033OM     OM1 6033   2.693   2.770   0.609  0.0000  0.0000  0.0000
 6034OM     OM1 6034   2.905   2.646   0.669  0.0000  0.0000  0.0000
 6035OM     OM1 6035   3.303   5.684   9.282  0.0000  0.0000  0.0000
 6036OM     OM1 6036   3.546   5.740   9.361  0.0000  0.0000  0.0000
 6037OM     OM1 6037   3.511   5.595   9.145  0.0000  0.0000  0.0000
 6038OM     OM1 6038   4.904   8.413   8.278  0.0000  0.0000  0.0000
 6039OM     OM1 6039   6.995   9.371   8.602  0.0000  0.0000  0.0000
 6040OM     OM1 6040   6.963   9.511   8.813  0.0000  0.0000  0.0000
 6041OM     OM1 6041   7.056   9.275   8.844  0.0000  0.0000  0.0000
 6042OM     OM1 6042   6.812   9.292   8.781  0.0000  0.0000  0.0000
 6043OM     OM1 6043   4.985   1.290   0.067  0.0000  0.0000  0.0000
 6044OM     OM1 6044   4.801   1.319   9.473  0.0000  0.0000  0.0000
 6045OM     OM1 6045   4.836   1.499   0.041  0.0000  0.0000  0.0000
 6046OM     OM1 6046   4.729   1.260   0.109  0.0000  0.0000  0.0000
 6047OM     OM1 6047   4.763   6.040   0.286  0.0000  0.0000  0.0000
 6048OM     OM1 6048   4.831   5.862   0.120  0.0000  0.0000  0.0000
 6049OM     OM1 6049   4.720   5.798   0.351  0.0000  0.0000  0.0000
 6050OM     OM1 6050   1.503   9.496   9.147  0.0000  0.0000  0.0000
 6051OM     OM1 6051   4.383   1.053   1.241  0.0000  0.0000  0.0000
 6052OM     OM1 6052   6.681   6.020   0.851  0.0000  0.0000  0.0000
 6053OM     OM1 6053   6.782   6.262   0.900  0.0000  0.0000  0.0000
 6054OM     OM1 6054   6.932   6.048   0.903  0.0000  0.0000  0.0000
 6055OM     OM1 6055   6.627   8.607   8.657  0.0000  0.0000  0.0000
 6056OM     OM1 6056   6.769   8.634   8.460  0.0000  0.0000  0.0000
 6057OM     OM1 6057   6.528   8.709   8.428  0.0000  0.0000  0.0000
 6058OM     OM1 6058   0.977   7.274   9.511  0.0000  0.0000  0.0000
 6059OM     OM1 6059   0.969   7.513   9.407  0.0000  0.0000  0.0000
 6060OM     OM1 6060   0.757   7.353   9.395  0.0000  0.0000  0.0000
 6061OM     OM1 6061   2.455   9.355   0.089  0.0000  0.0000  0.0000
 6062OM     OM1 6062   3.824   8.179   0.499  0.0000  0.0000  0.0000
 6063OM     OM1 6063   4.005   8.248   0.666  0.0000  0.0000  0.0000
 6064OM     OM1 6064   3.967   8.399   0.456  0.0000  0.0000  0.0000
 6065OM     OM1 6065   7.482   7.694   9.190  0.0000  0.0000  0.0000
 6066OM     OM1 6066   7.496   7.941   9.118  0.0000  0.0000  0.0000
 6067OM     OM1 6067   7.583   7.866   9.356  0.0000  0.0000  0.0000
 6068OM     OM1 6068   7.072   5.165   0.056  0.0000  0.0000  0.0000
 6069OM     OM1 6069   7.216   5.363   9.535  0.0000  0.0000  0.0000
 6070OM     OM1 6070   4.550   7.842   8.570  0.0000  0.0000  0.0000
 6071OM     OM1 6071   4.351   7.995   8.576  0.0000  0.0000  0.0000
 6072OM     OM1 6072   4.571   8.052   8.714  0.0000  0.0000  0.0000
 6073OM     OM1 6073   4.566   8.083   8.456  0.0000  0.0000  0.0000
 6074OM     OM1 6074   6.278   2.691   9.070  0.0000  0.0000  0.0000
 6075OM     OM1 6075   6.063   2.816   9.049  0.0000  0.0000  0.0000
 6076OM     OM1 6076   7.086   3.175   0.946  0.0000  0.0000  0.0000
 6077OM     OM1 6077   6.851   3.226   1.029  0.0000  0.0000  0.0000
 6078OM     OM1 6078   6.975   3.422   0.895  0.0000  0.0000  0.0000
 6079OM     OM1 6079   2.686   6.402   1.161  0.0000  0.0000  0.0000
 6080OM     OM1 6080   2.910   6.558   1.188  0.0000  0.0000  0.0000
 6081OM     OM1 6081   0.357   4.873   0.625  0.0000  0.0000  0.0000
 6082OM     OM1 6082   0.526   4.954   0.809  0.0000  0.0000  0.0000
 6083OM     OM1 6083   0.535   5.053   0.561  0.0000  0.0000  0.0000
 6084OM     OM1 6084   0.404   2.685   0.120  0.0000  0.0000  0.0000
 6085OM     OM1 6085   0.651   2.705   0.044  0.0000  0.0000  0.0000
 6086OM     OM1 6086   0.474   2.531   9.533  0.0000  0.0000  0.0000
 6087OM     OM1 6087   0.477   2.786   9.486  0.0000  0.0000  0.0000
 6088OM     OM1 6088   4.756   9.244   1.282  0.0000  0.0000  0.0000
 6089OM     OM1 6089   4.919   9.018   1.295  0.0000  0.0000  0.0000
 6090OM     OM1 6090   9.489   2.799   9.040  0.0000  0.0000  0.0000
 6091OM     OM1 6091   0.031   3.000   8.973  0.0000  0.0000  0.0000
 6092OM     OM1 6092   0.098   2.832   9.177  0.0000  0.0000  0.0000
 6093OM     OM1 6093   0.129   2.765   8.935  0.0000  0.0000  0.0000
 6094OM     OM1 6094   3.195   8.691   9.247  0.0000  0.0000  0.0000
 6095OM     OM1 6095   3.452   8.714   9.173  0.0000  0.0000  0.0000
 6096OM     OM1 6096   3.310   8.520   9.088  0.0000  0.0000  0.0000
 6097OM     OM1 6097   2.368   1.421   8.606  0.0000  0.0000  0.0000
 6098OM     OM1 6098   2.212   1.296   8.779  0.0000  0.0000  0.0000
 6099OM     OM1 6099   6.944   9.101   1.297  0.0000  0.0000  0.0000
 6100OM     OM1 6100   6.776   9.307   1.291  0.0000  0.0000  0.0000
 6101OM     OM1 6101   7.031   9.339   1.261  0.0000  0.0000  0.0000
 6102OM     OM1 6102   5.660   0.686   9.371  0.0000  0.0000  0.0000
 6103OM     OM1 6103   5.714   0.472   9.252  0.0000  0.0000  0.0000
 6104OM     OM1 6104   2.843   5.271   9.329  0.0000  0.0000  0.0000
 6105OM     OM1 6105   2.605   5.276   9.221  0.0000  0.0000  0.0000
 6106OM     OM1 6106   2.794   5.402   9.111  0.0000  0.0000  0.0000
 6107OM     OM1 6107   2.713   5.493   9.344  0.0000  0.0000  0.0000
 6108OM     OM1 6108   0.336   2.902   8.312  0.0000  0.0000  0.0000
 6109OM     OM1 6109   0.245   3.063   8.494  0.0000  0.0000  0.0000
 6110OM     OM1 6110   0.472   3.117   8.369  0.0000  0.0000  0.0000
 6111OM     OM1 6111   8.088   1.987   0.313  0.0000  0.0000  0.0000
 6112OM     OM1 6112   8.497   2.225   0.456  0.0000  0.0000  0.0000
 6113OM     OM1 6113   8.296   2.062   0.463  0.0000  0.0000  0.0000
 6114OM     OM1 6114   8.528   5.255   0.757  0.0000  0.0000  0.0000
 6115OM     OM1 6115   8.687   5.581   0.542  0.0000  0.0000  0.0000
 6116OM     OM1 6116   7.784   7.787   8.293  0.0000  0.0000  0.0000
 6117OM     OM1 6117   7.590   7.918   8.425  0.0000  0.0000  0.0000
 6118OM     OM1 6118   3.643   4.839   9.448  0.0000  0.0000  0.0000
 6119OM     OM1 6119   3.219   1.703   0.838  0.0000  0.0000  0.0000
 6120OM     OM1 6120   3.391   1.520   0.912  0.0000  0.0000  0.0000
 6121OM     OM1 6121   3.478   1.748   0.828  0.0000  0.0000  0.0000
 6122OM     OM1 6122   1.465   1.634   1.214  0.0000  0.0000  0.0000
 6123OM     OM1 6123   1.484   1.375   1.211  0.0000  0.0000  0.0000
 6124OM     OM1 6124   3.940   6.853   1.000  0.0000  0.0000  0.0000
 6125OM     OM1 6125   3.935   6.608   1.065  0.0000  0.0000  0.0000
 6126OM     OM1 6126   4.011   6.785   1.237  0.0000  0.0000  0.0000
 6127OM     OM1 6127   4.165   6.706   1.034  0.0000  0.0000  0.0000
 6128OM     OM1 6128   9.593   3.057   9.459  0.0000  0.0000  0.0000
 6129OM     OM1 6129   4.664   6.807   0.961  0.0000  0.0000  0.0000
 6130OM     OM1 6130   4.807   6.873   1.189  0.0000  0.0000  0.0000
 6131OM     OM1 6131   4.558   6.866   1.186  0.0000  0.0000  0.0000
 6132OM     OM1 6132   1.028   9.375   9.211  0.0000  0.0000  0.0000
 6133OM     OM1 6133   0.893   9.217   9.369  0.0000  0.0000  0.0000
 6134OM     OM1 6134   1.147   9.182   9.346  0.0000  0.0000  0.0000
 6135OM     OM1 6135   0.948   9.118   8.949  0.0000  0.0000  0.0000
 6136OM     OM1 6136   0.810   9.431   9.074  0.0000  0.0000  0.0000
 6137OM     OM1 6137   5.441   8.595   0.656  0.0000  0.0000  0.0000
 6138OM     OM1 6138   5.302   8.680   0.853  0.0000  0.0000  0.0000
 6139OM     OM1 6139   5.397   8.853   0.680  0.0000  0.0000  0.0000
 6140OM     OM1 6140   5.202   8.693   0.612  0.0000  0.0000  0.0000
 6141OM     OM1 6141   6.106   1.176   0.706  0.0000  0.0000  0.0000
 6142OM     OM1 6142   6.180   1.413   0.652  0.0000  0.0000  0.0000
 6143OM     OM1 6143   6.004   1.300   0.488  0.0000  0.0000  0.0000
 6144OM     OM1 6144   6.735   5.146   8.507  0.0000  0.0000  0.0000
 6145OM     OM1 6145   4.064   8.510   8.459  0.0000  0.0000  0.0000
 6146OM     OM1 6146   4.155   8.423   8.687  0.0000  0.0000  0.0000
 6147OM     OM1 6147   4.325   8.441   8.494  0.0000  0.0000  0.0000
 6148OM     OM1 6148   8.325   7.634   1.262  0.0000  0.0000  0.0000
 6149OM     OM1 6149   8.200   7.419   1.220  0.0000  0.0000  0.0000
 6150OM     OM1 6150   7.485   6.974   1.181  0.0000  0.0000  0.0000
 6151OM     OM1 6151   7.415   6.727   1.214  0.0000  0.0000  0.0000
 6152OM     OM1 6152   7.235   6.918   1.170  0.0000  0.0000  0.0000
 6153OM     OM1 6153   7.385   6.854   0.976  0.0000  0.0000  0.0000
 6154OM     OM1 6154   0.411   6.243   8.927  0.0000  0.0000  0.0000
 6155OM     OM1 6155   8.075   9.324   9.496  0.0000  0.0000  0.0000
 6156OM     OM1 6156   7.878   9.326   9.336  0.0000  0.0000  0.0000
 6157OM     OM1 6157   8.095   9.193   9.258  0.0000  0.0000  0.0000
 6158OM     OM1 6158   6.876   4.399   0.146  0.0000  0.0000  0.0000
 6159OM     OM1 6159   6.673   4.345   9.587  0.0000  0.0000  0.0000
 6160OM     OM1 6160   8.669   0.152   9.181  0.0000  0.0000  0.0000
 6161OM     OM1 6161   8.720   9.472   9.217  0.0000  0.0000  0.0000
 6162OM     OM1 6162   8.938   9.562   9.135  0.0000  0.0000  0.0000
 6163OM     OM1 6163   4.576   3.437   8.447  0.0000  0.0000  0.0000
 6164OM     OM1 6164   4.317   3.416   8.490  0.0000  0.0000  0.0000
 6165OM     OM1 6165   0.895   0.965   8.977  0.0000  0.0000  0.0000
 6166OM     OM1 6166   0.764   0.870   9.178  0.0000  0.0000  0.0000
 6167OM     OM1 6167   4.619   9.300   0.832  0.0000  0.0000  0.0000
 6168OM     OM1 6168   4.393   0.071   0.994  0.0000  0.0000  0.0000
 6169OM     OM1 6169   4.211   9.564   0.831  0.0000  0.0000  0.0000
 6170OM     OM1 6170   4.443   9.473   0.836  0.0000  0.0000  0.0000
 6171OM     OM1 6171   3.910   9.498   8.695  0.0000  0.0000  0.0000
 6172OM     OM1 6172   3.843   9.521   8.440  0.0000  0.0000  0.0000
 6173OM     OM1 6173   4.755   8.202   8.321  0.0000  0.0000  0.0000
 6174OM     OM1 6174   5.004   8.230   8.430  0.0000  0.0000  0.0000
 6175OM     OM1 6175   1.242   9.569   0.399  0.0000  0.0000  0.0000
 6176OM     OM1 6176   1.243   9.531   9.602  0.0000  0.0000  0.0000
 6177OM     OM1 6177   1.436   0.112   0.003  0.0000  0.0000  0.0000
 6178OM     OM1 6178   1.069   0.132   0.427  0.0000  0.0000  0.0000
 6179OM     OM1 6179   8.812   7.319   8.713  0.0000  0.0000  0.0000
 6180OM     OM1 6180   8.980   7.508   8.751  0.0000  0.0000  0.0000
 6181OM     OM1 6181   3.983   3.461   9.329  0.0000  0.0000  0.0000
 6182OM     OM1 6182   4.194   3.524   9.198  0.0000  0.0000  0.0000
 6183OM     OM1 6183   4.043   3.341   9.094  0.0000  0.0000  0.0000
 6184OM     OM1 6184   4.176   3.284   9.311  0.0000  0.0000  0.0000
 6185OM     OM1 6185   9.156   4.383   1.207  0.0000  0.0000  0.0000
 6186OM     OM1 6186   9.365   4.528   1.261  0.0000  0.0000  0.0000
 6187OM     OM1 6187   9.319   4.298   1.385  0.0000  0.0000  0.0000
 6188OM     OM1 6188   4.781   4.670   0.382  0.0000  0.0000  0.0000
 6189OM     OM1 6189   4.844   4.601   0.624  0.0000  0.0000  0.0000
 6190OM     OM1 6190   4.654   4.766   0.599  0.0000  0.0000  0.0000
 6191OM     OM1 6191   4.612   4.525   0.510  0.0000  0.0000  0.0000
 6192OM     OM1 6192   8.771   8.858   8.416  0.0000  0.0000  0.0000
 6193OM     OM1 6193   7.392   4.709   8.988  0.0000  0.0000  0.0000
 6194OM     OM1 6194   7.580   4.864   8.920  0.0000  0.0000  0.0000
 6195OM     OM1 6195   7.327   4.927   8.856  0.0000  0.0000  0.0000
 6196OM     OM1 6196   7.402   4.953   9.098  0.0000  0.0000  0.0000
 6197OM     OM1 6197   0.217   2.675   8.257  0.0000  0.0000  0.0000
 6198OM     OM1 6198   0.137   2.496   8.429  0.0000  0.0000  0.0000
 6199OM     OM1 6199   9.568   5.924   8.428  0.0000  0.0000  0.0000
 6200OM     OM1 6200   0.015   7.538   8.566  0.0000  0.0000  0.0000
 6201OM     OM1 6201   0.178   7.603   8.377  0.0000  0.0000  0.0000
 6202OM     OM1 6202   0.072   7.778   8.562  0.0000  0.0000  0.0000
 6203OM     OM1 6203   6.288   2.379   0.291  0.0000  0.0000  0.0000
 6204OM     OM1 6204   6.214   2.506   0.519  0.0000  0.0000  0.0000
 6205OM     OM1 6205   7.786   8.147   9.282  0.0000  0.0000  0.0000
 6206OM     OM1 6206   7.791   8.171   9.558  0.0000  0.0000  0.0000
 6207OM     OM1 6207   7.640   8.315   9.398  0.0000  0.0000  0.0000
 6208OM     OM1 6208   3.700   8.770   0.046  0.0000  0.0000  0.0000
 6209OM     OM1 6209   3.784   8.822   9.402  0.0000  0.0000  0.0000
 6210OM     OM1 6210   6.349   4.195   9.153  0.0000  0.0000  0.0000
 6211OM     OM1 6211   6.241   4.251   9.386  0.0000  0.0000  0.0000
 6212OM     OM1 6212   6.097   4.239   9.164  0.0000  0.0000  0.0000
 6213OM     OM1 6213   6.190   4.020   9.257  0.0000  0.0000  0.0000
 6214OM     OM1 6214   3.609   1.482   1.030  0.0000  0.0000  0.0000
 6215OM     OM1 6215   2.680   4.569   0.604  0.0000  0.0000  0.0000
 6216OM     OM1 6216   2.912   4.458   0.523  0.0000  0.0000  0.0000
 6217OM     OM1 6217   2.775   4.360   0.718  0.0000  0.0000  0.0000
 6218OM     OM1 6218   2.428   4.034   8.548  0.0000  0.0000  0.0000
 6219OM     OM1 6219   2.528   3.973   8.309  0.0000  0.0000  0.0000
 6220OM     OM1 6220   0.688   0.010   8.940  0.0000  0.0000  0.0000
 6221OM     OM1 6221   8.993   7.761   0.258  0.0000  0.0000  0.0000
 6222OM     OM1 6222   9.168   7.573   0.279  0.0000  0.0000  0.0000
 6223OM     OM1 6223   8.183   2.534   8.548  0.0000  0.0000  0.0000
 6224OM     OM1 6224   8.044   2.660   8.346  0.0000  0.0000  0.0000
 6225OM     OM1 6225   8.297   2.696   8.368  0.0000  0.0000  0.0000
 6226OM     OM1 6226   1.151   5.207   9.390  0.0000  0.0000  0.0000
 6227OM     OM1 6227   1.158   4.956   9.461  0.0000  0.0000  0.0000
 6228OM     OM1 6228   1.303   5.113   9.587  0.0000  0.0000  0.0000
 6229OM     OM1 6229   7.184   4.035   1.302  0.0000  0.0000  0.0000
 6230OM     OM1 6230   7.961   5.550   1.215  0.0000  0.0000  0.0000
 6231OM     OM1 6231   7.996   5.787   1.116  0.0000  0.0000  0.0000
 6232OM     OM1 6232   7.757   5.714   1.190  0.0000  0.0000  0.0000
 6233OM     OM1 6233   0.105   3.638   8.269  0.0000  0.0000  0.0000
 6234OM     OM1 6234   8.171   9.324   8.804  0.0000  0.0000  0.0000
 6235OM     OM1 6235   8.211   0.032   8.415  0.0000  0.0000  0.0000
 6236OM     OM1 6236   0.223   1.869   8.609  0.0000  0.0000  0.0000
 6237OM     OM1 6237   0.378   1.918   8.817  0.0000  0.0000  0.0000
 6238OM     OM1 6238   0.367   2.077   8.592  0.0000  0.0000  0.0000
 6239OM     OM1 6239   7.149   8.534   8.599  0.0000  0.0000  0.0000
 6240OM     OM1 6240   7.326   8.477   8.763  0.0000  0.0000  0.0000
 6241OM     OM1 6241   7.384   8.629   8.541  0.0000  0.0000  0.0000
 6242OM     OM1 6242   7.254   8.723   8.744  0.0000  0.0000  0.0000
 6243OM     OM1 6243   5.413   8.006   1.015  0.0000  0.0000  0.0000
 6244OM     OM1 6244   5.581   7.816   0.942  0.0000  0.0000  0.0000
 6245OM     OM1 6245   7.485   5.840   0.699  0.0000  0.0000  0.0000
 6246OM     OM1 6246   6.477   4.532   8.807  0.0000  0.0000  0.0000
 6247OM     OM1 6247   6.717   4.509   8.884  0.0000  0.0000  0.0000
 6248OM     OM1 6248   3.808   3.547   9.503  0.0000  0.0000  0.0000
 6249OM     OM1 6249   3.668   3.355   9.401  0.0000  0.0000  0.0000
 6250OM     OM1 6250   3.659   3.393   0.053  0.0000  0.0000  0.0000
 6251OM     OM1 6251   5.707   1.123   1.282  0.0000  0.0000  0.0000
 6252OM     OM1 6252   4.945   8.684   0.515  0.0000  0.0000  0.0000
 6253OM     OM1 6253   4.725   8.774   0.629  0.0000  0.0000  0.0000
 6254OM     OM1 6254   4.783   8.524   0.637  0.0000  0.0000  0.0000
 6255OM     OM1 6255   9.392   3.321   0.662  0.0000  0.0000  0.0000
 6256OM     OM1 6256   9.571   3.556   0.512  0.0000  0.0000  0.0000
 6257OM     OM1 6257   9.464   3.284   0.414  0.0000  0.0000  0.0000
 6258OM     OM1 6258   0.035   3.330   0.603  0.0000  0.0000  0.0000
 6259OM     OM1 6259   5.470   8.791   0.035  0.0000  0.0000  0.0000
 6260OM     OM1 6260   5.531   8.754   9.385  0.0000  0.0000  0.0000
 6261OM     OM1 6261   5.716   8.844   9.555  0.0000  0.0000  0.0000
 6262OM     OM1 6262   0.975   3.567   1.130  0.0000  0.0000  0.0000
 6263OM     OM1 6263   0.737   3.622   1.216  0.0000  0.0000  0.0000
 6264OM     OM1 6264   0.760   3.426   1.047  0.0000  0.0000  0.0000
 6265OM     OM1 6265   2.584   9.208   1.137  0.0000  0.0000  0.0000
 6266OM     OM1 6266   9.217   7.298   8.552  0.0000  0.0000  0.0000
 6267OM     OM1 6267   7.152   5.462   8.283  0.0000  0.0000  0.0000
 6268OM     OM1 6268   7.665   2.360   0.319  0.0000  0.0000  0.0000
 6269OM     OM1 6269   7.406   2.388   0.293  0.0000  0.0000  0.0000
 6270OM     OM1 6270   7.516   2.345   0.526  0.0000  0.0000  0.0000
 6271OM     OM1 6271   7.503   2.151   0.339  0.0000  0.0000  0.0000
 6272OM     OM1 6272   5.351   0.236   8.601  0.0000  0.0000  0.0000
 6273OM     OM1 6273   5.215   0.086   8.760  0.0000  0.0000  0.0000
 6274OM     OM1 6274   5.105   0.315   8.667  0.0000  0.0000  0.0000
 6275OM     OM1 6275   4.910   0.349   8.832  0.0000  0.0000  0.0000
 6276OM     OM1 6276   8.332   5.874   8.563  0.0000  0.0000  0.0000
 6277OM     OM1 6277   8.517   6.031   8.481  0.0000  0.0000  0.0000
 6278OM     OM1 6278   1.508   2.119   9.341  0.0000  0.0000  0.0000
 6279OM     OM1 6279   1.569   2.264   9.128  0.0000  0.0000  0.0000
 6280OM     OM1 6280   1.571   1.996   9.131  0.0000  0.0000  0.0000
 6281OM     OM1 6281   1.356   2.131   9.113  0.0000  0.0000  0.0000
 6282OM     OM1 6282   9.483   9.057   0.704  0.0000  0.0000  0.0000
 6283OM     OM1 6283   4.080   4.014   0.260  0.0000  0.0000  0.0000
 6284OM     OM1 6284   4.038   3.889   0.485  0.0000  0.0000  0.0000
 6285OM     OM1 6285   4.266   4.012   0.445  0.0000  0.0000  0.0000
 6286OM     OM1 6286   5.977   7.121   9.146  0.0000  0.0000  0.0000
 6287OM     OM1 6287   6.221   7.220   9.134  0.0000  0.0000  0.0000
 6288OM     OM1 6288   5.601   6.830   0.437  0.0000  0.0000  0.0000
 6289OM     OM1 6289   5.522   6.888   0.201  0.0000  0.0000  0.0000
 6290OM     OM1 6290   6.321   7.504   0.084  0.0000  0.0000  0.0000
 6291OM     OM1 6291   6.138   7.337   0.177  0.0000  0.0000  0.0000
 6292OM     OM1 6292   6.242   5.721   0.423  0.0000  0.0000  0.0000
 6293OM     OM1 6293   6.170   5.755   0.175  0.0000  0.0000  0.0000
 6294OM     OM1 6294   5.996   5.672   0.363  0.0000  0.0000  0.0000
 6295OM     OM1 6295   4.694   3.485   0.156  0.0000  0.0000  0.0000
 6296OM     OM1 6296   4.878   3.587   0.298  0.0000  0.0000  0.0000
 6297OM     OM1 6297   7.611   4.182   0.375  0.0000  0.0000  0.0000
 6298OM     OM1 6298   7.717   4.014   0.198  0.0000  0.0000  0.0000
 6299OM     OM1 6299   7.571   4.211   0.122  0.0000  0.0000  0.0000
 6300OM     OM1 6300   7.814   4.251   0.227  0.0000  0.0000  0.0000
 6301OM     OM1 6301   5.833   1.931   1.006  0.0000  0.0000  0.0000
 6302OM     OM1 6302   5.705   2.071   1.186  0.0000  0.0000  0.0000
 6303OM     OM1 6303   5.807   1.854   1.260  0.0000  0.0000  0.0000
 6304OM     OM1 6304   9.152   8.384   9.502  0.0000  0.0000  0.0000
 6305OM     OM1 6305   8.951   8.287   0.042  0.0000  0.0000  0.0000
 6306OM     OM1 6306   5.269   1.222   1.121  0.0000  0.0000  0.0000
 6307OM     OM1 6307   5.484   1.379   1.139  0.0000  0.0000  0.0000
 6308OM     OM1 6308   5.459   1.157   0.981  0.0000  0.0000  0.0000
 6309OM     OM1 6309   2.136   3.406   8.503  0.0000  0.0000  0.0000
 6310OM     OM1 6310   2.215   3.267   8.293  0.0000  0.0000  0.0000
 6311OM     OM1 6311   6.691   7.167   0.017  0.0000  0.0000  0.0000
 6312OM     OM1 6312   6.815   7.197   9.389  0.0000  0.0000  0.0000
 6313OM     OM1 6313   6.623   7.365   9.455  0.0000  0.0000  0.0000
 6314OM     OM1 6314   6.269   5.874   1.338  0.0000  0.0000  0.0000
 6315OM     OM1 6315   6.431   6.066   1.298  0.0000  0.0000  0.0000
 6316OM     OM1 6316   5.330   6.721   0.140  0.0000  0.0000  0.0000
 6317OM     OM1 6317   5.325   6.501   0.003  0.0000  0.0000  0.0000
 6318OM     OM1 6318   5.508   6.532   0.165  0.0000  0.0000  0.0000
 6319OM     OM1 6319   4.337   8.239   9.116  0.0000  0.0000  0.0000
 6320OM     OM1 6320   4.483   8.398   8.953  0.0000  0.0000  0.0000
 6321OM     OM1 6321   4.262   8.273   8.872  0.0000  0.0000  0.0000
 6322OM     OM1 6322   4.488   8.143   8.935  0.0000  0.0000  0.0000
 6323OM     OM1 6323   9.475   2.470   9.429  0.0000  0.0000  0.0000
 6324OM     OM1 6324   9.423   2.641   9.233  0.0000  0.0000  0.0000
 6325OM     OM1 6325   8.100   8.238   0.768  0.0000  0.0000  0.0000
 6326OM     OM1 6326   7.949   8.068   0.641  0.0000  0.0000  0.0000
 6327OM     OM1 6327   8.171   8.124   0.535  0.0000  0.0000  0.0000
 6328OM     OM1 6328   2.608   7.729   0.941  0.0000  0.0000  0.0000
 6329OM     OM1 6329   2.447   7.579   0.800  0.0000  0.0000  0.0000
 6330OM     OM1 6330   2.688   7.502   0.823  0.0000  0.0000  0.0000
 6331OM     OM1 6331   8.092   8.957   9.562  0.0000  0.0000  0.0000
 6332OM     OM1 6332   8.126   8.769   9.392  0.0000  0.0000  0.0000
 6333OM     OM1 6333   8.337   8.879   9.528  0.0000  0.0000  0.0000
 6334OM     OM1 6334   8.232   8.995   9.339  0.0000  0.0000  0.0000
 6335OM     OM1 6335   2.003   5.849   8.273  0.0000  0.0000  0.0000
 6336OM     OM1 6336   6.161   1.754   0.682  0.0000  0.0000  0.0000
 6337OM     OM1 6337   6.362   1.602   0.630  0.0000  0.0000  0.0000
 6338OM     OM1 6338   5.564   1.725   0.696  0.0000  0.0000  0.0000
 6339OM     OM1 6339   5.576   1.552   0.503  0.0000  0.0000  0.0000
 6340OM     OM1 6340   9.587   5.991   0.797  0.0000  0.0000  0.0000
 6341OM     OM1 6341   9.430   5.971   1.009  0.0000  0.0000  0.0000
 6342OM     OM1 6342   9.572   5.761   0.922  0.0000  0.0000  0.0000
 6343OM     OM1 6343   1.142   3.987   8.718  0.0000  0.0000  0.0000
 6344OM     OM1 6344   1.114   4.127   8.928  0.0000  0.0000  0.0000
 6345OM     OM1 6345   1.066   3.773   8.850  0.0000  0.0000  0.0000
 6346OM     OM1 6346   2.177   1.297   0.522  0.0000  0.0000  0.0000
 6347OM     OM1 6347   2.057   1.083   0.455  0.0000  0.0000  0.0000
 6348OM     OM1 6348   2.117   1.119   0.705  0.0000  0.0000  0.0000
 6349OM     OM1 6349   1.925   1.264   0.600  0.0000  0.0000  0.0000
 6350OM     OM1 6350   7.589   8.398   8.238  0.0000  0.0000  0.0000
 6351OM     OM1 6351   7.507   8.634   8.314  0.0000  0.0000  0.0000
 6352OM     OM1 6352   6.873   5.554   9.033  0.0000  0.0000  0.0000
 6353OM     OM1 6353   6.995   5.329   8.982  0.0000  0.0000  0.0000
 6354OM     OM1 6354   6.819   9.500   9.345  0.0000  0.0000  0.0000
 6355OM     OM1 6355   6.761   9.260   9.422  0.0000  0.0000  0.0000
 6356OM     OM1 6356   6.797   9.122   8.978  0.0000  0.0000  0.0000
 6357OM     OM1 6357   5.235   8.881   0.096  0.0000  0.0000  0.0000
 6358OM     OM1 6358   1.706   7.634   0.224  0.0000  0.0000  0.0000
 6359OM     OM1 6359   1.826   7.581   0.456  0.0000  0.0000  0.0000
 6360OM     OM1 6360   0.931   4.315   8.952  0.0000  0.0000  0.0000
 6361OM     OM1 6361   0.890   4.283   8.645  0.0000  0.0000  0.0000
 6362OM     OM1 6362   1.046   4.540   8.932  0.0000  0.0000  0.0000
 6363OM     OM1 6363   0.830   4.486   8.784  0.0000  0.0000  0.0000
 6364OM     OM1 6364   6.122   5.047   8.396  0.0000  0.0000  0.0000
 6365OM     OM1 6365   5.920   5.155   8.533  0.0000  0.0000  0.0000
 6366OM     OM1 6366   5.889   4.921   8.431  0.0000  0.0000  0.0000
 6367OM     OM1 6367   6.059   4.940   8.619  0.0000  0.0000  0.0000
 6368OM     OM1 6368   3.619   7.991   8.665  0.0000  0.0000  0.0000
 6369OM     OM1 6369   3.691   8.226   8.615  0.0000  0.0000  0.0000
 6370OM     OM1 6370   3.768   8.111   8.853  0.0000  0.0000  0.0000
 6371OM     OM1 6371   7.386   6.831   9.057  0.0000  0.0000  0.0000
 6372OM     OM1 6372   7.569   7.019   9.038  0.0000  0.0000  0.0000
 6373OM     OM1 6373   7.484   6.886   8.825  0.0000  0.0000  0.0000
 6374OM     OM1 6374   6.526   7.586   9.559  0.0000  0.0000  0.0000
 6375OM     OM1 6375   6.762   7.581   9.455  0.0000  0.0000  0.0000
 6376OM     OM1 6376   3.349   5.152   0.897  0.0000  0.0000  0.0000
 6377OM     OM1 6377   3.103   5.228   0.857  0.0000  0.0000  0.0000
 6378OM     OM1 6378   7.151   8.361   8.416  0.0000  0.0000  0.0000
 6379OM     OM1 6379   7.220   8.522   8.228  0.0000  0.0000  0.0000
 6380OM     OM1 6380   7.349   8.296   8.262  0.0000  0.0000  0.0000
 6381OM     OM1 6381   4.555   1.112   0.242  0.0000  0.0000  0.0000
 6382OM     OM1 6382   5.472   0.508   8.376  0.0000  0.0000  0.0000
 6383OM     OM1 6383   1.749   5.432   8.275  0.0000  0.0000  0.0000
 6384OM     OM1 6384   1.943   5.603   8.289  0.0000  0.0000  0.0000
 6385OM     OM1 6385   7.200   3.499   8.312  0.0000  0.0000  0.0000
 6386OM     OM1 6386   7.268   3.735   8.232  0.0000  0.0000  0.0000
 6387OM     OM1 6387   4.259   2.493   0.252  0.0000  0.0000  0.0000
 6388OM     OM1 6388   4.311   2.335   0.052  0.0000  0.0000  0.0000
 6389OM     OM1 6389   4.500   2.499   0.121  0.0000  0.0000  0.0000
 6390OM     OM1 6390   4.434   2.302   0.275  0.0000  0.0000  0.0000
 6391OM     OM1 6391   9.371   1.004   0.034  0.0000  0.0000  0.0000
 6392OM     OM1 6392   9.551   0.890   9.501  0.0000  0.0000  0.0000
 6393OM     OM1 6393   9.450   1.107   9.405  0.0000  0.0000  0.0000
 6394OM     OM1 6394   9.294   0.902   9.412  0.0000  0.0000  0.0000
 6395OM     OM1 6395   5.087   0.609   1.134  0.0000  0.0000  0.0000
 6396OM     OM1 6396   5.269   0.549   1.296  0.0000  0.0000  0.0000
 6397OM     OM1 6397   5.140   0.354   1.179  0.0000  0.0000  0.0000
 6398OM     OM1 6398   1.453   5.840   9.547  0.0000  0.0000  0.0000
 6399OM     OM1 6399   1.667   5.781   9.414  0.0000  0.0000  0.0000
 6400OM     OM1 6400   1.266   5.653   0.005  0.0000  0.0000  0.0000
 6401OM     OM1 6401   8.578   8.650   8.826  0.0000  0.0000  0.0000
 6402OM     OM1 6402   8.195   8.553   8.960  0.0000  0.0000  0.0000
 6403OM     OM1 6403   8.185   8.624   8.725  0.0000  0.0000  0.0000
 6404OM     OM1 6404   7.496   8.857   8.462  0.0000  0.0000  0.0000
 6405OM     OM1 6405   7.519   9.122   8.513  0.0000  0.0000  0.0000
 6406OM     OM1 6406   7.726   8.961   8.512  0.0000  0.0000  0.0000
 6407OM     OM1 6407   1.789   3.470   8.645  0.0000  0.0000  0.0000
 6408OM     OM1 6408   1.586   3.308   8.667  0.0000  0.0000  0.0000
 6409OM     OM1 6409   0.053   0.822   0.125  0.0000  0.0000  0.0000
 6410OM     OM1 6410   5.850   8.919   0.557  0.0000  0.0000  0.0000
 6411OM     OM1 6411   5.664   8.882   0.380  0.0000  0.0000  0.0000
 6412OM     OM1 6412   7.203   2.322   8.957  0.0000  0.0000  0.0000
 6413OM     OM1 6413   7.223   2.440   8.724  0.0000  0.0000  0.0000
 6414OM     OM1 6414   7.439   2.400   8.866  0.0000  0.0000  0.0000
 6415OM     OM1 6415   7.646   2.378   8.417  0.0000  0.0000  0.0000
 6416OM     OM1 6416   2.050   0.567   1.016  0.0000  0.0000  0.0000
 6417OM     OM1 6417   2.333   0.314   1.184  0.0000  0.0000  0.0000
 6418OM     OM1 6418   2.269   0.428   0.965  0.0000  0.0000  0.0000
 6419OM     OM1 6419   0.870   1.566   0.059  0.0000  0.0000  0.0000
 6420OM     OM1 6420   0.804   1.671   9.425  0.0000  0.0000  0.0000
 6421OM     OM1 6421   0.991   3.755   9.396  0.0000  0.0000  0.0000
 6422OM     OM1 6422   1.243   3.755   9.352  0.0000  0.0000  0.0000
 6423OM     OM1 6423   2.226   4.956   8.431  0.0000  0.0000  0.0000
 6424OM     OM1 6424   6.303   2.369   1.041  0.0000  0.0000  0.0000
 6425OM     OM1 6425   6.070   2.397   1.156  0.0000  0.0000  0.0000
 6426OM     OM1 6426   6.085   2.233   0.960  0.0000  0.0000  0.0000
 6427OM     OM1 6427   6.211   2.189   1.196  0.0000  0.0000  0.0000
 6428OM     OM1 6428   2.649   9.221   9.291  0.0000  0.0000  0.0000
 6429OM     OM1 6429   2.697   9.025   9.442  0.0000  0.0000  0.0000
 6430OM     OM1 6430   8.099   7.645   0.343  0.0000  0.0000  0.0000
 6431OM     OM1 6431   8.209   7.859   0.463  0.0000  0.0000  0.0000
 6432OM     OM1 6432   3.500   9.045   0.171  0.0000  0.0000  0.0000
 6433OM     OM1 6433   3.321   9.231   0.169  0.0000  0.0000  0.0000
 6434OM     OM1 6434   7.800   8.782   8.684  0.0000  0.0000  0.0000
 6435OM     OM1 6435   7.975   8.949   8.595  0.0000  0.0000  0.0000
 6436OM     OM1 6436   7.779   9.040   8.748  0.0000  0.0000  0.0000
 6437OM     OM1 6437   8.236   8.934   8.542  0.0000  0.0000  0.0000
 6438OM     OM1 6438   6.010   5.174   9.346  0.0000  0.0000  0.0000
 6439OM     OM1 6439   5.910   5.384   9.227  0.0000  0.0000  0.0000
 6440OM     OM1 6440   7.077   2.791   8.262  0.0000  0.0000  0.0000
 6441OM     OM1 6441   7.180   2.991   8.402  0.0000  0.0000  0.0000
 6442OM     OM1 6442   6.994   2.850   8.503  0.0000  0.0000  0.0000
 6443OM     OM1 6443   6.199   8.420   1.000  0.0000  0.0000  0.0000
 6444OM     OM1 6444   6.146   8.612   0.821  0.0000  0.0000  0.0000
 6445OM     OM1 6445   6.232   8.362   0.750  0.0000  0.0000  0.0000
 6446OM     OM1 6446   5.995   8.404   0.832  0.0000  0.0000  0.0000
 6447OM     OM1 6447   1.291   6.391   1.001  0.0000  0.0000  0.0000
 6448OM     OM1 6448   1.138   6.409   1.207  0.0000  0.0000  0.0000
 6449OM     OM1 6449   1.400   6.338   1.218  0.0000  0.0000  0.0000
 6450OM     OM1 6450   6.403   3.130   0.894  0.0000  0.0000  0.0000
 6451OM     OM1 6451   6.598   3.190   1.069  0.0000  0.0000  0.0000
 6452OM     OM1 6452   6.386   3.323   1.067  0.0000  0.0000  0.0000
 6453OM     OM1 6453   3.360   5.849   8.878  0.0000  0.0000  0.0000
 6454OM     OM1 6454   3.402   6.091   8.839  0.0000  0.0000  0.0000
 6455OM     OM1 6455   3.612   5.947   8.886  0.0000  0.0000  0.0000
 6456OM     OM1 6456   1.746   2.325   0.447  0.0000  0.0000  0.0000
 6457OM     OM1 6457   1.722   2.590   0.486  0.0000  0.0000  0.0000
 6458OM     OM1 6458   1.523   2.416   0.535  0.0000  0.0000  0.0000
 6459OM     OM1 6459   1.744   2.427   0.682  0.0000  0.0000  0.0000
 6460OM     OM1 6460   4.027   0.841   8.712  0.0000  0.0000  0.0000
 6461OM     OM1 6461   3.894   0.719   8.882  0.0000  0.0000  0.0000
 6462OM     OM1 6462   4.140   0.813   8.949  0.0000  0.0000  0.0000
 6463OM     OM1 6463   4.108   0.607   8.802  0.0000  0.0000  0.0000
 6464OM     OM1 6464   3.160   2.612   0.664  0.0000  0.0000  0.0000
 6465OM     OM1 6465   3.314   2.453   0.498  0.0000  0.0000  0.0000
 6466OM     OM1 6466   3.168   2.642   0.420  0.0000  0.0000  0.0000
 6467OM     OM1 6467   7.694   3.654   8.451  0.0000  0.0000  0.0000
 6468OM     OM1 6468   7.053   3.151   9.292  0.0000  0.0000  0.0000
 6469OM     OM1 6469   6.950   2.865   9.069  0.0000  0.0000  0.0000
 6470OM     OM1 6470   7.135   2.974   9.465  0.0000  0.0000  0.0000
 6471OM     OM1 6471   7.121   6.432   9.108  0.0000  0.0000  0.0000
 6472OM     OM1 6472   6.932   6.296   9.227  0.0000  0.0000  0.0000
 6473OM     OM1 6473   3.706   7.309   0.708  0.0000  0.0000  0.0000
 6474OM     OM1 6474   3.859   7.432   0.870  0.0000  0.0000  0.0000
 6475OM     OM1 6475   3.593   7.467   0.894  0.0000  0.0000  0.0000
 6476OM     OM1 6476   4.991   2.759   9.466  0.0000  0.0000  0.0000
 6477OM     OM1 6477   4.810   2.921   9.394  0.0000  0.0000  0.0000
 6478OM     OM1 6478   4.936   2.973   0.016  0.0000  0.0000  0.0000
 6479OM     OM1 6479   2.833   6.590   9.522  0.0000  0.0000  0.0000
 6480OM     OM1 6480   3.035   9.530   1.042  0.0000  0.0000  0.0000
 6481OM     OM1 6481   3.056   9.272   1.058  0.0000  0.0000  0.0000
 6482OM     OM1 6482   2.922   9.367   0.864  0.0000  0.0000  0.0000
 6483OM     OM1 6483   1.678   6.531   9.267  0.0000  0.0000  0.0000
 6484OM     OM1 6484   1.864   6.359   9.277  0.0000  0.0000  0.0000
 6485OM     OM1 6485   1.916   6.624   9.237  0.0000  0.0000  0.0000
 6486OM     OM1 6486   1.462   8.415   1.303  0.0000  0.0000  0.0000
 6487OM     OM1 6487   1.413   8.285   1.085  0.0000  0.0000  0.0000
 6488OM     OM1 6488   1.643   8.183   1.124  0.0000  0.0000  0.0000
 6489OM     OM1 6489   6.567   6.605   8.416  0.0000  0.0000  0.0000
 6490OM     OM1 6490   5.094   2.246   0.989  0.0000  0.0000  0.0000
 6491OM     OM1 6491   4.854   2.343   0.949  0.0000  0.0000  0.0000
 6492OM     OM1 6492   4.947   1.998   1.301  0.0000  0.0000  0.0000
 6493OM     OM1 6493   7.546   3.611   0.812  0.0000  0.0000  0.0000
 6494OM     OM1 6494   7.503   3.698   1.052  0.0000  0.0000  0.0000
 6495OM     OM1 6495   7.660   3.836   0.911  0.0000  0.0000  0.0000
 6496OM     OM1 6496   7.742   3.608   0.993  0.0000  0.0000  0.0000
 6497OM     OM1 6497   3.451   8.795   8.478  0.0000  0.0000  0.0000
 6498OM     OM1 6498   3.608   8.993   8.552  0.0000  0.0000  0.0000
 6499OM     OM1 6499   3.402   8.903   8.703  0.0000  0.0000  0.0000
 6500OM     OM1 6500   3.367   9.048   8.491  0.0000  0.0000  0.0000
 6501OM     OM1 6501   6.752   0.855   8.766  0.0000  0.0000  0.0000
 6502OM     OM1 6502   6.515   0.932   8.838  0.0000  0.0000  0.0000
 6503OM     OM1 6503   4.922   9.065   0.511  0.0000  0.0000  0.0000
 6504OM     OM1 6504   5.108   8.890   0.471  0.0000  0.0000  0.0000
 6505OM     OM1 6505   7.314   4.636   9.433  0.0000  0.0000  0.0000
 6506OM     OM1 6506   7.554   4.733   9.353  0.0000  0.0000  0.0000
 6507OM     OM1 6507   8.220   0.381   8.607  0.0000  0.0000  0.0000
 6508OM     OM1 6508   0.720   2.463   9.099  0.0000  0.0000  0.0000
 6509OM     OM1 6509   0.830   2.338   9.296  0.0000  0.0000  0.0000
 6510OM     OM1 6510   0.602   2.459   9.327  0.0000  0.0000  0.0000
 6511OM     OM1 6511   0.830   2.595   9.305  0.0000  0.0000  0.0000
 6512OM     OM1 6512   3.980   8.110   0.307  0.0000  0.0000  0.0000
 6513OM     OM1 6513   1.927   9.318   0.844  0.0000  0.0000  0.0000
 6514OM     OM1 6514   2.159   9.259   0.971  0.0000  0.0000  0.0000
 6515OM     OM1 6515   5.134   6.061   1.128  0.0000  0.0000  0.0000
 6516OM     OM1 6516   5.105   6.048   0.880  0.0000  0.0000  0.0000
 6517OM     OM1 6517   2.213   1.133   8.357  0.0000  0.0000  0.0000
 6518OM     OM1 6518   2.100   1.268   8.551  0.0000  0.0000  0.0000
 6519OM     OM1 6519   2.462   1.110   8.289  0.0000  0.0000  0.0000
 6520OM     OM1 6520   6.656   6.656   0.132  0.0000  0.0000  0.0000
 6521OM     OM1 6521   6.786   6.676   9.516  0.0000  0.0000  0.0000
 6522OM     OM1 6522   7.098   2.387   1.047  0.0000  0.0000  0.0000
 6523OM     OM1 6523   7.108   2.141   0.924  0.0000  0.0000  0.0000
 6524OM     OM1 6524   6.906   2.298   0.909  0.0000  0.0000  0.0000
 6525OM     OM1 6525   0.702   4.673   8.369  0.0000  0.0000  0.0000
 6526OM     OM1 6526   6.953   0.374   1.157  0.0000  0.0000  0.0000
 6527OM     OM1 6527   0.813   5.667   9.256  0.0000  0.0000  0.0000
 6528OM     OM1 6528   0.698   5.631   9.024  0.0000  0.0000  0.0000
 6529OM     OM1 6529   0.621   5.821   9.172  0.0000  0.0000  0.0000
 6530OM     OM1 6530   6.646   5.660   9.075  0.0000  0.0000  0.0000
 6531OM     OM1 6531   6.491   5.860   9.102  0.0000  0.0000  0.0000
 6532OM     OM1 6532   6.778   2.382   8.538  0.0000  0.0000  0.0000
 6533OM     OM1 6533   6.869   2.164   8.442  0.0000  0.0000  0.0000
 6534OM     OM1 6534   6.956   2.234   8.672  0.0000  0.0000  0.0000
 6535OM     OM1 6535   7.025   2.374   8.461  0.0000  0.0000  0.0000
 6536OM     OM1 6536   0.219   1.641   0.589  0.0000  0.0000  0.0000
 6537OM     OM1 6537   0.172   1.426   0.739  0.0000  0.0000  0.0000
 6538OM     OM1 6538   8.794   4.837   1.301  0.0000  0.0000  0.0000
 6539OM     OM1 6539   8.849   4.636   1.139  0.0000  0.0000  0.0000
 6540OM     OM1 6540   3.311   3.162   9.444  0.0000  0.0000  0.0000
 6541OM     OM1 6541   3.242   3.214   9.195  0.0000  0.0000  0.0000
 6542OM     OM1 6542   3.501   3.208   9.267  0.0000  0.0000  0.0000
 6543OM     OM1 6543   3.349   3.402   9.331  0.0000  0.0000  0.0000
 6544OM     OM1 6544   0.092   3.793   0.668  0.0000  0.0000  0.0000
 6545OM     OM1 6545   0.061   3.998   0.530  0.0000  0.0000  0.0000
 6546OM     OM1 6546   0.279   4.010   0.663  0.0000  0.0000  0.0000
 6547OM     OM1 6547   4.984   7.663   8.581  0.0000  0.0000  0.0000
 6548OM     OM1 6548   4.776   7.776   8.676  0.0000  0.0000  0.0000
 6549OM     OM1 6549   5.002   7.919   8.638  0.0000  0.0000  0.0000
 6550OM     OM1 6550   5.060   5.992   0.110  0.0000  0.0000  0.0000
 6551OM     OM1 6551   5.175   6.199   0.203  0.0000  0.0000  0.0000
 6552OM     OM1 6552   4.973   6.182   0.368  0.0000  0.0000  0.0000
 6553OM     OM1 6553   3.129   5.790   9.440  0.0000  0.0000  0.0000
 6554OM     OM1 6554   2.974   5.719   0.040  0.0000  0.0000  0.0000
 6555OM     OM1 6555   0.138   8.667   0.671  0.0000  0.0000  0.0000
 6556OM     OM1 6556   6.299   0.394   1.029  0.0000  0.0000  0.0000
 6557OM     OM1 6557   6.116   0.205   1.098  0.0000  0.0000  0.0000
 6558OM     OM1 6558   8.047   1.047   1.317  0.0000  0.0000  0.0000
 6559OM     OM1 6559   7.423   8.542   0.803  0.0000  0.0000  0.0000
 6560OM     OM1 6560   7.466   8.602   1.052  0.0000  0.0000  0.0000
 6561OM     OM1 6561   7.472   8.349   0.986  0.0000  0.0000  0.0000
 6562OM     OM1 6562   7.660   8.509   0.905  0.0000  0.0000  0.0000
 6563OM     OM1 6563   2.076   3.036   0.847  0.0000  0.0000  0.0000
 6564OM     OM1 6564   2.319   2.951   0.793  0.0000  0.0000  0.0000
 6565OM     OM1 6565   2.114   2.835   0.685  0.0000  0.0000  0.0000
 6566OM     OM1 6566   2.532   3.230   8.526  0.0000  0.0000  0.0000
 6567OM     OM1 6567   2.675   3.053   8.388  0.0000  0.0000  0.0000
 6568OM     OM1 6568   2.414   3.108   8.330  0.0000  0.0000  0.0000
 6569OM     OM1 6569   2.429   1.643   1.200  0.0000  0.0000  0.0000
 6570OM     OM1 6570   2.678   1.722   1.131  0.0000  0.0000  0.0000
 6571OM     OM1 6571   6.322   1.119   0.861  0.0000  0.0000  0.0000
 6572OM     OM1 6572   1.445   7.415   8.292  0.0000  0.0000  0.0000
 6573OM     OM1 6573   1.421   7.253   8.506  0.0000  0.0000  0.0000
 6574OM     OM1 6574   1.594   7.645   8.347  0.0000  0.0000  0.0000
 6575OM     OM1 6575   2.548   9.482   0.540  0.0000  0.0000  0.0000
 6576OM     OM1 6576   2.484   0.019   0.329  0.0000  0.0000  0.0000
 6577OM     OM1 6577   2.704   0.068   0.452  0.0000  0.0000  0.0000
 6578OM     OM1 6578   9.542   5.138   8.918  0.0000  0.0000  0.0000
 6579OM     OM1 6579   0.002   5.362   9.025  0.0000  0.0000  0.0000
 6580OM     OM1 6580   0.181   5.200   8.923  0.0000  0.0000  0.0000
 6581OM     OM1 6581   7.918   8.229   8.339  0.0000  0.0000  0.0000
 6582OM     OM1 6582   8.550   9.160   8.826  0.0000  0.0000  0.0000
 6583OM     OM1 6583   8.702   9.077   9.019  0.0000  0.0000  0.0000
 6584OM     OM1 6584   8.766   9.015   8.784  0.0000  0.0000  0.0000
 6585OM     OM1 6585   8.556   8.903   8.881  0.0000  0.0000  0.0000
 6586OM     OM1 6586   4.529   6.197   0.193  0.0000  0.0000  0.0000
 6587OM     OM1 6587   4.726   6.283   0.345  0.0000  0.0000  0.0000
 6588OM     OM1 6588   6.034   5.553   0.588  0.0000  0.0000  0.0000
 6589OM     OM1 6589   6.177   5.615   0.792  0.0000  0.0000  0.0000
 6590OM     OM1 6590   6.014   5.650   0.983  0.0000  0.0000  0.0000
 6591OM     OM1 6591   6.143   5.860   0.903  0.0000  0.0000  0.0000
 6592OM     OM1 6592   2.355   8.968   0.738  0.0000  0.0000  0.0000
 6593OM     OM1 6593   2.361   8.735   0.835  0.0000  0.0000  0.0000
 6594OM     OM1 6594   0.259   0.641   1.202  0.0000  0.0000  0.0000
 6595OM     OM1 6595   0.015   0.556   1.214  0.0000  0.0000  0.0000
 6596OM     OM1 6596   0.177   0.475   1.017  0.0000  0.0000  0.0000
 6597OM     OM1 6597   0.920   4.356   0.037  0.0000  0.0000  0.0000
 6598OM     OM1 6598   0.910   4.627   0.049  0.0000  0.0000  0.0000
 6599OM     OM1 6599   1.030   4.495   0.225  0.0000  0.0000  0.0000
 6600OM     OM1 6600   7.346   8.822   1.143  0.0000  0.0000  0.0000
 6601OM     OM1 6601   7.605   8.805   1.141  0.0000  0.0000  0.0000
 6602OM     OM1 6602   3.611   1.785   9.435  0.0000  0.0000  0.0000
 6603OM     OM1 6603   3.677   1.660   0.039  0.0000  0.0000  0.0000
 6604OM     OM1 6604   3.439   1.769   0.029  0.0000  0.0000  0.0000
 6605OM     OM1 6605   3.500   1.555   9.489  0.0000  0.0000  0.0000
 6606OM     OM1 6606   2.936   6.830   0.501  0.0000  0.0000  0.0000
 6607OM     OM1 6607   2.822   7.071   0.573  0.0000  0.0000  0.0000
 6608OM     OM1 6608   3.737   1.041   9.078  0.0000  0.0000  0.0000
 6609OM     OM1 6609   3.634   0.850   9.234  0.0000  0.0000  0.0000
 6610OM     OM1 6610   3.872   0.827   9.145  0.0000  0.0000  0.0000
 6611OM     OM1 6611   3.676   0.807   8.982  0.0000  0.0000  0.0000
 6612OM     OM1 6612   0.872   2.603   0.767  0.0000  0.0000  0.0000
 6613OM     OM1 6613   0.979   2.427   0.928  0.0000  0.0000  0.0000
 6614OM     OM1 6614   1.072   2.653   0.940  0.0000  0.0000  0.0000
 6615OM     OM1 6615   6.142   5.687   1.247  0.0000  0.0000  0.0000
 6616OM     OM1 6616   6.269   5.670   1.033  0.0000  0.0000  0.0000
 6617OM     OM1 6617   6.215   5.455   1.171  0.0000  0.0000  0.0000
 6618OM     OM1 6618   9.169   6.846   0.178  0.0000  0.0000  0.0000
 6619OM     OM1 6619   9.082   7.081   0.233  0.0000  0.0000  0.0000
 6620OM     OM1 6620   0.730   0.876   8.789  0.0000  0.0000  0.0000
 6621OM     OM1 6621   0.715   0.926   8.529  0.0000  0.0000  0.0000
 6622OM     OM1 6622   0.657   1.068   8.930  0.0000  0.0000  0.0000
 6623OM     OM1 6623   7.179   7.210   0.692  0.0000  0.0000  0.0000
 6624OM     OM1 6624   7.162   7.336   0.456  0.0000  0.0000  0.0000
 6625OM     OM1 6625   7.809   3.852   9.010  0.0000  0.0000  0.0000
 6626OM     OM1 6626   7.917   4.089   8.976  0.0000  0.0000  0.0000
 6627OM     OM1 6627   7.681   4.045   8.881  0.0000  0.0000  0.0000
 6628OM     OM1 6628   7.714   4.063   9.137  0.0000  0.0000  0.0000
 6629OM     OM1 6629   3.784   3.293   0.257  0.0000  0.0000  0.0000
 6630OM     OM1 6630   3.688   3.135   0.088  0.0000  0.0000  0.0000
 6631OM     OM1 6631   3.240   5.714   8.696  0.0000  0.0000  0.0000
 6632OM     OM1 6632   3.311   5.573   8.487  0.0000  0.0000  0.0000
 6633OM     OM1 6633   2.566   9.236   8.803  0.0000  0.0000  0.0000
 6634OM     OM1 6634   2.583   8.982   8.773  0.0000  0.0000  0.0000
 6635OM     OM1 6635   2.479   9.066   8.992  0.0000  0.0000  0.0000
 6636OM     OM1 6636   4.409   6.697   1.072  0.0000  0.0000  0.0000
 6637OM     OM1 6637   4.298   6.505   0.926  0.0000  0.0000  0.0000
 6638OM     OM1 6638   4.254   6.515   1.182  0.0000  0.0000  0.0000
 6639OM     OM1 6639   1.069   6.732   8.290  0.0000  0.0000  0.0000
 6640OM     OM1 6640   4.362   3.542   1.026  0.0000  0.0000  0.0000
 6641OM     OM1 6641   4.245   3.306   1.057  0.0000  0.0000  0.0000
 6642OM     OM1 6642   4.288   3.469   1.267  0.0000  0.0000  0.0000
 6643OM     OM1 6643   1.265   6.037   8.306  0.0000  0.0000  0.0000
 6644OM     OM1 6644   4.899   0.020   8.449  0.0000  0.0000  0.0000
 6645OM     OM1 6645   5.129   0.116   8.518  0.0000  0.0000  0.0000
 6646OM     OM1 6646   4.971   0.243   8.339  0.0000  0.0000  0.0000
 6647OM     OM1 6647   6.171   9.559   1.085  0.0000  0.0000  0.0000
 6648OM     OM1 6648   4.616   1.519   8.435  0.0000  0.0000  0.0000
 6649OM     OM1 6649   4.384   1.602   8.375  0.0000  0.0000  0.0000
 6650OM     OM1 6650   4.583   1.756   8.311  0.0000  0.0000  0.0000
 6651OM     OM1 6651   2.518   2.812   0.436  0.0000  0.0000  0.0000
 6652OM     OM1 6652   2.630   2.601   0.320  0.0000  0.0000  0.0000
 6653OM     OM1 6653   2.376   2.601   0.377  0.0000  0.0000  0.0000
 6654OM     OM1 6654   2.473   2.756   0.189  0.0000  0.0000  0.0000
 6655OM     OM1 6655   3.288   2.950   8.575  0.0000  0.0000  0.0000
 6656OM     OM1 6656   3.265   2.704   8.664  0.0000  0.0000  0.0000
 6657OM     OM1 6657   3.324   2.910   8.824  0.0000  0.0000  0.0000
 6658OM     OM1 6658   1.522   5.324   8.272  0.0000  0.0000  0.0000
 6659OM     OM1 6659   6.724   2.132   0.111  0.0000  0.0000  0.0000
 6660OM     OM1 6660   6.518   2.287   0.184  0.0000  0.0000  0.0000
 6661OM     OM1 6661   6.691   2.203   0.353  0.0000  0.0000  0.0000
 6662OM     OM1 6662   5.188   3.305   0.266  0.0000  0.0000  0.0000
 6663OM     OM1 6663   5.184   3.327   0.546  0.0000  0.0000  0.0000
 6664OM     OM1 6664   7.093   2.531   8.261  0.0000  0.0000  0.0000
 6665OM     OM1 6665   7.242   2.507   8.475  0.0000  0.0000  0.0000
 6666OM     OM1 6666   3.493   6.272   8.338  0.0000  0.0000  0.0000
 6667OM     OM1 6667   3.444   6.200   8.596  0.0000  0.0000  0.0000
 6668OM     OM1 6668   2.730   1.601   9.134  0.0000  0.0000  0.0000
 6669OM     OM1 6669   2.945   1.648   9.275  0.0000  0.0000  0.0000
 6670OM     OM1 6670   2.913   1.762   9.044  0.0000  0.0000  0.0000
 6671OM     OM1 6671   1.675   2.834   0.554  0.0000  0.0000  0.0000
 6672OM     OM1 6672   1.920   2.769   0.519  0.0000  0.0000  0.0000
 6673OM     OM1 6673   1.034   5.244   0.681  0.0000  0.0000  0.0000
 6674OM     OM1 6674   1.236   5.298   0.824  0.0000  0.0000  0.0000
 6675OM     OM1 6675   1.106   5.064   0.857  0.0000  0.0000  0.0000
 6676OM     OM1 6676   8.643   4.534   0.305  0.0000  0.0000  0.0000
 6677OM     OM1 6677   8.618   4.267   0.294  0.0000  0.0000  0.0000
 6678OM     OM1 6678   8.786   4.410   0.138  0.0000  0.0000  0.0000
 6679OM     OM1 6679   3.238   6.680   8.649  0.0000  0.0000  0.0000
 6680OM     OM1 6680   3.488   6.637   8.671  0.0000  0.0000  0.0000
 6681OM     OM1 6681   3.313   6.557   8.860  0.0000  0.0000  0.0000
 6682OM     OM1 6682   3.378   6.806   8.832  0.0000  0.0000  0.0000
 6683OM     OM1 6683   3.742   3.526   0.912  0.0000  0.0000  0.0000
 6684OM     OM1 6684   0.871   8.969   9.456  0.0000  0.0000  0.0000
 6685OM     OM1 6685   7.690   3.615   8.974  0.0000  0.0000  0.0000
 6686OM     OM1 6686   7.608   3.412   9.097  0.0000  0.0000  0.0000
 6687OM     OM1 6687   0.365   0.127   9.334  0.0000  0.0000  0.0000
 6688OM     OM1 6688   4.529   7.877   9.411  0.0000  0.0000  0.0000
 6689OM     OM1 6689   4.363   7.744   9.258  0.0000  0.0000  0.0000
 6690OM     OM1 6690   4.388   8.009   9.241  0.0000  0.0000  0.0000
 6691OM     OM1 6691   9.058   9.479   1.120  0.0000  0.0000  0.0000
 6692OM     OM1 6692   8.935   9.324   0.957  0.0000  0.0000  0.0000
 6693OM     OM1 6693   9.000   9.579   0.891  0.0000  0.0000  0.0000
 6694OM     OM1 6694   8.799   9.513   1.042  0.0000  0.0000  0.0000
 6695OM     OM1 6695   2.404   4.751   0.998  0.0000  0.0000  0.0000
 6696OM     OM1 6696   2.535   4.605   0.823  0.0000  0.0000  0.0000
 6697OM     OM1 6697   2.289   4.531   0.907  0.0000  0.0000  0.0000
 6698OM     OM1 6698   2.495   4.515   1.063  0.0000  0.0000  0.0000
 6699OM     OM1 6699   1.166   0.813   0.508  0.0000  0.0000  0.0000
 6700OM     OM1 6700   0.911   0.803   0.447  0.0000  0.0000  0.0000
 6701OM     OM1 6701   1.021   1.020   0.559  0.0000  0.0000  0.0000
 6702OM     OM1 6702   0.977   0.810   0.697  0.0000  0.0000  0.0000
 6703OM     OM1 6703   3.293   7.373   0.062  0.0000  0.0000  0.0000
 6704OM     OM1 6704   3.338   7.579   0.213  0.0000  0.0000  0.0000
 6705OM     OM1 6705   3.437   2.199   0.962  0.0000  0.0000  0.0000
 6706OM     OM1 6706   3.215   2.194   0.823  0.0000  0.0000  0.0000
 6707OM     OM1 6707   3.185   4.509   0.519  0.0000  0.0000  0.0000
 6708OM     OM1 6708   3.087   4.286   0.618  0.0000  0.0000  0.0000
 6709OM     OM1 6709   0.677   3.190   1.094  0.0000  0.0000  0.0000
 6710OM     OM1 6710   0.562   2.979   1.022  0.0000  0.0000  0.0000
 6711OM     OM1 6711   7.353   2.386   9.356  0.0000  0.0000  0.0000
 6712OM     OM1 6712   9.210   2.314   8.962  0.0000  0.0000  0.0000
 6713OM     OM1 6713   9.046   2.445   9.116  0.0000  0.0000  0.0000
 6714OM     OM1 6714   9.002   2.196   9.082  0.0000  0.0000  0.0000
 6715OM     OM1 6715   9.212   2.265   9.223  0.0000  0.0000  0.0000
 6716OM     OM1 6716   7.453   3.632   0.060  0.0000  0.0000  0.0000
 6717OM     OM1 6717   6.501   0.385   0.456  0.0000  0.0000  0.0000
 6718OM     OM1 6718   6.727   0.377   0.586  0.0000  0.0000  0.0000
 6719OM     OM1 6719   6.594   0.157   0.554  0.0000  0.0000  0.0000
 6720OM     OM1 6720   6.716   0.274   0.352  0.0000  0.0000  0.0000
 6721OM     OM1 6721   4.889   4.776   8.412  0.0000  0.0000  0.0000
 6722OM     OM1 6722   4.692   4.957   8.411  0.0000  0.0000  0.0000
 6723OM     OM1 6723   4.682   4.734   8.559  0.0000  0.0000  0.0000
 6724OM     OM1 6724   2.524   8.610   0.675  0.0000  0.0000  0.0000
 6725OM     OM1 6725   7.325   7.492   8.386  0.0000  0.0000  0.0000
 6726OM     OM1 6726   3.095   7.778   8.375  0.0000  0.0000  0.0000
 6727OM     OM1 6727   4.684   6.074   9.321  0.0000  0.0000  0.0000
 6728OM     OM1 6728   4.812   5.872   9.420  0.0000  0.0000  0.0000
 6729OM     OM1 6729   2.742   1.566   0.582  0.0000  0.0000  0.0000
 6730OM     OM1 6730   2.599   1.373   0.704  0.0000  0.0000  0.0000
 6731OM     OM1 6731   2.833   1.326   0.616  0.0000  0.0000  0.0000
 6732OM     OM1 6732   3.320   0.948   0.866  0.0000  0.0000  0.0000
 6733OM     OM1 6733   3.155   0.921   1.074  0.0000  0.0000  0.0000
 6734OM     OM1 6734   6.894   6.057   8.443  0.0000  0.0000  0.0000
 6735OM     OM1 6735   7.096   5.904   8.344  0.0000  0.0000  0.0000
 6736OM     OM1 6736   3.877   8.796   0.988  0.0000  0.0000  0.0000
 6737OM     OM1 6737   4.082   9.079   1.292  0.0000  0.0000  0.0000
 6738OM     OM1 6738   8.267   1.220   0.167  0.0000  0.0000  0.0000
 6739OM     OM1 6739   8.516   1.286   0.166  0.0000  0.0000  0.0000
 6740OM     OM1 6740   8.420   1.212   9.548  0.0000  0.0000  0.0000
 6741OM     OM1 6741   1.566   5.925   1.296  0.0000  0.0000  0.0000
 6742OM     OM1 6742   1.507   6.120   1.125  0.0000  0.0000  0.0000
 6743OM     OM1 6743   3.147   7.430   0.740  0.0000  0.0000  0.0000
 6744OM     OM1 6744   3.374   7.347   0.827  0.0000  0.0000  0.0000
 6745OM     OM1 6745   3.297   7.281   0.581  0.0000  0.0000  0.0000
 6746OM     OM1 6746   7.162   2.601   1.184  0.0000  0.0000  0.0000
 6747OM     OM1 6747   7.242   2.555   0.920  0.0000  0.0000  0.0000
 6748OM     OM1 6748   1.774   6.968   0.818  0.0000  0.0000  0.0000
 6749OM     OM1 6749   1.735   6.728   0.760  0.0000  0.0000  0.0000
 6750OM     OM1 6750   1.751   6.789   1.010  0.0000  0.0000  0.0000
 6751OM     OM1 6751   1.535   6.863   0.888  0.0000  0.0000  0.0000
 6752OM     OM1 6752   0.099   5.154   0.326  0.0000  0.0000  0.0000
 6753OM     OM1 6753   0.082   5.213   0.585  0.0000  0.0000  0.0000
 6754OM     OM1 6754   0.135   5.399   0.409  0.0000  0.0000  0.0000
 6755OM     OM1 6755   9.507   5.295   0.407  0.0000  0.0000  0.0000
 6756OM     OM1 6756   8.383   4.462   1.146  0.0000  0.0000  0.0000
 6757OM     OM1 6757   8.636   4.480   1.125  0.0000  0.0000  0.0000
 6758OM     OM1 6758   6.551   7.751   0.909  0.0000  0.0000  0.0000
 6759OM     OM1 6759   6.997   9.452   1.030  0.0000  0.0000  0.0000
 6760OM     OM1 6760   6.849   9.425   0.828  0.0000  0.0000  0.0000
 6761OM     OM1 6761   6.989   0.043   0.849  0.0000  0.0000  0.0000
 6762OM     OM1 6762   1.582   7.138   9.243  0.0000  0.0000  0.0000
 6763OM     OM1 6763   1.490   6.915   9.124  0.0000  0.0000  0.0000
 6764OM     OM1 6764   1.382   7.009   9.449  0.0000  0.0000  0.0000
 6765OM     OM1 6765   1.851   3.668   8.801  0.0000  0.0000  0.0000
 6766OM     OM1 6766   2.304   3.750   8.869  0.0000  0.0000  0.0000
 6767OM     OM1 6767   2.073   3.643   8.909  0.0000  0.0000  0.0000
 6768OM     OM1 6768   3.619   4.550   0.831  0.0000  0.0000  0.0000
 6769OM     OM1 6769   3.419   4.545   0.638  0.0000  0.0000  0.0000
 6770OM     OM1 6770   3.634   4.672   0.598  0.0000  0.0000  0.0000
 6771OM     OM1 6771   1.762   6.813   8.928  0.0000  0.0000  0.0000
 6772OM     OM1 6772   1.619   6.816   8.716  0.0000  0.0000  0.0000
 6773OM     OM1 6773   1.516   6.735   8.946  0.0000  0.0000  0.0000
 6774OM     OM1 6774   2.216   7.096   0.622  0.0000  0.0000  0.0000
 6775OM     OM1 6775   2.044   7.006   0.800  0.0000  0.0000  0.0000
 6776OM     OM1 6776   2.254   6.865   0.760  0.0000  0.0000  0.0000
 6777OM     OM1 6777   1.407   5.776   0.184  0.0000  0.0000  0.0000
 6778OM     OM1 6778   1.694   5.864   0.054  0.0000  0.0000  0.0000
 6779OM     OM1 6779   1.515   5.603   0.014  0.0000  0.0000  0.0000
 6780OM     OM1 6780   5.161   6.520   9.149  0.0000  0.0000  0.0000
 6781OM     OM1 6781   5.214   6.378   8.942  0.0000  0.0000  0.0000
 6782OM     OM1 6782   5.066   6.173   8.994  0.0000  0.0000  0.0000
 6783OM     OM1 6783   1.089   1.986   1.176  0.0000  0.0000  0.0000
 6784OM     OM1 6784   1.286   1.818   1.178  0.0000  0.0000  0.0000
 6785OM     OM1 6785   0.860   9.269   0.238  0.0000  0.0000  0.0000
 6786OM     OM1 6786   0.599   9.433   0.314  0.0000  0.0000  0.0000
 6787OM     OM1 6787   0.985   9.489   0.359  0.0000  0.0000  0.0000
 6788OM     OM1 6788   7.790   9.146   0.161  0.0000  0.0000  0.0000
 6789OM     OM1 6789   7.647   9.272   0.334  0.0000  0.0000  0.0000
 6790OM     OM1 6790   7.598   9.019   0.292  0.0000  0.0000  0.0000
 6791OM     OM1 6791   8.042   7.037   0.350  0.0000  0.0000  0.0000
 6792OM     OM1 6792   7.865   6.981   0.150  0.0000  0.0000  0.0000
 6793OM     OM1 6793   8.037   6.811   0.219  0.0000  0.0000  0.0000
 6794OM     OM1 6794   2.472   0.409   0.573  0.0000  0.0000  0.0000
 6795OM     OM1 6795   2.519   0.360   0.998  0.0000  0.0000  0.0000
 6796OM     OM1 6796   1.365   1.519   0.237  0.0000  0.0000  0.0000
 6797OM     OM1 6797   1.257   1.728   0.328  0.0000  0.0000  0.0000
 6798OM     OM1 6798   1.472   6.870   0.578  0.0000  0.0000  0.0000
 6799OM     OM1 6799   1.679   6.801   0.423  0.0000  0.0000  0.0000
 6800OM     OM1 6800   1.619   7.048   0.452  0.0000  0.0000  0.0000
 6801OM     OM1 6801   4.124   6.616   9.062  0.0000  0.0000  0.0000
 6802OM     OM1 6802   4.216   6.835   8.947  0.0000  0.0000  0.0000
 6803OM     OM1 6803   4.167   6.826   9.204  0.0000  0.0000  0.0000
 6804OM     OM1 6804   5.450   8.567   8.950  0.0000  0.0000  0.0000
 6805OM     OM1 6805   5.457   8.780   9.118  0.0000  0.0000  0.0000
 6806OM     OM1 6806   5.661   8.639   9.076  0.0000  0.0000  0.0000
 6807OM     OM1 6807   9.143   4.479   0.353  0.0000  0.0000  0.0000
 6808OM     OM1 6808   9.260   4.709   0.421  0.0000  0.0000  0.0000
 6809OM     OM1 6809   9.060   4.695   0.248  0.0000  0.0000  0.0000
 6810OM     OM1 6810   6.215   9.466   8.444  0.0000  0.0000  0.0000
 6811OM     OM1 6811   1.677   1.357   0.618  0.0000  0.0000  0.0000
 6812OM     OM1 6812   2.233   5.118   8.645  0.0000  0.0000  0.0000
 6813OM     OM1 6813   2.039   7.791   8.568  0.0000  0.0000  0.0000
 6814OM     OM1 6814   2.145   7.591   8.700  0.0000  0.0000  0.0000
 6815OM     OM1 6815   5.263   0.694   9.394  0.0000  0.0000  0.0000
 6816OM     OM1 6816   5.099   0.590   9.569  0.0000  0.0000  0.0000
 6817OM     OM1 6817   6.740   0.130   9.466  0.0000  0.0000  0.0000
 6818OM     OM1 6818   6.973   0.092   9.340  0.0000  0.0000  0.0000
 6819OM     OM1 6819   5.475   5.851   0.152  0.0000  0.0000  0.0000
 6820OM     OM1 6820   5.417   5.851   9.503  0.0000  0.0000  0.0000
 6821OM     OM1 6821   5.559   6.050   0.002  0.0000  0.0000  0.0000
 6822OM     OM1 6822   5.304   6.034   0.045  0.0000  0.0000  0.0000
 6823OM     OM1 6823   5.558   9.052   8.476  0.0000  0.0000  0.0000
 6824OM     OM1 6824   5.510   8.802   8.450  0.0000  0.0000  0.0000
 6825OM     OM1 6825   1.384   5.529   8.370  0.0000  0.0000  0.0000
 6826OM     OM1 6826   1.196   5.529   8.541  0.0000  0.0000  0.0000
 6827OM     OM1 6827   1.157   5.638   8.309  0.0000  0.0000  0.0000
 6828OM     OM1 6828   6.750   3.626   9.366  0.0000  0.0000  0.0000
 6829OM     OM1 6829   6.615   3.470   9.513  0.0000  0.0000  0.0000
 6830OM     OM1 6830   6.639   3.407   9.270  0.0000  0.0000  0.0000
 6831OM     OM1 6831   0.636   3.441   9.164  0.0000  0.0000  0.0000
 6832OM     OM1 6832   0.885   3.340   9.176  0.0000  0.0000  0.0000
 6833OM     OM1 6833   6.327   0.978   9.018  0.0000  0.0000  0.0000
 6834OM     OM1 6834   6.450   1.170   8.896  0.0000  0.0000  0.0000
 6835OM     OM1 6835   3.632   1.660   1.235  0.0000  0.0000  0.0000
 6836OM     OM1 6836   3.981   1.568   1.343  0.0000  0.0000  0.0000
 6837OM     OM1 6837   3.840   1.586   1.131  0.0000  0.0000  0.0000
 6838OM     OM1 6838   3.316   0.214   0.932  0.0000  0.0000  0.0000
 6839OM     OM1 6839   3.449   0.295   0.726  0.0000  0.0000  0.0000
 6840OM     OM1 6840   6.537   4.870   9.340  0.0000  0.0000  0.0000
 6841OM     OM1 6841   4.143   6.700   8.743  0.0000  0.0000  0.0000
 6842OM     OM1 6842   4.374   6.800   8.743  0.0000  0.0000  0.0000
 6843OM     OM1 6843   9.045   3.357   8.418  0.0000  0.0000  0.0000
 6844OM     OM1 6844   9.156   3.567   8.526  0.0000  0.0000  0.0000
 6845OM     OM1 6845   2.523   5.076   0.498  0.0000  0.0000  0.0000
 6846OM     OM1 6846   2.402   5.314   0.516  0.0000  0.0000  0.0000
 6847OM     OM1 6847   2.280   5.110   0.422  0.0000  0.0000  0.0000
 6848OM     OM1 6848   2.489   5.224   0.292  0.0000  0.0000  0.0000
 6849OM     OM1 6849   6.857   7.447   0.053  0.0000  0.0000  0.0000
 6850OM     OM1 6850   6.979   7.372   0.269  0.0000  0.0000  0.0000
 6851OM     OM1 6851   6.721   7.302   0.227  0.0000  0.0000  0.0000
 6852OM     OM1 6852   9.183   1.834   0.839  0.0000  0.0000  0.0000
 6853OM     OM1 6853   9.008   1.815   0.637  0.0000  0.0000  0.0000
 6854OM     OM1 6854   8.493   3.820   1.334  0.0000  0.0000  0.0000
 6855OM     OM1 6855   8.580   3.741   1.097  0.0000  0.0000  0.0000
 6856OM     OM1 6856   4.816   1.751   0.105  0.0000  0.0000  0.0000
 6857OM     OM1 6857   5.017   1.855   0.239  0.0000  0.0000  0.0000
 6858OM     OM1 6858   4.798   1.978   0.238  0.0000  0.0000  0.0000
 6859OM     OM1 6859   4.818   1.744   0.367  0.0000  0.0000  0.0000
 6860OM     OM1 6860   3.358   6.202   9.559  0.0000  0.0000  0.0000
 6861OM     OM1 6861   3.841   6.097   9.589  0.0000  0.0000  0.0000
 6862OM     OM1 6862   3.516   6.312   9.375  0.0000  0.0000  0.0000
 6863OM     OM1 6863   4.789   4.893   0.257  0.0000  0.0000  0.0000
 6864OM     OM1 6864   9.122   1.091   9.102  0.0000  0.0000  0.0000
 6865OM     OM1 6865   9.215   1.324   9.019  0.0000  0.0000  0.0000
 6866OM     OM1 6866   9.366   1.177   9.171  0.0000  0.0000  0.0000
 6867OM     OM1 6867   7.782   8.704   0.793  0.0000  0.0000  0.0000
 6868OM     OM1 6868   7.788   8.998   1.156  0.0000  0.0000  0.0000
 6869OM     OM1 6869   7.758   8.931   0.913  0.0000  0.0000  0.0000
 6870OM     OM1 6870   1.196   3.295   0.443  0.0000  0.0000  0.0000
 6871OM     OM1 6871   1.230   3.026   0.359  0.0000  0.0000  0.0000
 6872OM     OM1 6872   9.006   3.295   9.138  0.0000  0.0000  0.0000
 6873OM     OM1 6873   9.154   3.463   9.004  0.0000  0.0000  0.0000
 6874OM     OM1 6874   9.130   3.214   8.927  0.0000  0.0000  0.0000
 6875OM     OM1 6875   2.328   4.455   0.005  0.0000  0.0000  0.0000
 6876OM     OM1 6876   2.278   4.577   9.380  0.0000  0.0000  0.0000
 6877OM     OM1 6877   2.165   4.656   0.010  0.0000  0.0000  0.0000
 6878OM     OM1 6878   3.657   1.878   9.210  0.0000  0.0000  0.0000
 6879OM     OM1 6879   3.543   2.069   9.093  0.0000  0.0000  0.0000
 6880OM     OM1 6880   7.007   8.749   8.783  0.0000  0.0000  0.0000
 6881OM     OM1 6881   6.837   8.550   8.806  0.0000  0.0000  0.0000
 6882OM     OM1 6882   7.092   8.516   8.874  0.0000  0.0000  0.0000
 6883OM     OM1 6883   0.307   3.719   0.811  0.0000  0.0000  0.0000
 6884OM     OM1 6884   0.168   3.550   0.673  0.0000  0.0000  0.0000
 6885OM     OM1 6885   4.691   3.530   9.293  0.0000  0.0000  0.0000
 6886OM     OM1 6886   4.449   3.507   9.215  0.0000  0.0000  0.0000
 6887OM     OM1 6887   2.392   6.638   0.506  0.0000  0.0000  0.0000
 6888OM     OM1 6888   9.278   9.273   0.354  0.0000  0.0000  0.0000
 6889OM     OM1 6889   9.578   6.697   8.371  0.0000  0.0000  0.0000
 6890OM     OM1 6890   0.169   6.829   8.524  0.0000  0.0000  0.0000
 6891OM     OM1 6891   2.698   7.306   0.986  0.0000  0.0000  0.0000
 6892OM     OM1 6892   2.570   7.382   1.203  0.0000  0.0000  0.0000
 6893OM     OM1 6893   1.418   2.420   0.767  0.0000  0.0000  0.0000
 6894OM     OM1 6894   1.227   2.311   0.890  0.0000  0.0000  0.0000
 6895OM     OM1 6895   5.018   0.082   9.520  0.0000  0.0000  0.0000
 6896OM     OM1 6896   5.217   0.156   0.054  0.0000  0.0000  0.0000
 6897OM     OM1 6897   5.146   0.147   0.307  0.0000  0.0000  0.0000
 6898OM     OM1 6898   5.049   0.337   9.570  0.0000  0.0000  0.0000
 6899OM     OM1 6899   0.515   1.212   8.256  0.0000  0.0000  0.0000
 6900OM     OM1 6900   0.438   1.115   8.485  0.0000  0.0000  0.0000
 6901OM     OM1 6901   2.755   8.350   1.319  0.0000  0.0000  0.0000
 6902OM     OM1 6902   6.592   1.232   0.079  0.0000  0.0000  0.0000
 6903OM     OM1 6903   6.734   1.327   9.492  0.0000  0.0000  0.0000
 6904OM     OM1 6904   6.478   1.387   9.508  0.0000  0.0000  0.0000
 6905OM     OM1 6905   1.794   8.454   9.386  0.0000  0.0000  0.0000
 6906OM     OM1 6906   3.920   1.327   8.736  0.0000  0.0000  0.0000
 6907OM     OM1 6907   3.719   1.435   8.600  0.0000  0.0000  0.0000
 6908OM     OM1 6908   3.784   1.524   8.831  0.0000  0.0000  0.0000
 6909OM     OM1 6909   3.941   1.571   8.628  0.0000  0.0000  0.0000
 6910OM     OM1 6910   2.166   4.294   0.899  0.0000  0.0000  0.0000
 6911OM     OM1 6911   3.562   7.750   8.670  0.0000  0.0000  0.0000
 6912OM     OM1 6912   3.424   7.908   8.502  0.0000  0.0000  0.0000
 6913OM     OM1 6913   5.444   7.621   8.404  0.0000  0.0000  0.0000
 6914OM     OM1 6914   5.383   7.473   8.601  0.0000  0.0000  0.0000
 6915OM     OM1 6915   5.514   7.351   8.409  0.0000  0.0000  0.0000
 6916OM     OM1 6916   1.713   3.709   8.568  0.0000  0.0000  0.0000
 6917OM     OM1 6917   1.656   3.919   8.419  0.0000  0.0000  0.0000
 6918OM     OM1 6918   5.167   2.575   9.419  0.0000  0.0000  0.0000
 6919OM     OM1 6919   4.919   2.550   9.329  0.0000  0.0000  0.0000
 6920OM     OM1 6920   5.090   2.731   9.229  0.0000  0.0000  0.0000
 6921OM     OM1 6921   1.875   6.207   8.284  0.0000  0.0000  0.0000
 6922OM     OM1 6922   0.042   7.988   8.711  0.0000  0.0000  0.0000
 6923OM     OM1 6923   0.269   7.846   8.696  0.0000  0.0000  0.0000
 6924OM     OM1 6924   0.380   7.812   8.464  0.0000  0.0000  0.0000
 6925OM     OM1 6925   0.578   0.148   9.457  0.0000  0.0000  0.0000
 6926OM     OM1 6926   6.284   0.909   8.367  0.0000  0.0000  0.0000
 6927OM     OM1 6927   4.230   2.444   1.093  0.0000  0.0000  0.0000
 6928OM     OM1 6928   4.428   2.277   1.089  0.0000  0.0000  0.0000
 6929OM     OM1 6929   4.204   2.214   0.962  0.0000  0.0000  0.0000
 6930OM     OM1 6930   7.070   8.791   9.534  0.0000  0.0000  0.0000
 6931OM     OM1 6931   3.786   5.174   8.342  0.0000  0.0000  0.0000
 6932OM     OM1 6932   3.571   5.322   8.322  0.0000  0.0000  0.0000
 6933OM     OM1 6933   0.396   3.549   9.111  0.0000  0.0000  0.0000
 6934OM     OM1 6934   0.556   3.459   8.918  0.0000  0.0000  0.0000
 6935OM     OM1 6935   1.710   8.134   8.726  0.0000  0.0000  0.0000
 6936OM     OM1 6936   1.579   8.327   8.600  0.0000  0.0000  0.0000
 6937OM     OM1 6937   1.826   8.356   8.692  0.0000  0.0000  0.0000
 6938OM     OM1 6938   3.143   3.136   8.473  0.0000  0.0000  0.0000
 6939OM     OM1 6939   3.296   2.968   8.319  0.0000  0.0000  0.0000
 6940OM     OM1 6940   3.418   3.140   8.466  0.0000  0.0000  0.0000
 6941OM     OM1 6941   0.064   5.627   0.061  0.0000  0.0000  0.0000
 6942OM     OM1 6942   9.452   5.535   9.567  0.0000  0.0000  0.0000
 6943OM     OM1 6943   9.511   5.461   0.204  0.0000  0.0000  0.0000
 6944OM     OM1 6944   2.183   7.954   9.327  0.0000  0.0000  0.0000
 6945OM     OM1 6945   2.067   7.737   9.277  0.0000  0.0000  0.0000
 6946OM     OM1 6946   0.778   3.249   0.856  0.0000  0.0000  0.0000
 6947OM     OM1 6947   0.827   3.356   0.619  0.0000  0.0000  0.0000
 6948OM     OM1 6948   7.524   9.486   8.843  0.0000  0.0000  0.0000
 6949OM     OM1 6949   7.669   9.287   8.752  0.0000  0.0000  0.0000
 6950OM     OM1 6950   7.665   9.514   8.615  0.0000  0.0000  0.0000
 6951OM     OM1 6951   9.306   7.288   0.975  0.0000  0.0000  0.0000
 6952OM     OM1 6952   9.441   7.094   0.882  0.0000  0.0000  0.0000
 6953OM     OM1 6953   9.249   7.205   0.732  0.0000  0.0000  0.0000
 6954OM     OM1 6954   9.473   7.325   0.764  0.0000  0.0000  0.0000
 6955OM     OM1 6955   9.538   6.617   0.470  0.0000  0.0000  0.0000
 6956OM     OM1 6956   9.362   6.745   0.319  0.0000  0.0000  0.0000
 6957OM     OM1 6957   9.368   6.784   0.567  0.0000  0.0000  0.0000
 6958OM     OM1 6958   6.626   8.988   0.270  0.0000  0.0000  0.0000
 6959OM     OM1 6959   6.601   9.098   9.558  0.0000  0.0000  0.0000
 6960OM     OM1 6960   0.373   5.503   1.078  0.0000  0.0000  0.0000
 6961OM     OM1 6961   0.214   6.645   8.360  0.0000  0.0000  0.0000
 6962OM     OM1 6962   6.623   1.224   0.339  0.0000  0.0000  0.0000
 6963OM     OM1 6963   6.800   1.047   0.393  0.0000  0.0000  0.0000
 6964OM     OM1 6964   6.677   0.850   0.504  0.0000  0.0000  0.0000
 6965OM     OM1 6965   5.453   3.423   9.388  0.0000  0.0000  0.0000
 6966OM     OM1 6966   5.656   3.807   9.189  0.0000  0.0000  0.0000
 6967OM     OM1 6967   5.606   3.629   9.369  0.0000  0.0000  0.0000
 6968OM     OM1 6968   8.756   2.510   1.094  0.0000  0.0000  0.0000
 6969OM     OM1 6969   8.878   2.366   0.914  0.0000  0.0000  0.0000
 6970OM     OM1 6970   6.345   6.515   0.068  0.0000  0.0000  0.0000
 6971OM     OM1 6971   6.302   6.111   9.586  0.0000  0.0000  0.0000
 6972OM     OM1 6972   2.934   8.395   0.450  0.0000  0.0000  0.0000
 6973OM     OM1 6973   2.695   8.315   0.495  0.0000  0.0000  0.0000
 6974OM     OM1 6974   2.761   8.555   0.570  0.0000  0.0000  0.0000
 6975OM     OM1 6975   3.349   8.442   8.837  0.0000  0.0000  0.0000
 6976OM     OM1 6976   3.125   8.394   8.943  0.0000  0.0000  0.0000
 6977OM     OM1 6977   3.325   8.269   9.048  0.0000  0.0000  0.0000
 6978OM     OM1 6978   6.700   7.691   8.361  0.0000  0.0000  0.0000
 6979OM     OM1 6979   8.465   1.237   0.603  0.0000  0.0000  0.0000
 6980OM     OM1 6980   8.266   1.070   0.659  0.0000  0.0000  0.0000
 6981OM     OM1 6981   8.330   1.140   0.411  0.0000  0.0000  0.0000
 6982OM     OM1 6982   0.870   5.692   9.504  0.0000  0.0000  0.0000
 6983OM     OM1 6983   1.064   5.664   9.325  0.0000  0.0000  0.0000
 6984OM     OM1 6984   9.334   5.004   0.040  0.0000  0.0000  0.0000
 6985OM     OM1 6985   9.325   5.210   9.480  0.0000  0.0000  0.0000
 6986OM     OM1 6986   9.105   5.104   9.581  0.0000  0.0000  0.0000
 6987OM     OM1 6987   6.868   5.363   8.459  0.0000  0.0000  0.0000
 6988OM     OM1 6988   6.930   5.581   8.335  0.0000  0.0000  0.0000
 6989OM     OM1 6989   8.480   4.725   0.219  0.0000  0.0000  0.0000
 6990OM     OM1 6990   8.644   4.773   0.419  0.0000  0.0000  0.0000
 6991OM     OM1 6991   1.077   7.454   8.815  0.0000  0.0000  0.0000
 6992OM     OM1 6992   0.894   7.305   8.716  0.0000  0.0000  0.0000
 6993OM     OM1 6993   9.096   8.195   0.219  0.0000  0.0000  0.0000
 6994OM     OM1 6994   9.364   8.181   0.194  0.0000  0.0000  0.0000
 6995OM     OM1 6995   3.028   4.825   9.419  0.0000  0.0000  0.0000
 6996OM     OM1 6996   3.132   4.914   0.048  0.0000  0.0000  0.0000
 6997OM     OM1 6997   9.248   9.360   1.258  0.0000  0.0000  0.0000
 6998OM     OM1 6998   7.305   0.285   0.891  0.0000  0.0000  0.0000
 6999OM     OM1 6999   7.189   0.149   0.708  0.0000  0.0000  0.0000
 7000OM     OM1 7000   0.735   1.490   0.913  0.0000  0.0000  0.0000
 7001OM     OM1 7001   9.160   2.527   8.475  0.0000  0.0000  0.0000
 7002OM     OM1 7002   9.222   3.342   0.328  0.0000  0.0000  0.0000
 7003OM     OM1 7003   7.192   9.172   0.436  0.0000  0.0000  0.0000
 7004OM     OM1 7004   6.948   9.120   0.503  0.0000  0.0000  0.0000
 7005OM     OM1 7005   7.079   8.933   0.383  0.0000  0.0000  0.0000
 7006OM     OM1 7006   3.278   1.126   0.675  0.0000  0.0000  0.0000
 7007OM     OM1 7007   2.034   5.614   0.988  0.0000  0.0000  0.0000
 7008OM     OM1 7008   2.067   5.607   1.246  0.0000  0.0000  0.0000
 7009OM     OM1 7009   2.064   5.383   1.111  0.0000  0.0000  0.0000
 7010OM     OM1 7010   3.703   2.511   9.043  0.0000  0.0000  0.0000
 7011OM     OM1 7011   3.698   2.261   8.981  0.0000  0.0000  0.0000
 7012OM     OM1 7012   3.883   2.432   8.892  0.0000  0.0000  0.0000
 7013OM     OM1 7013   7.107   2.110   0.269  0.0000  0.0000  0.0000
 7014OM     OM1 7014   6.937   2.273   0.390  0.0000  0.0000  0.0000
 7015OM     OM1 7015   6.950   2.259   0.134  0.0000  0.0000  0.0000
 7016OM     OM1 7016   7.150   2.373   0.265  0.0000  0.0000  0.0000
 7017OM     OM1 7017   7.105   5.675   9.235  0.0000  0.0000  0.0000
 7018OM     OM1 7018   6.860   5.751   9.202  0.0000  0.0000  0.0000
 7019OM     OM1 7019   5.936   8.918   1.159  0.0000  0.0000  0.0000
 7020OM     OM1 7020   6.081   9.117   1.259  0.0000  0.0000  0.0000
 7021OM     OM1 7021   8.212   7.089   0.754  0.0000  0.0000  0.0000
 7022OM     OM1 7022   8.224   7.166   0.508  0.0000  0.0000  0.0000
 7023OM     OM1 7023   8.398   7.257   0.711  0.0000  0.0000  0.0000
 7024OM     OM1 7024   2.050   3.967   0.592  0.0000  0.0000  0.0000
 7025OM     OM1 7025   2.138   4.045   0.837  0.0000  0.0000  0.0000
 7026OM     OM1 7026   2.199   4.174   0.625  0.0000  0.0000  0.0000
 7027OM     OM1 7027   1.953   4.171   0.710  0.0000  0.0000  0.0000
 7028OM     OM1 7028   2.154   6.577   0.602  0.0000  0.0000  0.0000
 7029OM     OM1 7029   2.092   6.400   0.793  0.0000  0.0000  0.0000
 7030OM     OM1 7030   2.237   6.615   0.841  0.0000  0.0000  0.0000
 7031OM     OM1 7031   1.986   6.649   0.779  0.0000  0.0000  0.0000
 7032OM     OM1 7032   3.224   4.147   0.121  0.0000  0.0000  0.0000
 7033OM     OM1 7033   3.146   4.113   0.356  0.0000  0.0000  0.0000
 7034OM     OM1 7034   3.026   4.292   0.224  0.0000  0.0000  0.0000
 7035OM     OM1 7035   5.283   3.408   8.541  0.0000  0.0000  0.0000
 7036OM     OM1 7036   5.215   3.598   8.377  0.0000  0.0000  0.0000
 7037OM     OM1 7037   5.247   3.335   8.293  0.0000  0.0000  0.0000
 7038OM     OM1 7038   8.741   8.579   9.025  0.0000  0.0000  0.0000
 7039OM     OM1 7039   8.937   8.417   9.051  0.0000  0.0000  0.0000
 7040OM     OM1 7040   8.902   8.560   8.835  0.0000  0.0000  0.0000
 7041OM     OM1 7041   8.975   8.690   9.045  0.0000  0.0000  0.0000
 7042OM     OM1 7042   3.197   4.835   8.914  0.0000  0.0000  0.0000
 7043OM     OM1 7043   3.280   4.596   8.988  0.0000  0.0000  0.0000
 7044OM     OM1 7044   3.792   5.053   8.916  0.0000  0.0000  0.0000
 7045OM     OM1 7045   3.851   4.863   8.737  0.0000  0.0000  0.0000
 7046OM     OM1 7046   4.006   4.917   8.939  0.0000  0.0000  0.0000
 7047OM     OM1 7047   5.904   3.196   9.315  0.0000  0.0000  0.0000
 7048OM     OM1 7048   6.127   3.119   9.429  0.0000  0.0000  0.0000
 7049OM     OM1 7049   6.052   3.037   9.186  0.0000  0.0000  0.0000
 7050OM     OM1 7050   6.131   3.284   9.230  0.0000  0.0000  0.0000
 7051OM     OM1 7051   7.718   1.068   9.461  0.0000  0.0000  0.0000
 7052OM     OM1 7052   2.508   0.589   8.370  0.0000  0.0000  0.0000
 7053OM     OM1 7053   4.911   4.154   0.498  0.0000  0.0000  0.0000
 7054OM     OM1 7054   5.040   4.006   0.337  0.0000  0.0000  0.0000
 7055OM     OM1 7055   0.737   3.934   0.898  0.0000  0.0000  0.0000
 7056OM     OM1 7056   8.867   4.649   0.072  0.0000  0.0000  0.0000
 7057OM     OM1 7057   8.671   4.522   9.534  0.0000  0.0000  0.0000
 7058OM     OM1 7058   5.566   2.316   0.251  0.0000  0.0000  0.0000
 7059OM     OM1 7059   5.652   2.384   0.023  0.0000  0.0000  0.0000
 7060OM     OM1 7060   5.647   2.565   0.215  0.0000  0.0000  0.0000
 7061OM     OM1 7061   3.345   4.050   1.014  0.0000  0.0000  0.0000
 7062OM     OM1 7062   3.573   4.033   0.915  0.0000  0.0000  0.0000
 7063OM     OM1 7063   3.324   4.313   0.971  0.0000  0.0000  0.0000
 7064OM     OM1 7064   3.539   4.097   1.174  0.0000  0.0000  0.0000
 7065OM     OM1 7065   8.240   1.664   8.359  0.0000  0.0000  0.0000
 7066OM     OM1 7066   8.032   1.626   8.221  0.0000  0.0000  0.0000
 7067OM     OM1 7067   5.540   3.925   8.685  0.0000  0.0000  0.0000
 7068OM     OM1 7068   5.556   3.660   8.728  0.0000  0.0000  0.0000
 7069OM     OM1 7069   5.570   3.818   8.927  0.0000  0.0000  0.0000
 7070OM     OM1 7070   5.341   3.792   8.786  0.0000  0.0000  0.0000
 7071OM     OM1 7071   9.311   5.408   8.648  0.0000  0.0000  0.0000
 7072OM     OM1 7072   9.473   5.204   8.670  0.0000  0.0000  0.0000
 7073OM     OM1 7073   9.442   5.339   8.442  0.0000  0.0000  0.0000
 7074OM     OM1 7074   2.324   3.579   0.549  0.0000  0.0000  0.0000
 7075OM     OM1 7075   2.282   3.603   0.800  0.0000  0.0000  0.0000
 7076OM     OM1 7076   2.116   3.721   0.632  0.0000  0.0000  0.0000
 7077OM     OM1 7077   7.664   7.575   9.043  0.0000  0.0000  0.0000
 7078OM     OM1 7078   7.469   7.712   8.934  0.0000  0.0000  0.0000
 7079OM     OM1 7079   0.455   4.716   9.564  0.0000  0.0000  0.0000
 7080OM     OM1 7080   0.705   4.704   9.531  0.0000  0.0000  0.0000
 7081OM     OM1 7081   0.565   4.495   9.486  0.0000  0.0000  0.0000
 7082OM     OM1 7082   0.928   4.848   9.526  0.0000  0.0000  0.0000
 7083OM     OM1 7083   7.663   5.528   8.853  0.0000  0.0000  0.0000
 7084OM     OM1 7084   7.843   5.563   9.023  0.0000  0.0000  0.0000
 7085OM     OM1 7085   5.086   0.562   0.880  0.0000  0.0000  0.0000
 7086OM     OM1 7086   5.053   0.812   0.945  0.0000  0.0000  0.0000
 7087OM     OM1 7087   2.727   4.035   9.443  0.0000  0.0000  0.0000
 7088OM     OM1 7088   2.519   3.911   9.505  0.0000  0.0000  0.0000
 7089OM     OM1 7089   2.618   4.079   0.078  0.0000  0.0000  0.0000
 7090OM     OM1 7090   2.572   4.650   8.907  0.0000  0.0000  0.0000
 7091OM     OM1 7091   2.687   5.069   9.091  0.0000  0.0000  0.0000
 7092OM     OM1 7092   2.745   4.819   9.014  0.0000  0.0000  0.0000
 7093OM     OM1 7093   2.813   4.629   8.837  0.0000  0.0000  0.0000
 7094OM     OM1 7094   2.361   1.348   8.358  0.0000  0.0000  0.0000
 7095OM     OM1 7095   3.893   5.211   0.716  0.0000  0.0000  0.0000
 7096OM     OM1 7096   3.901   4.970   0.821  0.0000  0.0000  0.0000
 7097OM     OM1 7097   4.082   5.149   0.884  0.0000  0.0000  0.0000
 7098OM     OM1 7098   1.338   5.274   8.435  0.0000  0.0000  0.0000
 7099OM     OM1 7099   6.469   9.490   8.400  0.0000  0.0000  0.0000
 7100OM     OM1 7100   6.383   9.445   8.647  0.0000  0.0000  0.0000
 7101OM     OM1 7101   5.342   4.361   8.953  0.0000  0.0000  0.0000
 7102OM     OM1 7102   5.149   4.529   8.965  0.0000  0.0000  0.0000
 7103OM     OM1 7103   4.710   1.986   9.182  0.0000  0.0000  0.0000
 7104OM     OM1 7104   4.963   2.024   9.176  0.0000  0.0000  0.0000
 7105OM     OM1 7105   4.925   5.982   8.922  0.0000  0.0000  0.0000
 7106OM     OM1 7106   4.762   5.875   8.744  0.0000  0.0000  0.0000
 7107OM     OM1 7107   4.744   6.127   8.809  0.0000  0.0000  0.0000
 7108OM     OM1 7108   8.807   1.156   8.706  0.0000  0.0000  0.0000
 7109OM     OM1 7109   8.588   1.139   8.573  0.0000  0.0000  0.0000
 7110OM     OM1 7110   8.647   0.959   8.747  0.0000  0.0000  0.0000
 7111OM     OM1 7111   8.583   1.209   8.830  0.0000  0.0000  0.0000
 7112OM     OM1 7112   7.171   3.043   1.149  0.0000  0.0000  0.0000
 7113OM     OM1 7113   6.988   3.073   1.333  0.0000  0.0000  0.0000
 7114OM     OM1 7114   7.074   2.837   1.263  0.0000  0.0000  0.0000
 7115OM     OM1 7115   1.968   7.249   9.564  0.0000  0.0000  0.0000
 7116OM     OM1 7116   1.971   7.359   9.326  0.0000  0.0000  0.0000
 7117OM     OM1 7117   2.194   7.287   9.449  0.0000  0.0000  0.0000
 7118OM     OM1 7118   1.474   8.204   0.039  0.0000  0.0000  0.0000
 7119OM     OM1 7119   1.505   8.283   0.289  0.0000  0.0000  0.0000
 7120OM     OM1 7120   1.613   8.418   0.106  0.0000  0.0000  0.0000
 7121OM     OM1 7121   7.228   9.403   0.314  0.0000  0.0000  0.0000
 7122OM     OM1 7122   7.049   9.542   0.176  0.0000  0.0000  0.0000
 7123OM     OM1 7123   7.299   9.513   0.089  0.0000  0.0000  0.0000
 7124OM     OM1 7124   1.015   9.561   0.905  0.0000  0.0000  0.0000
 7125OM     OM1 7125   1.248   0.076   0.908  0.0000  0.0000  0.0000
 7126OM     OM1 7126   0.786   9.549   1.031  0.0000  0.0000  0.0000
 7127OM     OM1 7127   1.400   7.551   1.067  0.0000  0.0000  0.0000
 7128OM     OM1 7128   1.529   7.544   0.841  0.0000  0.0000  0.0000
 7129OM     OM1 7129   1.335   7.716   0.861  0.0000  0.0000  0.0000
 7130OM     OM1 7130   1.560   7.743   0.995  0.0000  0.0000  0.0000
 7131OM     OM1 7131   4.909   7.323   8.804  0.0000  0.0000  0.0000
 7132OM     OM1 7132   4.852   7.124   8.651  0.0000  0.0000  0.0000
 7133OM     OM1 7133   8.472   8.110   0.888  0.0000  0.0000  0.0000
 7134OM     OM1 7134   8.273   8.247   0.957  0.0000  0.0000  0.0000
 7135OM     OM1 7135   2.370   8.671   8.739  0.0000  0.0000  0.0000
 7136OM     OM1 7136   2.173   8.588   8.590  0.0000  0.0000  0.0000
 7137OM     OM1 7137   2.227   8.462   8.809  0.0000  0.0000  0.0000
 7138OM     OM1 7138   3.938   6.572   8.821  0.0000  0.0000  0.0000
 7139OM     OM1 7139   3.711   6.470   8.882  0.0000  0.0000  0.0000
 7140OM     OM1 7140   3.737   6.646   8.692  0.0000  0.0000  0.0000
 7141OM     OM1 7141   6.785   0.543   8.292  0.0000  0.0000  0.0000
 7142OM     OM1 7142   6.637   0.322   8.305  0.0000  0.0000  0.0000
 7143OM     OM1 7143   1.167   6.589   0.932  0.0000  0.0000  0.0000
 7144OM     OM1 7144   1.023   6.983   0.880  0.0000  0.0000  0.0000
 7145OM     OM1 7145   0.908   6.532   0.959  0.0000  0.0000  0.0000
 7146OM     OM1 7146   3.804   6.280   8.722  0.0000  0.0000  0.0000
 7147OM     OM1 7147   3.847   6.049   8.607  0.0000  0.0000  0.0000
 7148OM     OM1 7148   4.030   6.245   8.582  0.0000  0.0000  0.0000
 7149OM     OM1 7149   5.133   7.690   0.626  0.0000  0.0000  0.0000
 7150OM     OM1 7150   5.220   7.648   0.865  0.0000  0.0000  0.0000
 7151OM     OM1 7151   5.318   7.850   0.722  0.0000  0.0000  0.0000
 7152OM     OM1 7152   6.065   2.719   0.486  0.0000  0.0000  0.0000
 7153OM     OM1 7153   6.985   0.637   1.187  0.0000  0.0000  0.0000
 7154OM     OM1 7154   7.152   0.826   1.270  0.0000  0.0000  0.0000
 7155OM     OM1 7155   2.720   5.345   0.231  0.0000  0.0000  0.0000
 7156OM     OM1 7156   2.895   5.529   0.192  0.0000  0.0000  0.0000
 7157OM     OM1 7157   2.995   5.296   0.226  0.0000  0.0000  0.0000
 7158OM     OM1 7158   7.578   1.412   8.660  0.0000  0.0000  0.0000
 7159OM     OM1 7159   7.701   1.290   8.458  0.0000  0.0000  0.0000
 7160OM     OM1 7160   7.444   1.242   8.521  0.0000  0.0000  0.0000
 7161OM     OM1 7161   7.649   1.165   8.678  0.0000  0.0000  0.0000
 7162OM     OM1 7162   1.829   6.534   0.618  0.0000  0.0000  0.0000
 7163OM     OM1 7163   1.897   6.769   0.554  0.0000  0.0000  0.0000
 7164OM     OM1 7164   2.719   8.796   0.661  0.0000  0.0000  0.0000
 7165OM     OM1 7165   2.949   8.918   0.618  0.0000  0.0000  0.0000
 7166OM     OM1 7166   2.744   9.057   0.685  0.0000  0.0000  0.0000
 7167OM     OM1 7167   7.119   0.634   0.426  0.0000  0.0000  0.0000
 7168OM     OM1 7168   7.394   4.490   1.089  0.0000  0.0000  0.0000
 7169OM     OM1 7169   7.446   4.234   1.096  0.0000  0.0000  0.0000
 7170OM     OM1 7170   7.589   4.403   1.228  0.0000  0.0000  0.0000
 7171OM     OM1 7171   7.279   6.966   8.420  0.0000  0.0000  0.0000
 7172OM     OM1 7172   4.333   6.138   9.060  0.0000  0.0000  0.0000
 7173OM     OM1 7173   4.271   5.884   9.060  0.0000  0.0000  0.0000
 7174OM     OM1 7174   4.087   6.068   9.065  0.0000  0.0000  0.0000
 7175OM     OM1 7175   7.006   5.060   9.167  0.0000  0.0000  0.0000
 7176OM     OM1 7176   7.082   5.009   8.917  0.0000  0.0000  0.0000
 7177OM     OM1 7177   6.904   4.861   9.048  0.0000  0.0000  0.0000
 7178OM     OM1 7178   7.830   4.561   0.360  0.0000  0.0000  0.0000
 7179OM     OM1 7179   7.960   4.457   0.172  0.0000  0.0000  0.0000
 7180OM     OM1 7180   3.737   2.647   8.283  0.0000  0.0000  0.0000
 7181OM     OM1 7181   5.407   8.527   1.043  0.0000  0.0000  0.0000
 7182OM     OM1 7182   5.409   8.267   1.061  0.0000  0.0000  0.0000
 7183OM     OM1 7183   0.506   2.276   9.493  0.0000  0.0000  0.0000
 7184OM     OM1 7184   2.371   9.358   1.120  0.0000  0.0000  0.0000
 7185OM     OM1 7185   2.591   9.454   1.034  0.0000  0.0000  0.0000
 7186OM     OM1 7186   5.388   8.032   9.004  0.0000  0.0000  0.0000
 7187OM     OM1 7187   5.210   7.963   8.806  0.0000  0.0000  0.0000
 7188OM     OM1 7188   5.430   7.828   8.861  0.0000  0.0000  0.0000
 7189OM     OM1 7189   5.440   8.074   8.761  0.0000  0.0000  0.0000
 7190OM     OM1 7190   8.394   3.494   9.073  0.0000  0.0000  0.0000
 7191OM     OM1 7191   8.223   3.294   8.988  0.0000  0.0000  0.0000
 7192OM     OM1 7192   8.137   3.497   9.108  0.0000  0.0000  0.0000
 7193OM     OM1 7193   8.243   3.536   8.874  0.0000  0.0000  0.0000
 7194OM     OM1 7194   3.737   5.949   1.084  0.0000  0.0000  0.0000
 7195OM     OM1 7195   3.546   6.107   1.029  0.0000  0.0000  0.0000
 7196OM     OM1 7196   3.547   6.559   9.266  0.0000  0.0000  0.0000
 7197OM     OM1 7197   3.745   6.568   9.421  0.0000  0.0000  0.0000
 7198OM     OM1 7198   4.296   6.974   8.339  0.0000  0.0000  0.0000
 7199OM     OM1 7199   5.539   1.305   8.611  0.0000  0.0000  0.0000
 7200OM     OM1 7200   5.342   1.383   8.450  0.0000  0.0000  0.0000
 7201OM     OM1 7201   3.029   7.799   9.154  0.0000  0.0000  0.0000
 7202OM     OM1 7202   2.932   7.950   9.349  0.0000  0.0000  0.0000
 7203OM     OM1 7203   6.270   8.830   0.759  0.0000  0.0000  0.0000
 7204OM     OM1 7204   6.093   8.825   0.962  0.0000  0.0000  0.0000
 7205OM     OM1 7205   2.413   1.227   0.602  0.0000  0.0000  0.0000
 7206OM     OM1 7206   2.380   1.318   0.354  0.0000  0.0000  0.0000
 7207OM     OM1 7207   5.866   4.714   9.221  0.0000  0.0000  0.0000
 7208OM     OM1 7208   5.966   4.753   8.988  0.0000  0.0000  0.0000
 7209OM     OM1 7209   2.680   6.902   8.371  0.0000  0.0000  0.0000
 7210OM     OM1 7210   7.180   9.603   9.485  0.0000  0.0000  0.0000
 7211OM     OM1 7211   7.442   9.559   9.472  0.0000  0.0000  0.0000
 7212OM     OM1 7212   7.258   9.366   9.482  0.0000  0.0000  0.0000
 7213OM     OM1 7213   1.584   3.819   9.480  0.0000  0.0000  0.0000
 7214OM     OM1 7214   5.952   3.840   0.038  0.0000  0.0000  0.0000
 7215OM     OM1 7215   6.225   3.836   0.113  0.0000  0.0000  0.0000
 7216OM     OM1 7216   6.054   3.883   9.419  0.0000  0.0000  0.0000
 7217OM     OM1 7217   5.638   2.952   1.281  0.0000  0.0000  0.0000
 7218OM     OM1 7218   6.072   5.784   8.467  0.0000  0.0000  0.0000
 7219OM     OM1 7219   5.861   5.656   8.420  0.0000  0.0000  0.0000
 7220OM     OM1 7220   5.841   5.910   8.492  0.0000  0.0000  0.0000
 7221OM     OM1 7221   5.899   5.737   8.669  0.0000  0.0000  0.0000
 7222OM     OM1 7222   1.183   0.242   1.097  0.0000  0.0000  0.0000
 7223OM     OM1 7223   1.176   0.407   1.289  0.0000  0.0000  0.0000
 7224OM     OM1 7224   2.484   6.030   8.624  0.0000  0.0000  0.0000
 7225OM     OM1 7225   2.666   5.857   8.693  0.0000  0.0000  0.0000
 7226OM     OM1 7226   2.920   5.837   8.638  0.0000  0.0000  0.0000
 7227OM     OM1 7227   1.015   1.664   0.255  0.0000  0.0000  0.0000
 7228OM     OM1 7228   1.356   8.074   0.786  0.0000  0.0000  0.0000
 7229OM     OM1 7229   1.127   7.985   0.920  0.0000  0.0000  0.0000
 7230OM     OM1 7230   1.111   8.144   0.734  0.0000  0.0000  0.0000
 7231OM     OM1 7231   1.201   7.887   0.703  0.0000  0.0000  0.0000
 7232OM     OM1 7232   7.597   2.608   8.542  0.0000  0.0000  0.0000
 7233OM     OM1 7233   7.596   2.594   8.807  0.0000  0.0000  0.0000
 7234OM     OM1 7234   7.379   2.631   8.667  0.0000  0.0000  0.0000
 7235OM     OM1 7235   2.898   1.325   9.428  0.0000  0.0000  0.0000
 7236OM     OM1 7236   3.030   1.136   9.525  0.0000  0.0000  0.0000
 7237OM     OM1 7237   3.057   1.321   0.296  0.0000  0.0000  0.0000
 7238OM     OM1 7238   7.398   2.399   0.759  0.0000  0.0000  0.0000
 7239OM     OM1 7239   7.371   2.648   0.699  0.0000  0.0000  0.0000
 7240OM     OM1 7240   0.764   1.779   9.183  0.0000  0.0000  0.0000
 7241OM     OM1 7241   0.570   1.756   9.341  0.0000  0.0000  0.0000
 7242OM     OM1 7242   0.334   1.807   9.442  0.0000  0.0000  0.0000
 7243OM     OM1 7243   7.065   2.119   8.882  0.0000  0.0000  0.0000
 7244OM     OM1 7244   6.851   2.025   8.775  0.0000  0.0000  0.0000
 7245OM     OM1 7245   4.701   9.112   0.975  0.0000  0.0000  0.0000
 7246OM     OM1 7246   4.694   8.888   0.858  0.0000  0.0000  0.0000
 7247OM     OM1 7247   3.102   4.304   8.607  0.0000  0.0000  0.0000
 7248OM     OM1 7248   2.868   4.354   8.519  0.0000  0.0000  0.0000
 7249OM     OM1 7249   2.991   4.537   8.657  0.0000  0.0000  0.0000
 7250OM     OM1 7250   3.080   4.478   8.415  0.0000  0.0000  0.0000
 7251OM     OM1 7251   1.975   1.174   8.757  0.0000  0.0000  0.0000
 7252OM     OM1 7252   1.845   1.111   8.963  0.0000  0.0000  0.0000
 7253OM     OM1 7253   8.328   3.743   8.725  0.0000  0.0000  0.0000
 7254OM     OM1 7254   1.052   0.844   0.941  0.0000  0.0000  0.0000
 7255OM     OM1 7255   9.593   9.360   8.595  0.0000  0.0000  0.0000
 7256OM     OM1 7256   9.440   9.488   8.753  0.0000  0.0000  0.0000
 7257OM     OM1 7257   6.425   2.067   1.284  0.0000  0.0000  0.0000
 7258OM     OM1 7258   2.216   0.110   8.920  0.0000  0.0000  0.0000
 7259OM     OM1 7259   2.263   0.096   9.179  0.0000  0.0000  0.0000
 7260OM     OM1 7260   9.513   4.097   8.845  0.0000  0.0000  0.0000
 7261OM     OM1 7261   9.464   3.977   9.062  0.0000  0.0000  0.0000
 7262OM     OM1 7262   4.951   5.388   8.424  0.0000  0.0000  0.0000
 7263OM     OM1 7263   4.821   5.182   8.337  0.0000  0.0000  0.0000
 7264OM     OM1 7264   5.070   5.150   8.399  0.0000  0.0000  0.0000
 7265OM     OM1 7265   7.423   5.530   0.420  0.0000  0.0000  0.0000
 7266OM     OM1 7266   7.393   5.389   0.631  0.0000  0.0000  0.0000
 7267OM     OM1 7267   2.299   4.260   8.553  0.0000  0.0000  0.0000
 7268OM     OM1 7268   0.038   8.923   1.315  0.0000  0.0000  0.0000
 7269OM     OM1 7269   6.637   2.571   0.571  0.0000  0.0000  0.0000
 7270OM     OM1 7270   6.504   2.462   0.382  0.0000  0.0000  0.0000
 7271OM     OM1 7271   7.999   5.383   9.148  0.0000  0.0000  0.0000
 7272OM     OM1 7272   8.099   5.192   9.001  0.0000  0.0000  0.0000
 7273OM     OM1 7273   8.140   5.181   9.249  0.0000  0.0000  0.0000
 7274OM     OM1 7274   8.247   5.386   9.113  0.0000  0.0000  0.0000
 7275OM     OM1 7275   9.012   1.303   0.143  0.0000  0.0000  0.0000
 7276OM     OM1 7276   9.239   1.216   0.073  0.0000  0.0000  0.0000
 7277OM     OM1 7277   8.108   0.881   0.739  0.0000  0.0000  0.0000
 7278OM     OM1 7278   7.941   0.843   1.176  0.0000  0.0000  0.0000
 7279OM     OM1 7279   8.049   0.762   0.959  0.0000  0.0000  0.0000
 7280OM     OM1 7280   7.789   0.802   0.967  0.0000  0.0000  0.0000
 7281OM     OM1 7281   1.124   9.031   9.139  0.0000  0.0000  0.0000
 7282OM     OM1 7282   1.180   8.921   9.371  0.0000  0.0000  0.0000
 7283OM     OM1 7283   1.059   9.401   9.467  0.0000  0.0000  0.0000
 7284OM     OM1 7284   0.123   9.038   1.099  0.0000  0.0000  0.0000
 7285OM     OM1 7285   0.287   8.970   1.295  0.0000  0.0000  0.0000
 7286OM     OM1 7286   0.106   9.169   1.329  0.0000  0.0000  0.0000
 7287OM     OM1 7287   1.321   0.634   1.321  0.0000  0.0000  0.0000
 7288OM     OM1 7288   1.188   0.829   1.426  0.0000  0.0000  0.0000
 7289OM     OM1 7289   4.506   0.020   8.706  0.0000  0.0000  0.0000
 7290OM     OM1 7290   4.395   9.415   8.820  0.0000  0.0000  0.0000
 7291OM     OM1 7291   4.440   9.495   8.491  0.0000  0.0000  0.0000
 7292OM     OM1 7292   8.927   3.678   9.395  0.0000  0.0000  0.0000
 7293OM     OM1 7293   8.703   3.784   9.375  0.0000  0.0000  0.0000
 7294OM     OM1 7294   8.846   3.862   9.582  0.0000  0.0000  0.0000
 7295OM     OM1 7295   5.472   0.406   0.325  0.0000  0.0000  0.0000
 7296OM     OM1 7296   5.544   0.620   0.459  0.0000  0.0000  0.0000
 7297OM     OM1 7297   5.291   0.566   0.425  0.0000  0.0000  0.0000
 7298OM     OM1 7298   4.334   7.356   9.571  0.0000  0.0000  0.0000
 7299OM     OM1 7299   4.142   7.444   0.118  0.0000  0.0000  0.0000
 7300OM     OM1 7300   4.222   7.206   0.166  0.0000  0.0000  0.0000
 7301OM     OM1 7301   5.292   1.587   8.292  0.0000  0.0000  0.0000
 7302OM     OM1 7302   5.151   1.770   8.170  0.0000  0.0000  0.0000
 7303OM     OM1 7303   0.512   2.096   8.925  0.0000  0.0000  0.0000
 7304OM     OM1 7304   0.570   1.851   9.002  0.0000  0.0000  0.0000
 7305OM     OM1 7305   0.345   1.948   9.076  0.0000  0.0000  0.0000
 7306OM     OM1 7306   0.633   4.579   9.238  0.0000  0.0000  0.0000
 7307OM     OM1 7307   0.616   4.695   8.996  0.0000  0.0000  0.0000
 7308OM     OM1 7308   0.804   4.523   9.039  0.0000  0.0000  0.0000
 7309OM     OM1 7309   5.428   2.367   8.326  0.0000  0.0000  0.0000
 7310OM     OM1 7310   5.292   2.588   8.340  0.0000  0.0000  0.0000
 7311OM     OM1 7311   5.553   2.583   8.255  0.0000  0.0000  0.0000
 7312OM     OM1 7312   5.490   2.561   8.499  0.0000  0.0000  0.0000
 7313OM     OM1 7313   5.560   7.951   0.729  0.0000  0.0000  0.0000
 7314OM     OM1 7314   5.469   7.853   0.512  0.0000  0.0000  0.0000
 7315OM     OM1 7315   6.102   7.643   0.691  0.0000  0.0000  0.0000
 7316OM     OM1 7316   6.329   7.764   0.763  0.0000  0.0000  0.0000
 7317OM     OM1 7317   3.178   9.061   0.969  0.0000  0.0000  0.0000
 7318OM     OM1 7318   3.299   8.924   0.776  0.0000  0.0000  0.0000
 7319OM     OM1 7319   0.596   4.369   0.788  0.0000  0.0000  0.0000
 7320OM     OM1 7320   0.404   4.188   0.785  0.0000  0.0000  0.0000
 7321OM     OM1 7321   5.803   1.529   8.957  0.0000  0.0000  0.0000
 7322OM     OM1 7322   5.581   1.434   9.022  0.0000  0.0000  0.0000
 7323OM     OM1 7323   0.405   6.981   0.746  0.0000  0.0000  0.0000
 7324OM     OM1 7324   0.253   7.042   0.539  0.0000  0.0000  0.0000
 7325OM     OM1 7325   0.535   6.806   0.604  0.0000  0.0000  0.0000
 7326OM     OM1 7326   7.742   4.306   9.229  0.0000  0.0000  0.0000
 7327OM     OM1 7327   7.590   4.638   9.123  0.0000  0.0000  0.0000
 7328OM     OM1 7328   7.753   4.564   9.298  0.0000  0.0000  0.0000
 7329OM     OM1 7329   1.039   9.413   0.120  0.0000  0.0000  0.0000
 7330OM     OM1 7330   5.471   1.902   0.059  0.0000  0.0000  0.0000
 7331OM     OM1 7331   4.126   1.206   8.846  0.0000  0.0000  0.0000
 7332OM     OM1 7332   3.895   1.217   8.973  0.0000  0.0000  0.0000
 7333OM     OM1 7333   3.913   1.065   8.762  0.0000  0.0000  0.0000
 7334OM     OM1 7334   6.996   7.629   8.788  0.0000  0.0000  0.0000
 7335OM     OM1 7335   7.160   7.489   8.655  0.0000  0.0000  0.0000
 7336OM     OM1 7336   7.116   7.750   8.584  0.0000  0.0000  0.0000
 7337OM     OM1 7337   7.259   7.685   8.784  0.0000  0.0000  0.0000
 7338OM     OM1 7338   3.105   2.329   9.171  0.0000  0.0000  0.0000
 7339OM     OM1 7339   3.294   2.303   8.984  0.0000  0.0000  0.0000
 7340OM     OM1 7340   3.076   2.174   8.957  0.0000  0.0000  0.0000
 7341OM     OM1 7341   4.948   3.147   8.352  0.0000  0.0000  0.0000
 7342OM     OM1 7342   4.760   3.319   8.308  0.0000  0.0000  0.0000
 7343OM     OM1 7343   4.768   3.576   8.334  0.0000  0.0000  0.0000
 7344OM     OM1 7344   4.818   3.423   8.540  0.0000  0.0000  0.0000
 7345OM     OM1 7345   8.286   6.844   0.825  0.0000  0.0000  0.0000
 7346OM     OM1 7346   8.146   6.725   0.653  0.0000  0.0000  0.0000
 7347OM     OM1 7347   8.405   6.741   0.623  0.0000  0.0000  0.0000
 7348OM     OM1 7348   0.213   9.255   1.002  0.0000  0.0000  0.0000
 7349OM     OM1 7349   0.092   9.096   0.829  0.0000  0.0000  0.0000
 7350OM     OM1 7350   0.315   9.024   0.925  0.0000  0.0000  0.0000
 7351OM     OM1 7351   4.610   1.668   9.236  0.0000  0.0000  0.0000
 7352OM     OM1 7352   4.663   1.429   9.262  0.0000  0.0000  0.0000
 7353OM     OM1 7353   4.515   1.498   9.052  0.0000  0.0000  0.0000
 7354OM     OM1 7354   2.788   7.931   0.230  0.0000  0.0000  0.0000
 7355OM     OM1 7355   2.974   7.974   0.411  0.0000  0.0000  0.0000
 7356OM     OM1 7356   2.724   8.064   0.438  0.0000  0.0000  0.0000
 7357OM     OM1 7357   1.590   7.321   9.443  0.0000  0.0000  0.0000
 7358OM     OM1 7358   1.213   7.187   9.546  0.0000  0.0000  0.0000
 7359OM     OM1 7359   1.368   7.240   9.338  0.0000  0.0000  0.0000
 7360OM     OM1 7360   4.233   8.062   0.254  0.0000  0.0000  0.0000
 7361OM     OM1 7361   4.453   8.047   0.410  0.0000  0.0000  0.0000
 7362OM     OM1 7362   4.220   7.958   0.488  0.0000  0.0000  0.0000
 7363OM     OM1 7363   1.514   8.660   1.367  0.0000  0.0000  0.0000
 7364OM     OM1 7364   1.318   8.676   1.204  0.0000  0.0000  0.0000
 7365OM     OM1 7365   1.452   8.884   1.236  0.0000  0.0000  0.0000
 7366OM     OM1 7366   0.392   5.437   0.405  0.0000  0.0000  0.0000
 7367OM     OM1 7367   5.253   2.515   9.093  0.0000  0.0000  0.0000
 7368OM     OM1 7368   5.244   2.869   8.806  0.0000  0.0000  0.0000
 7369OM     OM1 7369   0.137   9.116   8.390  0.0000  0.0000  0.0000
 7370OM     OM1 7370   2.670   3.106   9.541  0.0000  0.0000  0.0000
 7371OM     OM1 7371   2.364   3.344   9.485  0.0000  0.0000  0.0000
 7372OM     OM1 7372   2.468   2.970   0.043  0.0000  0.0000  0.0000
 7373OM     OM1 7373   0.614   9.209   0.436  0.0000  0.0000  0.0000
 7374OM     OM1 7374   0.810   9.465   0.772  0.0000  0.0000  0.0000
 7375OM     OM1 7375   8.882   5.877   8.524  0.0000  0.0000  0.0000
 7376OM     OM1 7376   9.083   5.981   8.389  0.0000  0.0000  0.0000
 7377OM     OM1 7377   0.879   8.292   0.409  0.0000  0.0000  0.0000
 7378OM     OM1 7378   0.952   8.313   0.157  0.0000  0.0000  0.0000
 7379OM     OM1 7379   0.975   8.082   0.284  0.0000  0.0000  0.0000
 7380OM     OM1 7380   0.739   8.176   0.225  0.0000  0.0000  0.0000
 7381OM     OM1 7381   6.770   5.312   0.515  0.0000  0.0000  0.0000
 7382OM     OM1 7382   6.587   5.300   0.338  0.0000  0.0000  0.0000
 7383OM     OM1 7383   6.310   8.121   0.795  0.0000  0.0000  0.0000
 7384OM     OM1 7384   2.225   3.142   9.377  0.0000  0.0000  0.0000
 7385OM     OM1 7385   2.268   2.898   9.277  0.0000  0.0000  0.0000
 7386OM     OM1 7386   2.149   3.082   9.138  0.0000  0.0000  0.0000
 7387OM     OM1 7387   2.031   2.963   9.340  0.0000  0.0000  0.0000
 7388OM     OM1 7388   1.463   8.591   9.318  0.0000  0.0000  0.0000
 7389OM     OM1 7389   1.673   8.735   9.225  0.0000  0.0000  0.0000
 7390OM     OM1 7390   8.301   7.015   0.321  0.0000  0.0000  0.0000
 7391OM     OM1 7391   8.176   7.238   0.256  0.0000  0.0000  0.0000
 7392OM     OM1 7392   0.980   3.304   8.772  0.0000  0.0000  0.0000
 7393OM     OM1 7393   1.072   3.071   8.826  0.0000  0.0000  0.0000
 7394OM     OM1 7394   0.849   5.527   8.843  0.0000  0.0000  0.0000
 7395OM     OM1 7395   0.954   5.320   8.953  0.0000  0.0000  0.0000
 7396OM     OM1 7396   1.038   5.399   8.713  0.0000  0.0000  0.0000
 7397OM     OM1 7397   5.617   2.169   0.463  0.0000  0.0000  0.0000
 7398OM     OM1 7398   5.602   1.921   0.534  0.0000  0.0000  0.0000
 7399OM     OM1 7399   9.085   0.494   8.350  0.0000  0.0000  0.0000
 7400OM     OM1 7400   8.877   0.547   8.504  0.0000  0.0000  0.0000
 7401OM     OM1 7401   7.456   3.804   9.227  0.0000  0.0000  0.0000
 7402OM     OM1 7402   7.541   3.558   9.302  0.0000  0.0000  0.0000
 7403OM     OM1 7403   7.578   3.753   9.455  0.0000  0.0000  0.0000
 7404OM     OM1 7404   7.701   3.732   9.210  0.0000  0.0000  0.0000
 7405OM     OM1 7405   5.321   8.128   9.388  0.0000  0.0000  0.0000
 7406OM     OM1 7406   5.542   8.267   9.404  0.0000  0.0000  0.0000
 7407OM     OM1 7407   5.309   8.372   9.357  0.0000  0.0000  0.0000
 7408OM     OM1 7408   2.839   0.478   1.064  0.0000  0.0000  0.0000
 7409OM     OM1 7409   2.984   0.141   0.813  0.0000  0.0000  0.0000
 7410OM     OM1 7410   2.861   0.522   0.802  0.0000  0.0000  0.0000
 7411OM     OM1 7411   0.993   0.403   9.469  0.0000  0.0000  0.0000
 7412OM     OM1 7412   1.238   0.467   9.381  0.0000  0.0000  0.0000
 7413OM     OM1 7413   1.135   0.593   9.576  0.0000  0.0000  0.0000
 7414OM     OM1 7414   8.130   3.304   0.664  0.0000  0.0000  0.0000
 7415OM     OM1 7415   7.080   8.138   9.060  0.0000  0.0000  0.0000
 7416OM     OM1 7416   6.836   8.195   8.990  0.0000  0.0000  0.0000
 7417OM     OM1 7417   8.462   3.643   8.526  0.0000  0.0000  0.0000
 7418OM     OM1 7418   3.537   6.662   0.510  0.0000  0.0000  0.0000
 7419OM     OM1 7419   3.749   6.792   0.515  0.0000  0.0000  0.0000
 7420OM     OM1 7420   3.537   6.920   0.445  0.0000  0.0000  0.0000
 7421OM     OM1 7421   7.287   5.556   9.371  0.0000  0.0000  0.0000
 7422OM     OM1 7422   7.412   5.542   9.603  0.0000  0.0000  0.0000
 7423OM     OM1 7423   3.064   5.724   9.191  0.0000  0.0000  0.0000
 7424OM     OM1 7424   3.009   9.535   0.683  0.0000  0.0000  0.0000
 7425OM     OM1 7425   3.226   0.026   0.791  0.0000  0.0000  0.0000
 7426OM     OM1 7426   3.112   0.157   0.592  0.0000  0.0000  0.0000
 7427OM     OM1 7427   1.307   6.752   8.382  0.0000  0.0000  0.0000
 7428OM     OM1 7428   1.112   6.880   8.499  0.0000  0.0000  0.0000
 7429OM     OM1 7429   1.140   6.619   8.521  0.0000  0.0000  0.0000
 7430OM     OM1 7430   2.806   4.700   8.589  0.0000  0.0000  0.0000
 7431OM     OM1 7431   3.176   4.941   8.667  0.0000  0.0000  0.0000
 7432OM     OM1 7432   2.995   4.784   8.755  0.0000  0.0000  0.0000
 7433OM     OM1 7433   5.724   7.457   1.262  0.0000  0.0000  0.0000
 7434OM     OM1 7434   8.578   6.222   0.511  0.0000  0.0000  0.0000
 7435OM     OM1 7435   8.569   6.479   0.582  0.0000  0.0000  0.0000
 7436OM     OM1 7436   8.554   6.289   0.752  0.0000  0.0000  0.0000
 7437OM     OM1 7437   5.514   4.690   9.580  0.0000  0.0000  0.0000
 7438OM     OM1 7438   5.611   4.926   9.548  0.0000  0.0000  0.0000
 7439OM     OM1 7439   5.474   4.859   0.162  0.0000  0.0000  0.0000
 7440OM     OM1 7440   5.040   2.668   8.401  0.0000  0.0000  0.0000
 7441OM     OM1 7441   5.090   2.424   8.338  0.0000  0.0000  0.0000
 7442OM     OM1 7442   5.225   8.698   1.099  0.0000  0.0000  0.0000
 7443OM     OM1 7443   0.603   6.248   9.322  0.0000  0.0000  0.0000
 7444OM     OM1 7444   0.366   6.236   9.432  0.0000  0.0000  0.0000
 7445OM     OM1 7445   0.567   6.359   9.559  0.0000  0.0000  0.0000
 7446OM     OM1 7446   2.202   3.598   8.680  0.0000  0.0000  0.0000
 7447OM     OM1 7447   3.039   2.636   8.765  0.0000  0.0000  0.0000
 7448OM     OM1 7448   3.244   2.477   8.794  0.0000  0.0000  0.0000
 7449OM     OM1 7449   3.299   8.071   8.304  0.0000  0.0000  0.0000
 7450OM     OM1 7450   3.241   8.083   8.553  0.0000  0.0000  0.0000
 7451OM     OM1 7451   8.903   9.376   9.362  0.0000  0.0000  0.0000
 7452OM     OM1 7452   8.782   9.499   8.946  0.0000  0.0000  0.0000
 7453OM     OM1 7453   8.832   9.299   9.088  0.0000  0.0000  0.0000
 7454OM     OM1 7454   2.952   2.168   0.800  0.0000  0.0000  0.0000
 7455OM     OM1 7455   3.114   1.983   0.707  0.0000  0.0000  0.0000
 7456OM     OM1 7456   3.076   2.026   0.970  0.0000  0.0000  0.0000
 7457OM     OM1 7457   5.078   4.011   1.247  0.0000  0.0000  0.0000
 7458OM     OM1 7458   4.990   4.048   1.008  0.0000  0.0000  0.0000
 7459OM     OM1 7459   0.236   1.158   8.638  0.0000  0.0000  0.0000
 7460OM     OM1 7460   0.104   1.382   8.604  0.0000  0.0000  0.0000
 7461OM     OM1 7461   9.592   1.195   8.720  0.0000  0.0000  0.0000
 7462OM     OM1 7462   5.598   0.841   0.592  0.0000  0.0000  0.0000
 7463OM     OM1 7463   5.570   1.021   0.785  0.0000  0.0000  0.0000
 7464OM     OM1 7464   6.634   2.175   8.752  0.0000  0.0000  0.0000
 7465OM     OM1 7465   6.588   2.424   8.706  0.0000  0.0000  0.0000
 7466OM     OM1 7466   6.381   2.276   8.760  0.0000  0.0000  0.0000
 7467OM     OM1 7467   0.417   0.355   9.440  0.0000  0.0000  0.0000
 7468OM     OM1 7468   0.516   0.295   9.214  0.0000  0.0000  0.0000
 7469OM     OM1 7469   6.019   8.831   0.723  0.0000  0.0000  0.0000
 7470OM     OM1 7470   7.866   1.449   8.327  0.0000  0.0000  0.0000
 7471OM     OM1 7471   1.577   1.039   9.094  0.0000  0.0000  0.0000
 7472OM     OM1 7472   2.169   6.820   1.274  0.0000  0.0000  0.0000
 7473OM     OM1 7473   7.763   5.319   9.093  0.0000  0.0000  0.0000
 7474OM     OM1 7474   0.980   0.501   8.569  0.0000  0.0000  0.0000
 7475OM     OM1 7475   1.084   0.640   8.753  0.0000  0.0000  0.0000
 7476OM     OM1 7476   1.087   0.747   8.531  0.0000  0.0000  0.0000
 7477OM     OM1 7477   0.851   0.725   8.626  0.0000  0.0000  0.0000
 7478OM     OM1 7478   8.384   8.032   0.402  0.0000  0.0000  0.0000
 7479OM     OM1 7479   0.586   4.196   0.127  0.0000  0.0000  0.0000
 7480OM     OM1 7480   0.547   3.935   0.063  0.0000  0.0000  0.0000
 7481OM     OM1 7481   1.163   5.926   0.662  0.0000  0.0000  0.0000
 7482OM     OM1 7482   1.020   5.760   0.792  0.0000  0.0000  0.0000
 7483OM     OM1 7483   0.898   5.870   0.600  0.0000  0.0000  0.0000
 7484OM     OM1 7484   4.359   4.525   0.437  0.0000  0.0000  0.0000
 7485OM     OM1 7485   3.012   2.039   8.449  0.0000  0.0000  0.0000
 7486OM     OM1 7486   2.940   1.790   8.490  0.0000  0.0000  0.0000
 7487OM     OM1 7487   2.139   6.620   8.853  0.0000  0.0000  0.0000
 7488OM     OM1 7488   2.060   6.589   8.615  0.0000  0.0000  0.0000
 7489OM     OM1 7489   2.184   6.392   8.745  0.0000  0.0000  0.0000
 7490OM     OM1 7490   9.257   0.686   8.351  0.0000  0.0000  0.0000
 7491OM     OM1 7491   9.258   0.625   8.606  0.0000  0.0000  0.0000
 7492OM     OM1 7492   9.218   0.874   8.529  0.0000  0.0000  0.0000
 7493OM     OM1 7493   3.284   8.786   1.276  0.0000  0.0000  0.0000
 7494OM     OM1 7494   3.261   8.682   1.032  0.0000  0.0000  0.0000
 7495OM     OM1 7495   1.375   6.502   0.781  0.0000  0.0000  0.0000
 7496OM     OM1 7496   1.131   6.401   0.779  0.0000  0.0000  0.0000
 7497OM     OM1 7497   6.845   4.859   0.988  0.0000  0.0000  0.0000
 7498OM     OM1 7498   3.171   9.605   9.595  0.0000  0.0000  0.0000
 7499OM     OM1 7499   3.195   0.208   0.161  0.0000  0.0000  0.0000
 7500OM     OM1 7500   3.392   0.142   0.004  0.0000  0.0000  0.0000
 7501OM     OM1 7501   3.167   0.242   9.510  0.0000  0.0000  0.0000
 7502OM     OM1 7502   5.951   2.570   9.315  0.0000  0.0000  0.0000
 7503OM     OM1 7503   6.196   2.678   9.314  0.0000  0.0000  0.0000
 7504OM     OM1 7504   5.991   2.820   9.300  0.0000  0.0000  0.0000
 7505OM     OM1 7505   9.564   7.524   8.821  0.0000  0.0000  0.0000
 7506OM     OM1 7506   0.070   7.749   8.828  0.0000  0.0000  0.0000
 7507OM     OM1 7507   6.016   7.379   8.816  0.0000  0.0000  0.0000
 7508OM     OM1 7508   6.229   7.442   8.689  0.0000  0.0000  0.0000
 7509OM     OM1 7509   6.307   7.314   8.473  0.0000  0.0000  0.0000
 7510OM     OM1 7510   4.153   7.857   1.436  0.0000  0.0000  0.0000
 7511OM     OM1 7511   6.424   3.219   0.661  0.0000  0.0000  0.0000
 7512OM     OM1 7512   6.277   2.993   0.723  0.0000  0.0000  0.0000
 7513OM     OM1 7513   8.502   5.017   0.727  0.0000  0.0000  0.0000
 7514OM     OM1 7514   8.313   4.901   0.588  0.0000  0.0000  0.0000
 7515OM     OM1 7515   8.338   4.918   1.056  0.0000  0.0000  0.0000
 7516OM     OM1 7516   8.365   6.137   0.808  0.0000  0.0000  0.0000
 7517OM     OM1 7517   8.567   6.160   0.982  0.0000  0.0000  0.0000
 7518OM     OM1 7518   3.122   9.393   0.132  0.0000  0.0000  0.0000
 7519OM     OM1 7519   3.164   9.292   0.382  0.0000  0.0000  0.0000
 7520OM     OM1 7520   4.584   6.497   9.356  0.0000  0.0000  0.0000
 7521OM     OM1 7521   4.444   6.323   9.217  0.0000  0.0000  0.0000
 7522OM     OM1 7522   4.207   6.359   9.098  0.0000  0.0000  0.0000
 7523OM     OM1 7523   7.189   0.646   8.799  0.0000  0.0000  0.0000
 7524OM     OM1 7524   6.970   0.723   8.694  0.0000  0.0000  0.0000
 7525OM     OM1 7525   7.154   0.600   8.543  0.0000  0.0000  0.0000
 7526OM     OM1 7526   6.048   6.163   9.517  0.0000  0.0000  0.0000
 7527OM     OM1 7527   6.120   5.917   9.584  0.0000  0.0000  0.0000
 7528OM     OM1 7528   6.628   8.126   8.369  0.0000  0.0000  0.0000
 7529OM     OM1 7529   6.715   8.374   8.385  0.0000  0.0000  0.0000
 7530OM     OM1 7530   8.664   5.229   9.465  0.0000  0.0000  0.0000
 7531OM     OM1 7531   8.475   5.424   9.474  0.0000  0.0000  0.0000
 7532OM     OM1 7532   8.612   5.349   0.076  0.0000  0.0000  0.0000
 7533OM     OM1 7533   5.788   8.460   0.960  0.0000  0.0000  0.0000
 7534OM     OM1 7534   5.934   8.657   1.074  0.0000  0.0000  0.0000
 7535OM     OM1 7535   0.016   2.733   0.479  0.0000  0.0000  0.0000
 7536OM     OM1 7536   3.205   8.246   9.285  0.0000  0.0000  0.0000
 7537OM     OM1 7537   3.462   8.228   9.264  0.0000  0.0000  0.0000
 7538OM     OM1 7538   8.360   4.891   0.060  0.0000  0.0000  0.0000
 7539OM     OM1 7539   6.973   4.623   0.916  0.0000  0.0000  0.0000
 7540OM     OM1 7540   6.889   4.763   0.737  0.0000  0.0000  0.0000
 7541OM     OM1 7541   5.692   3.325   9.408  0.0000  0.0000  0.0000
 7542OM     OM1 7542   5.497   3.204   9.521  0.0000  0.0000  0.0000
 7543OM     OM1 7543   5.513   3.203   9.261  0.0000  0.0000  0.0000
 7544OM     OM1 7544   7.178   9.359   9.055  0.0000  0.0000  0.0000
 7545OM     OM1 7545   2.548   2.988   0.914  0.0000  0.0000  0.0000
 7546OM     OM1 7546   2.793   3.061   0.903  0.0000  0.0000  0.0000
 7547OM     OM1 7547   9.389   3.614   8.646  0.0000  0.0000  0.0000
 7548OM     OM1 7548   3.777   6.292   0.442  0.0000  0.0000  0.0000
 7549OM     OM1 7549   3.832   6.537   0.528  0.0000  0.0000  0.0000
 7550OM     OM1 7550   3.937   6.333   0.646  0.0000  0.0000  0.0000
 7551OM     OM1 7551   8.300   5.141   8.317  0.0000  0.0000  0.0000
 7552OM     OM1 7552   8.348   5.060   8.551  0.0000  0.0000  0.0000
 7553OM     OM1 7553   1.444   6.525   9.412  0.0000  0.0000  0.0000
 7554OM     OM1 7554   1.418   6.757   9.522  0.0000  0.0000  0.0000
 7555OM     OM1 7555   6.396   8.693   8.929  0.0000  0.0000  0.0000
 7556OM     OM1 7556   0.690   5.843   0.746  0.0000  0.0000  0.0000
 7557OM     OM1 7557   0.794   5.633   0.624  0.0000  0.0000  0.0000
 7558OM     OM1 7558   0.658   5.802   0.489  0.0000  0.0000  0.0000
 7559OM     OM1 7559   5.908   3.835   8.338  0.0000  0.0000  0.0000
 7560OM     OM1 7560   1.027   4.898   0.545  0.0000  0.0000  0.0000
 7561OM     OM1 7561   0.959   5.148   0.464  0.0000  0.0000  0.0000
 7562OM     OM1 7562   0.910   4.940   0.323  0.0000  0.0000  0.0000
 7563OM     OM1 7563   1.159   5.016   0.358  0.0000  0.0000  0.0000
 7564OM     OM1 7564   9.514   7.641   0.241  0.0000  0.0000  0.0000
 7565OM     OM1 7565   0.058   7.846   0.200  0.0000  0.0000  0.0000
 7566OM     OM1 7566   7.657   3.777   0.098  0.0000  0.0000  0.0000
 7567OM     OM1 7567   1.660   7.370   0.982  0.0000  0.0000  0.0000
 7568OM     OM1 7568   1.545   7.250   1.183  0.0000  0.0000  0.0000
 7569OM     OM1 7569   1.709   7.380   0.725  0.0000  0.0000  0.0000
 7570OM     OM1 7570   6.341   9.402   9.321  0.0000  0.0000  0.0000
 7571OM     OM1 7571   6.087   9.394   9.389  0.0000  0.0000  0.0000
 7572OM     OM1 7572   5.985   9.430   9.156  0.0000  0.0000  0.0000
 7573OM     OM1 7573   1.534   4.714   0.834  0.0000  0.0000  0.0000
 7574OM     OM1 7574   1.535   4.753   0.581  0.0000  0.0000  0.0000
 7575OM     OM1 7575   1.762   4.696   0.685  0.0000  0.0000  0.0000
 7576OM     OM1 7576   8.888   1.556   9.095  0.0000  0.0000  0.0000
 7577OM     OM1 7577   8.754   1.358   9.194  0.0000  0.0000  0.0000
 7578OM     OM1 7578   4.398   3.092   0.537  0.0000  0.0000  0.0000
 7579OM     OM1 7579   1.936   9.280   8.537  0.0000  0.0000  0.0000
 7580OM     OM1 7580   1.816   9.117   8.381  0.0000  0.0000  0.0000
 7581OM     OM1 7581   1.990   9.019   8.546  0.0000  0.0000  0.0000
 7582OM     OM1 7582   2.627   8.725   8.715  0.0000  0.0000  0.0000
 7583OM     OM1 7583   2.528   1.471   9.232  0.0000  0.0000  0.0000
 7584OM     OM1 7584   0.414   5.840   0.566  0.0000  0.0000  0.0000
 7585OM     OM1 7585   0.173   5.919   0.566  0.0000  0.0000  0.0000
 7586OM     OM1 7586   5.532   8.256   8.601  0.0000  0.0000  0.0000
 7587OM     OM1 7587   5.413   8.329   8.834  0.0000  0.0000  0.0000
 7588OM     OM1 7588   4.762   1.673   9.461  0.0000  0.0000  0.0000
 7589OM     OM1 7589   4.507   1.641   9.474  0.0000  0.0000  0.0000
 7590OM     OM1 7590   4.600   1.870   9.388  0.0000  0.0000  0.0000
 7591OM     OM1 7591   8.114   5.133   9.493  0.0000  0.0000  0.0000
 7592OM     OM1 7592   8.229   5.373   9.547  0.0000  0.0000  0.0000
 7593OM     OM1 7593   8.342   5.147   9.601  0.0000  0.0000  0.0000
 7594OM     OM1 7594   7.789   7.269   8.677  0.0000  0.0000  0.0000
 7595OM     OM1 7595   7.624   7.199   8.867  0.0000  0.0000  0.0000
 7596OM     OM1 7596   7.713   7.030   8.665  0.0000  0.0000  0.0000
 7597OM     OM1 7597   5.207   6.696   8.454  0.0000  0.0000  0.0000
 7598OM     OM1 7598   4.946   6.599   8.408  0.0000  0.0000  0.0000
 7599OM     OM1 7599   2.540   2.974   0.651  0.0000  0.0000  0.0000
 7600OM     OM1 7600   2.710   2.987   0.445  0.0000  0.0000  0.0000
 7601OM     OM1 7601   7.396   6.687   0.528  0.0000  0.0000  0.0000
 7602OM     OM1 7602   7.425   6.919   0.400  0.0000  0.0000  0.0000
 7603OM     OM1 7603   4.098   3.192   8.877  0.0000  0.0000  0.0000
 7604OM     OM1 7604   4.297   3.515   8.731  0.0000  0.0000  0.0000
 7605OM     OM1 7605   4.289   3.252   8.703  0.0000  0.0000  0.0000
 7606OM     OM1 7606   4.092   3.388   8.641  0.0000  0.0000  0.0000
 7607OM     OM1 7607   9.243   6.870   9.078  0.0000  0.0000  0.0000
 7608OM     OM1 7608   3.008   0.334   8.958  0.0000  0.0000  0.0000
 7609OM     OM1 7609   3.247   0.422   8.932  0.0000  0.0000  0.0000
 7610OM     OM1 7610   7.315   6.783   0.741  0.0000  0.0000  0.0000
 7611OM     OM1 7611   1.540   4.359   1.106  0.0000  0.0000  0.0000
 7612OM     OM1 7612   3.081   3.486   0.773  0.0000  0.0000  0.0000
 7613OM     OM1 7613   3.102   3.360   1.024  0.0000  0.0000  0.0000
 7614OM     OM1 7614   3.330   3.323   1.129  0.0000  0.0000  0.0000
 7615OM     OM1 7615   3.594   7.083   8.804  0.0000  0.0000  0.0000
 7616OM     OM1 7616   3.460   7.306   8.847  0.0000  0.0000  0.0000
 7617OM     OM1 7617   3.347   7.062   8.863  0.0000  0.0000  0.0000
 7618OM     OM1 7618   3.510   3.233   8.686  0.0000  0.0000  0.0000
 7619OM     OM1 7619   3.382   3.160   8.893  0.0000  0.0000  0.0000
 7620OM     OM1 7620   3.358   3.408   8.815  0.0000  0.0000  0.0000
 7621OM     OM1 7621   7.801   0.258   0.560  0.0000  0.0000  0.0000
 7622OM     OM1 7622   7.648   0.278   0.759  0.0000  0.0000  0.0000
 7623OM     OM1 7623   7.772   0.499   0.653  0.0000  0.0000  0.0000
 7624OM     OM1 7624   2.656   0.961   8.195  0.0000  0.0000  0.0000
 7625OM     OM1 7625   2.876   0.839   8.279  0.0000  0.0000  0.0000
 7626OM     OM1 7626   2.788   1.058   8.395  0.0000  0.0000  0.0000
 7627OM     OM1 7627   2.933   6.888   8.298  0.0000  0.0000  0.0000
 7628OM     OM1 7628   2.818   6.677   8.383  0.0000  0.0000  0.0000
 7629OM     OM1 7629   4.818   2.379   9.164  0.0000  0.0000  0.0000
 7630OM     OM1 7630   4.776   2.612   9.056  0.0000  0.0000  0.0000
 7631OM     OM1 7631   4.787   2.418   8.891  0.0000  0.0000  0.0000
 7632OM     OM1 7632   2.701   4.302   8.814  0.0000  0.0000  0.0000
 7633OM     OM1 7633   2.461   4.204   8.744  0.0000  0.0000  0.0000
 7634OM     OM1 7634   2.513   4.462   8.740  0.0000  0.0000  0.0000
 7635OM     OM1 7635   2.625   4.291   8.570  0.0000  0.0000  0.0000
 7636OM     OM1 7636   6.244   6.618   1.253  0.0000  0.0000  0.0000
 7637OM     OM1 7637   7.482   7.284   1.099  0.0000  0.0000  0.0000
 7638OM     OM1 7638   7.683   7.143   1.169  0.0000  0.0000  0.0000
 7639OM     OM1 7639   7.721   7.406   1.103  0.0000  0.0000  0.0000
 7640OM     OM1 7640   5.464   1.972   0.742  0.0000  0.0000  0.0000
 7641OM     OM1 7641   5.719   1.926   0.769  0.0000  0.0000  0.0000
 7642OM     OM1 7642   2.325   0.941   9.493  0.0000  0.0000  0.0000
 7643OM     OM1 7643   2.128   0.797   9.380  0.0000  0.0000  0.0000
 7644OM     OM1 7644   7.762   5.145   8.672  0.0000  0.0000  0.0000
 7645OM     OM1 7645   7.802   4.913   8.781  0.0000  0.0000  0.0000
 7646OM     OM1 7646   7.627   4.744   8.701  0.0000  0.0000  0.0000
 7647OM     OM1 7647   8.037   3.525   9.572  0.0000  0.0000  0.0000
 7648OM     OM1 7648   8.250   3.672   9.567  0.0000  0.0000  0.0000
 7649OM     OM1 7649   5.567   2.768   0.374  0.0000  0.0000  0.0000
 7650OM     OM1 7650   5.557   2.918   0.593  0.0000  0.0000  0.0000
 7651OM     OM1 7651   7.971   2.015   0.080  0.0000  0.0000  0.0000
 7652OM     OM1 7652   7.995   2.144   9.461  0.0000  0.0000  0.0000
 7653OM     OM1 7653   7.968   2.280   0.075  0.0000  0.0000  0.0000
 7654OM     OM1 7654   6.941   3.318   0.535  0.0000  0.0000  0.0000
 7655OM     OM1 7655   0.706   4.155   9.173  0.0000  0.0000  0.0000
 7656OM     OM1 7656   0.362   3.960   8.888  0.0000  0.0000  0.0000
 7657OM     OM1 7657   1.318   1.260   8.476  0.0000  0.0000  0.0000
 7658OM     OM1 7658   1.240   0.913   8.675  0.0000  0.0000  0.0000
 7659OM     OM1 7659   8.303   0.812   8.761  0.0000  0.0000  0.0000
 7660OM     OM1 7660   8.061   0.904   8.815  0.0000  0.0000  0.0000
 7661OM     OM1 7661   0.887   7.673   8.311  0.0000  0.0000  0.0000
 7662OM     OM1 7662   0.637   7.609   8.370  0.0000  0.0000  0.0000
 7663OM     OM1 7663   1.122   7.783   8.328  0.0000  0.0000  0.0000
 7664OM     OM1 7664   8.811   1.045   1.266  0.0000  0.0000  0.0000
 7665OM     OM1 7665   1.779   7.787   8.481  0.0000  0.0000  0.0000
 7666OM     OM1 7666   1.843   7.636   8.290  0.0000  0.0000  0.0000
 7667OM     OM1 7667   5.166   1.727   8.756  0.0000  0.0000  0.0000
 7668OM     OM1 7668   0.471   1.094   8.750  0.0000  0.0000  0.0000
 7669OM     OM1 7669   0.260   0.844   8.795  0.0000  0.0000  0.0000
 7670OM     OM1 7670   3.766   5.430   0.747  0.0000  0.0000  0.0000
 7671OM     OM1 7671   3.329   5.502   0.783  0.0000  0.0000  0.0000
 7672OM     OM1 7672   3.461   5.299   0.717  0.0000  0.0000  0.0000
 7673OM     OM1 7673   3.961   3.595   8.745  0.0000  0.0000  0.0000
 7674OM     OM1 7674   0.076   2.378   9.313  0.0000  0.0000  0.0000
 7675OM     OM1 7675   9.350   5.334   9.246  0.0000  0.0000  0.0000
 7676OM     OM1 7676   9.338   5.574   9.331  0.0000  0.0000  0.0000
 7677OM     OM1 7677   9.415   5.527   9.086  0.0000  0.0000  0.0000
 7678OM     OM1 7678   3.018   6.955   8.842  0.0000  0.0000  0.0000
 7679OM     OM1 7679   3.073   6.866   8.596  0.0000  0.0000  0.0000
 7680OM     OM1 7680   2.959   7.092   8.616  0.0000  0.0000  0.0000
 7681OM     OM1 7681   3.202   6.502   0.796  0.0000  0.0000  0.0000
 7682OM     OM1 7682   3.123   6.682   0.615  0.0000  0.0000  0.0000
 7683OM     OM1 7683   2.175   9.562   0.074  0.0000  0.0000  0.0000
 7684OM     OM1 7684   2.423   9.586   9.592  0.0000  0.0000  0.0000
 7685OM     OM1 7685   2.229   0.054   9.438  0.0000  0.0000  0.0000
 7686OM     OM1 7686   7.165   8.775   8.309  0.0000  0.0000  0.0000
 7687OM     OM1 7687   7.118   9.487   8.388  0.0000  0.0000  0.0000
 7688OM     OM1 7688   7.285   0.047   8.491  0.0000  0.0000  0.0000
 7689OM     OM1 7689   6.386   2.986   0.418  0.0000  0.0000  0.0000
 7690OM     OM1 7690   6.647   2.928   0.435  0.0000  0.0000  0.0000
 7691OM     OM1 7691   2.520   4.774   0.632  0.0000  0.0000  0.0000
 7692OM     OM1 7692   2.742   4.766   0.764  0.0000  0.0000  0.0000
 7693OM     OM1 7693   6.673   8.040   9.120  0.0000  0.0000  0.0000
 7694OM     OM1 7694   6.359   8.230   9.154  0.0000  0.0000  0.0000
 7695OM     OM1 7695   6.607   8.289   9.107  0.0000  0.0000  0.0000
 7696OM     OM1 7696   6.497   8.399   9.317  0.0000  0.0000  0.0000
 7697OM     OM1 7697   8.072   6.544   9.114  0.0000  0.0000  0.0000
 7698OM     OM1 7698   7.862   6.451   9.234  0.0000  0.0000  0.0000
 7699OM     OM1 7699   8.095   6.805   9.182  0.0000  0.0000  0.0000
 7700OM     OM1 7700   7.903   3.174   0.243  0.0000  0.0000  0.0000
 7701OM     OM1 7701   8.081   2.989   0.155  0.0000  0.0000  0.0000
 7702OM     OM1 7702   0.816   4.240   0.239  0.0000  0.0000  0.0000
 7703OM     OM1 7703   0.619   4.393   0.304  0.0000  0.0000  0.0000
 7704OM     OM1 7704   5.154   3.776   0.316  0.0000  0.0000  0.0000
 7705OM     OM1 7705   4.923   3.797   0.440  0.0000  0.0000  0.0000
 7706OM     OM1 7706   9.405   0.668   8.821  0.0000  0.0000  0.0000
 7707OM     OM1 7707   9.326   0.425   8.757  0.0000  0.0000  0.0000
 7708OM     OM1 7708   6.248   8.347   1.255  0.0000  0.0000  0.0000
 7709OM     OM1 7709   6.307   8.187   1.043  0.0000  0.0000  0.0000
 7710OM     OM1 7710   6.068   8.231   1.109  0.0000  0.0000  0.0000
 7711OM     OM1 7711   5.385   7.886   8.368  0.0000  0.0000  0.0000
 7712OM     OM1 7712   5.226   8.096   8.384  0.0000  0.0000  0.0000
 7713OM     OM1 7713   0.286   3.270   0.893  0.0000  0.0000  0.0000
 7714OM     OM1 7714   0.369   3.341   1.134  0.0000  0.0000  0.0000
 7715OM     OM1 7715   6.298   3.640   0.540  0.0000  0.0000  0.0000
 7716OM     OM1 7716   6.297   3.877   0.443  0.0000  0.0000  0.0000
 7717OM     OM1 7717   6.252   3.846   0.696  0.0000  0.0000  0.0000
 7718OM     OM1 7718   3.894   3.942   9.200  0.0000  0.0000  0.0000
 7719OM     OM1 7719   3.696   3.878   9.356  0.0000  0.0000  0.0000
 7720OM     OM1 7720   3.885   3.704   9.314  0.0000  0.0000  0.0000
 7721OM     OM1 7721   9.370   0.153   8.767  0.0000  0.0000  0.0000
 7722OM     OM1 7722   6.602   2.503   9.447  0.0000  0.0000  0.0000
 7723OM     OM1 7723   6.769   2.341   9.574  0.0000  0.0000  0.0000
 7724OM     OM1 7724   6.867   2.540   9.443  0.0000  0.0000  0.0000
 7725OM     OM1 7725   6.733   2.582   0.057  0.0000  0.0000  0.0000
 7726OM     OM1 7726   8.692   1.059   1.041  0.0000  0.0000  0.0000
 7727OM     OM1 7727   8.455   1.152   1.000  0.0000  0.0000  0.0000
 7728OM     OM1 7728   8.614   1.071   0.805  0.0000  0.0000  0.0000
 7729OM     OM1 7729   4.401   1.213   1.040  0.0000  0.0000  0.0000
 7730OM     OM1 7730   4.166   1.152   1.118  0.0000  0.0000  0.0000
 7731OM     OM1 7731   9.514   9.306   0.445  0.0000  0.0000  0.0000
 7732OM     OM1 7732   9.008   7.548   1.340  0.0000  0.0000  0.0000
 7733OM     OM1 7733   9.210   7.630   1.208  0.0000  0.0000  0.0000
 7734OM     OM1 7734   9.148   7.377   1.178  0.0000  0.0000  0.0000
 7735OM     OM1 7735   6.353   1.401   0.465  0.0000  0.0000  0.0000
 7736OM     OM1 7736   6.404   1.320   0.229  0.0000  0.0000  0.0000
 7737OM     OM1 7737   6.512   1.540   0.317  0.0000  0.0000  0.0000
 7738OM     OM1 7738   6.909   0.804   0.395  0.0000  0.0000  0.0000
 7739OM     OM1 7739   6.877   1.264   0.290  0.0000  0.0000  0.0000
 7740OM     OM1 7740   6.703   0.860   0.243  0.0000  0.0000  0.0000
 7741OM     OM1 7741   3.664   2.225   8.668  0.0000  0.0000  0.0000
 7742OM     OM1 7742   3.472   2.062   8.601  0.0000  0.0000  0.0000
 7743OM     OM1 7743   3.419   2.284   8.753  0.0000  0.0000  0.0000
 7744OM     OM1 7744   3.554   2.088   8.844  0.0000  0.0000  0.0000
 7745OM     OM1 7745   4.478   5.220   9.336  0.0000  0.0000  0.0000
 7746OM     OM1 7746   3.564   1.339   0.313  0.0000  0.0000  0.0000
 7747OM     OM1 7747   3.731   1.430   0.485  0.0000  0.0000  0.0000
 7748OM     OM1 7748   3.474   1.535   0.458  0.0000  0.0000  0.0000
 7749OM     OM1 7749   3.664   1.573   0.282  0.0000  0.0000  0.0000
 7750OM     OM1 7750   2.314   2.766   9.587  0.0000  0.0000  0.0000
 7751OM     OM1 7751   2.379   2.678   9.348  0.0000  0.0000  0.0000
 7752OM     OM1 7752   4.382   1.900   0.478  0.0000  0.0000  0.0000
 7753OM     OM1 7753   4.574   1.790   0.353  0.0000  0.0000  0.0000
 7754OM     OM1 7754   4.481   2.036   0.287  0.0000  0.0000  0.0000
 7755OM     OM1 7755   9.199   5.508   0.811  0.0000  0.0000  0.0000
 7756OM     OM1 7756   9.449   5.537   0.904  0.0000  0.0000  0.0000
 7757OM     OM1 7757   9.269   5.728   0.910  0.0000  0.0000  0.0000
 7758OM     OM1 7758   5.297   7.104   0.830  0.0000  0.0000  0.0000
 7759OM     OM1 7759   5.132   7.416   0.965  0.0000  0.0000  0.0000
 7760OM     OM1 7760   7.426   9.279   0.451  0.0000  0.0000  0.0000
 7761OM     OM1 7761   7.696   9.560   0.180  0.0000  0.0000  0.0000
 7762OM     OM1 7762   1.116   8.805   1.107  0.0000  0.0000  0.0000
 7763OM     OM1 7763   1.081   8.600   1.263  0.0000  0.0000  0.0000
 7764OM     OM1 7764   0.903   8.717   1.004  0.0000  0.0000  0.0000
 7765OM     OM1 7765   8.880   0.594   8.760  0.0000  0.0000  0.0000
 7766OM     OM1 7766   8.877   0.206   8.756  0.0000  0.0000  0.0000
 7767OM     OM1 7767   9.133   0.265   8.780  0.0000  0.0000  0.0000
 7768OM     OM1 7768   5.292   2.349   9.287  0.0000  0.0000  0.0000
 7769OM     OM1 7769   6.335   4.897   8.395  0.0000  0.0000  0.0000
 7770OM     OM1 7770   6.317   5.112   8.231  0.0000  0.0000  0.0000
 7771OM     OM1 7771   3.893   0.872   1.238  0.0000  0.0000  0.0000
 7772OM     OM1 7772   3.831   0.627   1.276  0.0000  0.0000  0.0000
 7773OM     OM1 7773   3.852   0.712   1.035  0.0000  0.0000  0.0000
 7774OM     OM1 7774   9.003   7.125   0.665  0.0000  0.0000  0.0000
 7775OM     OM1 7775   9.154   6.814   0.443  0.0000  0.0000  0.0000
 7776OM     OM1 7776   9.211   6.969   0.651  0.0000  0.0000  0.0000
 7777OM     OM1 7777   8.144   6.017   0.735  0.0000  0.0000  0.0000
 7778OM     OM1 7778   2.361   8.855   0.495  0.0000  0.0000  0.0000
 7779OM     OM1 7779   2.519   9.052   0.555  0.0000  0.0000  0.0000
 7780OM     OM1 7780   7.964   4.413   9.307  0.0000  0.0000  0.0000
 7781OM     OM1 7781   7.773   4.817   9.230  0.0000  0.0000  0.0000
 7782OM     OM1 7782   7.853   4.489   9.075  0.0000  0.0000  0.0000
 7783OM     OM1 7783   1.212   8.386   1.223  0.0000  0.0000  0.0000
 7784OM     OM1 7784   0.946   8.152   0.996  0.0000  0.0000  0.0000
 7785OM     OM1 7785   0.964   8.371   1.159  0.0000  0.0000  0.0000
 7786OM     OM1 7786   7.368   4.076   0.907  0.0000  0.0000  0.0000
 7787OM     OM1 7787   7.626   4.092   0.949  0.0000  0.0000  0.0000
 7788OM     OM1 7788   8.993   0.944   8.404  0.0000  0.0000  0.0000
 7789OM     OM1 7789   9.019   1.010   8.654  0.0000  0.0000  0.0000
 7790OM     OM1 7790   9.000   0.760   8.587  0.0000  0.0000  0.0000
 7791OM     OM1 7791   2.827   2.725   0.214  0.0000  0.0000  0.0000
 7792OM     OM1 7792   8.570   9.276   9.104  0.0000  0.0000  0.0000
 7793OM     OM1 7793   9.005   4.917   9.432  0.0000  0.0000  0.0000
 7794OM     OM1 7794   8.994   4.884   0.076  0.0000  0.0000  0.0000
 7795OM     OM1 7795   8.844   5.069   9.580  0.0000  0.0000  0.0000
 7796OM     OM1 7796   1.496   5.541   0.478  0.0000  0.0000  0.0000
 7797OM     OM1 7797   1.734   5.469   0.521  0.0000  0.0000  0.0000
 7798OM     OM1 7798   5.451   7.898   9.213  0.0000  0.0000  0.0000
 7799OM     OM1 7799   5.559   8.140   9.187  0.0000  0.0000  0.0000
 7800OM     OM1 7800   8.875   3.177   1.249  0.0000  0.0000  0.0000
 7801OM     OM1 7801   9.497   5.134   0.748  0.0000  0.0000  0.0000
 7802OM     OM1 7802   0.044   4.965   0.640  0.0000  0.0000  0.0000
 7803OM     OM1 7803   7.825   4.415   0.589  0.0000  0.0000  0.0000
 7804OM     OM1 7804   6.621   4.787   0.597  0.0000  0.0000  0.0000
 7805OM     OM1 7805   8.412   9.197   1.450  0.0000  0.0000  0.0000
 7806OM     OM1 7806   8.360   8.981   1.326  0.0000  0.0000  0.0000
 7807OM     OM1 7807   8.308   4.543   8.285  0.0000  0.0000  0.0000
 7808OM     OM1 7808   2.568   0.653   9.333  0.0000  0.0000  0.0000
 7809OM     OM1 7809   2.586   0.439   9.175  0.0000  0.0000  0.0000
 7810OM     OM1 7810   2.489   0.664   9.084  0.0000  0.0000  0.0000
 7811OM     OM1 7811   2.353   0.525   9.258  0.0000  0.0000  0.0000
 7812OM     OM1 7812   1.332   4.354   1.259  0.0000  0.0000  0.0000
 7813OM     OM1 7813   1.409   4.568   1.383  0.0000  0.0000  0.0000
 7814OM     OM1 7814   0.079   1.351   8.913  0.0000  0.0000  0.0000
 7815OM     OM1 7815   0.299   1.469   8.836  0.0000  0.0000  0.0000
 7816OM     OM1 7816   2.343   8.075   8.761  0.0000  0.0000  0.0000
 7817OM     OM1 7817   2.187   8.221   8.902  0.0000  0.0000  0.0000
 7818OM     OM1 7818   4.091   6.370   1.311  0.0000  0.0000  0.0000
 7819OM     OM1 7819   3.929   6.359   1.106  0.0000  0.0000  0.0000
 7820OM     OM1 7820   5.339   3.623   0.204  0.0000  0.0000  0.0000
 7821OM     OM1 7821   2.219   3.872   9.391  0.0000  0.0000  0.0000
 7822OM     OM1 7822   2.175   4.039   9.184  0.0000  0.0000  0.0000
 7823OM     OM1 7823   0.134   7.906   9.578  0.0000  0.0000  0.0000
 7824OM     OM1 7824   0.229   7.685   0.092  0.0000  0.0000  0.0000
 7825OM     OM1 7825   0.309   7.927   0.168  0.0000  0.0000  0.0000
 7826OM     OM1 7826   0.374   2.729   0.371  0.0000  0.0000  0.0000
 7827OM     OM1 7827   0.466   2.491   0.278  0.0000  0.0000  0.0000
 7828OM     OM1 7828   7.893   0.206   0.321  0.0000  0.0000  0.0000
 7829OM     OM1 7829   7.885   0.099   0.086  0.0000  0.0000  0.0000
 7830OM     OM1 7830   2.186   3.129   8.879  0.0000  0.0000  0.0000
 7831OM     OM1 7831   2.214   3.319   9.056  0.0000  0.0000  0.0000
 7832OM     OM1 7832   5.808   2.901   0.823  0.0000  0.0000  0.0000
 7833OM     OM1 7833   5.764   3.069   0.638  0.0000  0.0000  0.0000
 7834OM     OM1 7834   4.368   5.412   1.124  0.0000  0.0000  0.0000
 7835OM     OM1 7835   4.205   5.608   1.194  0.0000  0.0000  0.0000
 7836OM     OM1 7836   4.464   5.649   1.192  0.0000  0.0000  0.0000
 7837OM     OM1 7837   6.225   6.850   9.216  0.0000  0.0000  0.0000
 7838OM     OM1 7838   6.347   6.865   9.445  0.0000  0.0000  0.0000
 7839OM     OM1 7839   4.231   5.636   9.147  0.0000  0.0000  0.0000
 7840OM     OM1 7840   4.041   0.722   0.008  0.0000  0.0000  0.0000
 7841OM     OM1 7841   4.049   0.831   0.245  0.0000  0.0000  0.0000
 7842OM     OM1 7842   6.469   0.120   8.293  0.0000  0.0000  0.0000
 7843OM     OM1 7843   0.947   7.329   8.280  0.0000  0.0000  0.0000
 7844OM     OM1 7844   0.679   7.361   8.346  0.0000  0.0000  0.0000
 7845OM     OM1 7845   0.845   7.207   8.476  0.0000  0.0000  0.0000
 7846OM     OM1 7846   9.568   1.062   1.006  0.0000  0.0000  0.0000
 7847OM     OM1 7847   0.134   1.189   0.853  0.0000  0.0000  0.0000
 7848OM     OM1 7848   9.561   1.378   0.864  0.0000  0.0000  0.0000
 7849OM     OM1 7849   0.186   1.391   1.000  0.0000  0.0000  0.0000
 7850OM     OM1 7850   0.126   4.098   8.706  0.0000  0.0000  0.0000
 7851OM     OM1 7851   0.023   4.148   8.345  0.0000  0.0000  0.0000
 7852OM     OM1 7852   0.117   3.955   8.482  0.0000  0.0000  0.0000
 7853OM     OM1 7853   6.839   7.084   0.214  0.0000  0.0000  0.0000
 7854OM     OM1 7854   3.866   7.681   0.885  0.0000  0.0000  0.0000
 7855OM     OM1 7855   4.033   7.858   0.940  0.0000  0.0000  0.0000
 7856OM     OM1 7856   1.751   6.287   0.591  0.0000  0.0000  0.0000
 7857OM     OM1 7857   1.576   6.481   0.614  0.0000  0.0000  0.0000
 7858OM     OM1 7858   1.724   6.416   0.820  0.0000  0.0000  0.0000
 7859OM     OM1 7859   5.136   3.174   1.326  0.0000  0.0000  0.0000
 7860OM     OM1 7860   4.958   7.692   8.333  0.0000  0.0000  0.0000
 7861OM     OM1 7861   5.203   7.719   8.456  0.0000  0.0000  0.0000
 7862OM     OM1 7862   0.630   9.383   1.139  0.0000  0.0000  0.0000
 7863OM     OM1 7863   0.635   9.152   1.269  0.0000  0.0000  0.0000
 7864OM     OM1 7864   0.431   9.233   1.129  0.0000  0.0000  0.0000
 7865OM     OM1 7865   2.180   0.614   0.802  0.0000  0.0000  0.0000
 7866OM     OM1 7866   2.309   0.739   0.606  0.0000  0.0000  0.0000
 7867OM     OM1 7867   2.065   0.644   0.577  0.0000  0.0000  0.0000
 7868OM     OM1 7868   2.117   0.859   0.728  0.0000  0.0000  0.0000
 7869OM     OM1 7869   3.119   7.761   8.910  0.0000  0.0000  0.0000
 7870OM     OM1 7870   3.138   7.569   9.099  0.0000  0.0000  0.0000
 7871OM     OM1 7871   4.681   4.521   9.233  0.0000  0.0000  0.0000
 7872OM     OM1 7872   4.705   4.779   9.243  0.0000  0.0000  0.0000
 7873OM     OM1 7873   8.439   6.178   8.686  0.0000  0.0000  0.0000
 7874OM     OM1 7874   8.614   6.271   8.523  0.0000  0.0000  0.0000
 7875OM     OM1 7875   9.401   7.778   0.812  0.0000  0.0000  0.0000
 7876OM     OM1 7876   9.399   8.029   0.904  0.0000  0.0000  0.0000
 7877OM     OM1 7877   9.309   7.830   1.053  0.0000  0.0000  0.0000
 7878OM     OM1 7878   3.674   1.729   0.985  0.0000  0.0000  0.0000
 7879OM     OM1 7879   3.556   1.964   0.947  0.0000  0.0000  0.0000
 7880OM     OM1 7880   3.705   1.867   0.760  0.0000  0.0000  0.0000
 7881OM     OM1 7881   3.690   5.800   0.312  0.0000  0.0000  0.0000
 7882OM     OM1 7882   3.688   5.643   0.096  0.0000  0.0000  0.0000
 7883OM     OM1 7883   2.202   2.263   8.991  0.0000  0.0000  0.0000
 7884OM     OM1 7884   2.079   2.086   8.841  0.0000  0.0000  0.0000
 7885OM     OM1 7885   2.240   2.004   9.024  0.0000  0.0000  0.0000
 7886OM     OM1 7886   4.683   3.739   0.357  0.0000  0.0000  0.0000
 7887OM     OM1 7887   4.517   3.669   0.175  0.0000  0.0000  0.0000
 7888OM     OM1 7888   4.440   3.832   0.374  0.0000  0.0000  0.0000
 7889OM     OM1 7889   5.562   1.191   9.125  0.0000  0.0000  0.0000
 7890OM     OM1 7890   5.551   1.058   9.353  0.0000  0.0000  0.0000
 7891OM     OM1 7891   5.390   1.004   9.146  0.0000  0.0000  0.0000
 7892OM     OM1 7892   5.529   6.675   8.733  0.0000  0.0000  0.0000
 7893OM     OM1 7893   5.550   6.931   8.700  0.0000  0.0000  0.0000
 7894OM     OM1 7894   5.698   6.811   8.878  0.0000  0.0000  0.0000
 7895OM     OM1 7895   1.980   6.718   1.121  0.0000  0.0000  0.0000
 7896OM     OM1 7896   1.796   6.539   1.043  0.0000  0.0000  0.0000
 7897OM     OM1 7897   1.767   6.681   1.258  0.0000  0.0000  0.0000
 7898OM     OM1 7898   8.656   8.532   0.598  0.0000  0.0000  0.0000
 7899OM     OM1 7899   8.559   8.312   0.725  0.0000  0.0000  0.0000
 7900OM     OM1 7900   8.710   8.290   0.519  0.0000  0.0000  0.0000
 7901OM     OM1 7901   2.944   0.632   0.592  0.0000  0.0000  0.0000
 7902OM     OM1 7902   8.496   4.099   9.516  0.0000  0.0000  0.0000
 7903OM     OM1 7903   8.581   4.315   9.400  0.0000  0.0000  0.0000
 7904OM     OM1 7904   9.373   0.603   9.262  0.0000  0.0000  0.0000
 7905OM     OM1 7905   9.527   0.628   9.049  0.0000  0.0000  0.0000
 7906OM     OM1 7906   8.004   9.005   0.193  0.0000  0.0000  0.0000
 7907OM     OM1 7907   8.027   9.266   0.142  0.0000  0.0000  0.0000
 7908OM     OM1 7908   3.322   7.167   1.347  0.0000  0.0000  0.0000
 7909OM     OM1 7909   2.014   8.521   8.385  0.0000  0.0000  0.0000
 7910OM     OM1 7910   2.208   8.366   8.450  0.0000  0.0000  0.0000
 7911OM     OM1 7911   7.934   2.698   0.619  0.0000  0.0000  0.0000
 7912OM     OM1 7912   7.810   2.874   0.770  0.0000  0.0000  0.0000
 7913OM     OM1 7913   4.281   7.953   0.969  0.0000  0.0000  0.0000
 7914OM     OM1 7914   4.097   8.070   0.834  0.0000  0.0000  0.0000
 7915OM     OM1 7915   4.201   7.851   0.737  0.0000  0.0000  0.0000
 7916OM     OM1 7916   5.517   4.164   0.573  0.0000  0.0000  0.0000
 7917OM     OM1 7917   5.385   4.015   0.414  0.0000  0.0000  0.0000
 7918OM     OM1 7918   2.924   0.213   0.418  0.0000  0.0000  0.0000
 7919OM     OM1 7919   2.978   0.381   0.602  0.0000  0.0000  0.0000
 7920OM     OM1 7920   3.150   0.331   0.398  0.0000  0.0000  0.0000
 7921OM     OM1 7921   0.007   3.632   8.792  0.0000  0.0000  0.0000
 7922OM     OM1 7922   9.460   3.423   8.815  0.0000  0.0000  0.0000
 7923OM     OM1 7923   6.274   1.506   9.383  0.0000  0.0000  0.0000
 7924OM     OM1 7924   6.143   1.716   9.289  0.0000  0.0000  0.0000
 7925OM     OM1 7925   6.047   1.463   9.261  0.0000  0.0000  0.0000
 7926OM     OM1 7926   1.558   7.544   8.699  0.0000  0.0000  0.0000
 7927OM     OM1 7927   2.815   6.134   0.919  0.0000  0.0000  0.0000
 7928OM     OM1 7928   2.561   6.169   0.836  0.0000  0.0000  0.0000
 7929OM     OM1 7929   0.106   6.796   9.532  0.0000  0.0000  0.0000
 7930OM     OM1 7930   0.297   6.677   0.047  0.0000  0.0000  0.0000
 7931OM     OM1 7931   0.049   6.588   0.081  0.0000  0.0000  0.0000
 7932OM     OM1 7932   6.991   4.717   8.545  0.0000  0.0000  0.0000
 7933OM     OM1 7933   6.847   4.593   8.366  0.0000  0.0000  0.0000
 7934OM     OM1 7934   5.000   2.043   0.560  0.0000  0.0000  0.0000
 7935OM     OM1 7935   4.753   2.117   0.635  0.0000  0.0000  0.0000
 7936OM     OM1 7936   4.862   1.907   0.736  0.0000  0.0000  0.0000
 7937OM     OM1 7937   5.900   6.937   8.974  0.0000  0.0000  0.0000
 7938OM     OM1 7938   5.879   6.918   8.722  0.0000  0.0000  0.0000
 7939OM     OM1 7939   5.941   6.705   8.863  0.0000  0.0000  0.0000
 7940OM     OM1 7940   2.221   0.288   8.731  0.0000  0.0000  0.0000
 7941OM     OM1 7941   2.367   0.470   8.627  0.0000  0.0000  0.0000
 7942OM     OM1 7942   8.369   5.891   0.786  0.0000  0.0000  0.0000
 7943OM     OM1 7943   7.321   2.808   0.503  0.0000  0.0000  0.0000
 7944OM     OM1 7944   7.432   2.896   0.731  0.0000  0.0000  0.0000
 7945OM     OM1 7945   2.918   6.434   8.413  0.0000  0.0000  0.0000
 7946OM     OM1 7946   6.714   2.727   8.887  0.0000  0.0000  0.0000
 7947OM     OM1 7947   6.924   2.807   8.746  0.0000  0.0000  0.0000
 7948OM     OM1 7948   6.782   2.599   8.676  0.0000  0.0000  0.0000
 7949OM     OM1 7949   8.488   7.903   9.050  0.0000  0.0000  0.0000
 7950OM     OM1 7950   3.672   0.667   8.764  0.0000  0.0000  0.0000
 7951OM     OM1 7951   8.321   8.436   9.148  0.0000  0.0000  0.0000
 7952OM     OM1 7952   8.109   8.322   9.021  0.0000  0.0000  0.0000
 7953OM     OM1 7953   8.347   8.342   8.908  0.0000  0.0000  0.0000
 7954OM     OM1 7954   4.666   1.295   8.570  0.0000  0.0000  0.0000
 7955OM     OM1 7955   6.307   7.732   9.551  0.0000  0.0000  0.0000
 7956OM     OM1 7956   5.048   6.314   1.102  0.0000  0.0000  0.0000
 7957OM     OM1 7957   5.624   4.838   0.604  0.0000  0.0000  0.0000
 7958OM     OM1 7958   5.697   4.594   0.526  0.0000  0.0000  0.0000
 7959OM     OM1 7959   5.858   4.802   0.498  0.0000  0.0000  0.0000
 7960OM     OM1 7960   8.334   6.073   9.414  0.0000  0.0000  0.0000
 7961OM     OM1 7961   8.312   6.125   9.164  0.0000  0.0000  0.0000
 7962OM     OM1 7962   4.225   4.570   9.429  0.0000  0.0000  0.0000
 7963OM     OM1 7963   4.791   6.095   0.532  0.0000  0.0000  0.0000
 7964OM     OM1 7964   4.862   6.025   0.767  0.0000  0.0000  0.0000
 7965OM     OM1 7965   4.602   5.996   0.669  0.0000  0.0000  0.0000
 7966OM     OM1 7966   4.795   5.842   0.589  0.0000  0.0000  0.0000
 7967OM     OM1 7967   1.611   7.278   0.325  0.0000  0.0000  0.0000
 7968OM     OM1 7968   1.782   7.234   0.531  0.0000  0.0000  0.0000
 7969OM     OM1 7969   8.252   4.468   9.015  0.0000  0.0000  0.0000
 7970OM     OM1 7970   8.205   4.370   9.253  0.0000  0.0000  0.0000
 7971OM     OM1 7971   8.104   4.264   9.028  0.0000  0.0000  0.0000
 7972OM     OM1 7972   8.227   1.541   9.077  0.0000  0.0000  0.0000
 7973OM     OM1 7973   8.092   1.746   9.153  0.0000  0.0000  0.0000
 7974OM     OM1 7974   8.290   1.665   9.298  0.0000  0.0000  0.0000
 7975OM     OM1 7975   6.211   4.735   9.078  0.0000  0.0000  0.0000
 7976OM     OM1 7976   6.165   4.817   8.831  0.0000  0.0000  0.0000
 7977OM     OM1 7977   3.019   7.333   9.115  0.0000  0.0000  0.0000
 7978OM     OM1 7978   2.327   5.612   1.270  0.0000  0.0000  0.0000
 7979OM     OM1 7979   2.590   5.610   1.293  0.0000  0.0000  0.0000
 7980OM     OM1 7980   2.450   5.402   1.373  0.0000  0.0000  0.0000
 7981OM     OM1 7981   1.500   1.115   1.197  0.0000  0.0000  0.0000
 7982OM     OM1 7982   3.325   1.094   9.318  0.0000  0.0000  0.0000
 7983OM     OM1 7983   3.395   1.315   9.445  0.0000  0.0000  0.0000
 7984OM     OM1 7984   6.324   2.987   9.553  0.0000  0.0000  0.0000
 7985OM     OM1 7985   6.356   3.114   9.326  0.0000  0.0000  0.0000
 7986OM     OM1 7986   1.691   8.610   9.567  0.0000  0.0000  0.0000
 7987OM     OM1 7987   1.919   8.478   0.001  0.0000  0.0000  0.0000
 7988OM     OM1 7988   1.907   8.690   9.461  0.0000  0.0000  0.0000
 7989OM     OM1 7989   9.261   6.256   0.907  0.0000  0.0000  0.0000
 7990OM     OM1 7990   9.261   6.139   1.130  0.0000  0.0000  0.0000
 7991OM     OM1 7991   9.289   6.402   1.125  0.0000  0.0000  0.0000
 7992OM     OM1 7992   1.934   0.862   0.414  0.0000  0.0000  0.0000
 7993OM     OM1 7993   1.846   0.628   0.442  0.0000  0.0000  0.0000
 7994OM     OM1 7994   5.643   7.555   9.361  0.0000  0.0000  0.0000
 7995OM     OM1 7995   4.823   8.134   0.305  0.0000  0.0000  0.0000
 7996OM     OM1 7996   4.690   8.079   0.524  0.0000  0.0000  0.0000
 7997OM     OM1 7997   4.807   7.884   0.410  0.0000  0.0000  0.0000
 7998OM     OM1 7998   2.445   3.183   0.776  0.0000  0.0000  0.0000
 7999OM     OM1 7999   2.443   3.424   0.883  0.0000  0.0000  0.0000
 8000OM     OM1 8000   2.668   3.314   0.782  0.0000  0.0000  0.0000
 8001OM     OM1 8001   5.340   9.319   9.154  0.0000  0.0000  0.0000
 8002OM     OM1 8002   5.178   9.311   9.353  0.0000  0.0000  0.0000
 8003OM     OM1 8003   5.432   9.244   9.398  0.0000  0.0000  0.0000
 8004OM     OM1 8004   4.195   8.024   9.075  0.0000  0.0000  0.0000
 8005OM     OM1 8005   4.200   7.836   8.897  0.0000  0.0000  0.0000
 8006OM     OM1 8006   4.066   7.798   9.117  0.0000  0.0000  0.0000
 8007OM     OM1 8007   3.975   7.973   8.946  0.0000  0.0000  0.0000
 8008OM     OM1 8008   0.432   1.324   8.656  0.0000  0.0000  0.0000
 8009OM     OM1 8009   0.564   1.457   8.839  0.0000  0.0000  0.0000
 8010OM     OM1 8010   7.320   1.490   0.891  0.0000  0.0000  0.0000
 8011OM     OM1 8011   7.263   1.717   1.010  0.0000  0.0000  0.0000
 8012OM     OM1 8012   9.212   0.226   8.294  0.0000  0.0000  0.0000
 8013OM     OM1 8013   9.112   9.600   8.300  0.0000  0.0000  0.0000
 8014OM     OM1 8014   8.289   4.790   0.818  0.0000  0.0000  0.0000
 8015OM     OM1 8015   6.658   2.027   8.962  0.0000  0.0000  0.0000
 8016OM     OM1 8016   6.398   2.038   8.988  0.0000  0.0000  0.0000
 8017OM     OM1 8017   6.532   2.005   9.206  0.0000  0.0000  0.0000
 8018OM     OM1 8018   6.530   1.819   9.017  0.0000  0.0000  0.0000
 8019OM     OM1 8019   0.114   3.092   0.775  0.0000  0.0000  0.0000
 8020OM     OM1 8020   0.018   2.871   0.693  0.0000  0.0000  0.0000
 8021OM     OM1 8021   9.467   3.036   0.838  0.0000  0.0000  0.0000
 8022OM     OM1 8022   9.524   3.101   0.599  0.0000  0.0000  0.0000
 8023OM     OM1 8023   3.389   8.472   0.926  0.0000  0.0000  0.0000
 8024OM     OM1 8024   3.643   8.469   0.976  0.0000  0.0000  0.0000
 8025OM     OM1 8025   6.669   5.089   0.211  0.0000  0.0000  0.0000
 8026OM     OM1 8026   6.912   5.016   0.224  0.0000  0.0000  0.0000
 8027OM     OM1 8027   6.715   4.892   0.374  0.0000  0.0000  0.0000
 8028OM     OM1 8028   3.946   3.548   1.084  0.0000  0.0000  0.0000
 8029OM     OM1 8029   2.692   4.180   0.895  0.0000  0.0000  0.0000
 8030OM     OM1 8030   2.493   4.070   1.041  0.0000  0.0000  0.0000
 8031OM     OM1 8031   2.570   3.983   0.800  0.0000  0.0000  0.0000
 8032OM     OM1 8032   2.715   3.944   1.012  0.0000  0.0000  0.0000
 8033OM     OM1 8033   6.957   2.725   9.289  0.0000  0.0000  0.0000
 8034OM     OM1 8034   6.734   2.747   9.146  0.0000  0.0000  0.0000
 8035OM     OM1 8035   6.822   2.943   9.294  0.0000  0.0000  0.0000
 8036OM     OM1 8036   8.501   4.665   9.057  0.0000  0.0000  0.0000
 8037OM     OM1 8037   8.747   4.609   9.117  0.0000  0.0000  0.0000
 8038OM     OM1 8038   4.296   2.527   0.498  0.0000  0.0000  0.0000
 8039OM     OM1 8039   4.070   2.606   0.396  0.0000  0.0000  0.0000
 8040OM     OM1 8040   1.360   4.849   0.407  0.0000  0.0000  0.0000
 8041OM     OM1 8041   1.329   4.946   0.168  0.0000  0.0000  0.0000
 8042OM     OM1 8042   7.634   5.590   0.132  0.0000  0.0000  0.0000
 8043OM     OM1 8043   4.859   0.402   8.163  0.0000  0.0000  0.0000
 8044OM     OM1 8044   4.728   0.596   8.235  0.0000  0.0000  0.0000
 8045OM     OM1 8045   0.948   4.377   8.230  0.0000  0.0000  0.0000
 8046OM     OM1 8046   9.570   1.961   0.614  0.0000  0.0000  0.0000
 8047OM     OM1 8047   3.625   5.702   8.928  0.0000  0.0000  0.0000
 8048OM     OM1 8048   3.754   5.517   9.054  0.0000  0.0000  0.0000
 8049OM     OM1 8049   2.191   5.770   0.857  0.0000  0.0000  0.0000
 8050OM     OM1 8050   2.371   5.902   1.009  0.0000  0.0000  0.0000
 8051OM     OM1 8051   6.032   1.195   9.278  0.0000  0.0000  0.0000
 8052OM     OM1 8052   5.948   1.339   9.060  0.0000  0.0000  0.0000
 8053OM     OM1 8053   5.445   4.882   8.642  0.0000  0.0000  0.0000
 8054OM     OM1 8054   5.691   4.809   8.573  0.0000  0.0000  0.0000
 8055OM     OM1 8055   1.866   2.099   0.381  0.0000  0.0000  0.0000
 8056OM     OM1 8056   1.765   2.250   0.199  0.0000  0.0000  0.0000
 8057OM     OM1 8057   1.603   2.118   0.374  0.0000  0.0000  0.0000
 8058OM     OM1 8058   0.281   7.567   1.171  0.0000  0.0000  0.0000
 8059OM     OM1 8059   0.469   7.733   1.111  0.0000  0.0000  0.0000
 8060OM     OM1 8060   9.200   2.385   8.703  0.0000  0.0000  0.0000
 8061OM     OM1 8061   9.031   2.301   8.525  0.0000  0.0000  0.0000
 8062OM     OM1 8062   5.461   7.577   8.818  0.0000  0.0000  0.0000
 8063OM     OM1 8063   5.484   9.018   0.504  0.0000  0.0000  0.0000
 8064OM     OM1 8064   0.975   2.142   0.224  0.0000  0.0000  0.0000
 8065OM     OM1 8065   0.833   1.934   0.298  0.0000  0.0000  0.0000
 8066OM     OM1 8066   1.081   1.909   0.218  0.0000  0.0000  0.0000
 8067OM     OM1 8067   5.597   6.750   1.418  0.0000  0.0000  0.0000
 8068OM     OM1 8068   0.391   6.596   0.977  0.0000  0.0000  0.0000
 8069OM     OM1 8069   0.236   6.432   0.868  0.0000  0.0000  0.0000
 8070OM     OM1 8070   3.881   0.814   0.450  0.0000  0.0000  0.0000
 8071OM     OM1 8071   3.803   0.769   0.210  0.0000  0.0000  0.0000
 8072OM     OM1 8072   4.714   6.710   9.337  0.0000  0.0000  0.0000
 8073OM     OM1 8073   3.155   3.535   9.228  0.0000  0.0000  0.0000
 8074OM     OM1 8074   9.600   6.396   9.525  0.0000  0.0000  0.0000
 8075OM     OM1 8075   8.174   7.521   8.921  0.0000  0.0000  0.0000
 8076OM     OM1 8076   8.427   7.442   8.921  0.0000  0.0000  0.0000
 8077OM     OM1 8077   8.281   7.456   9.146  0.0000  0.0000  0.0000
 8078OM     OM1 8078   5.649   7.548   0.547  0.0000  0.0000  0.0000
 8079OM     OM1 8079   5.711   7.736   0.726  0.0000  0.0000  0.0000
 8080OM     OM1 8080   5.863   7.526   0.700  0.0000  0.0000  0.0000
 8081OM     OM1 8081   7.533   6.519   1.340  0.0000  0.0000  0.0000
 8082OM     OM1 8082   0.809   0.928   0.857  0.0000  0.0000  0.0000
 8083OM     OM1 8083   0.859   0.673   0.878  0.0000  0.0000  0.0000
 8084OM     OM1 8084   1.116   0.836   1.188  0.0000  0.0000  0.0000
 8085OM     OM1 8085   2.270   1.785   9.162  0.0000  0.0000  0.0000
 8086OM     OM1 8086   2.478   1.931   9.068  0.0000  0.0000  0.0000
 8087OM     OM1 8087   8.730   0.000   8.719  0.0000  0.0000  0.0000
 8088OM     OM1 8088   8.715   9.345   8.755  0.0000  0.0000  0.0000
 8089OM     OM1 8089   3.064   2.777   0.836  0.0000  0.0000  0.0000
 8090OM     OM1 8090   3.278   2.682   0.941  0.0000  0.0000  0.0000
 8091OM     OM1 8091   8.653   0.240   1.271  0.0000  0.0000  0.0000
 8092OM     OM1 8092   8.618   0.008   1.176  0.0000  0.0000  0.0000
 8093OM     OM1 8093   8.868   0.103   1.245  0.0000  0.0000  0.0000
 8094OM     OM1 8094   5.470   6.693   8.488  0.0000  0.0000  0.0000
 8095OM     OM1 8095   5.368   6.850   8.302  0.0000  0.0000  0.0000
 8096OM     OM1 8096   7.219   6.522   8.449  0.0000  0.0000  0.0000
 8097OM     OM1 8097   7.367   6.323   8.359  0.0000  0.0000  0.0000
 8098OM     OM1 8098   0.014   0.100   0.024  0.0000  0.0000  0.0000
 8099OM     OM1 8099   0.080   0.406   0.401  0.0000  0.0000  0.0000
 8100OM     OM1 8100   0.192   0.287   9.544  0.0000  0.0000  0.0000
 8101OM     OM1 8101   0.095   0.290   0.173  0.0000  0.0000  0.0000
 8102OM     OM1 8102   7.440   8.472   9.456  0.0000  0.0000  0.0000
 8103OM     OM1 8103   7.268   8.463   0.041  0.0000  0.0000  0.0000
 8104OM     OM1 8104   7.306   8.686   9.527  0.0000  0.0000  0.0000
 8105OM     OM1 8105   0.894   9.123   8.444  0.0000  0.0000  0.0000
 8106OM     OM1 8106   1.123   9.020   8.495  0.0000  0.0000  0.0000
 8107OM     OM1 8107   7.657   0.474   8.793  0.0000  0.0000  0.0000
 8108OM     OM1 8108   0.842   3.651   0.206  0.0000  0.0000  0.0000
 8109OM     OM1 8109   0.897   3.540   0.436  0.0000  0.0000  0.0000
 8110OM     OM1 8110   0.838   3.799   0.421  0.0000  0.0000  0.0000
 8111OM     OM1 8111   6.118   5.933   1.145  0.0000  0.0000  0.0000
 8112OM     OM1 8112   5.912   5.914   1.011  0.0000  0.0000  0.0000
 8113OM     OM1 8113   9.247   5.027   0.773  0.0000  0.0000  0.0000
 8114OM     OM1 8114   9.229   4.935   0.541  0.0000  0.0000  0.0000
 8115OM     OM1 8115   8.868   5.203   0.483  0.0000  0.0000  0.0000
 8116OM     OM1 8116   0.409   6.914   8.581  0.0000  0.0000  0.0000
 8117OM     OM1 8117   0.662   0.707   9.356  0.0000  0.0000  0.0000
 8118OM     OM1 8118   0.512   0.791   9.174  0.0000  0.0000  0.0000
 8119OM     OM1 8119   8.520   4.301   0.794  0.0000  0.0000  0.0000
 8120OM     OM1 8120   8.628   4.059   0.802  0.0000  0.0000  0.0000
 8121OM     OM1 8121   8.394   4.099   0.685  0.0000  0.0000  0.0000
 8122OM     OM1 8122   6.033   3.909   0.279  0.0000  0.0000  0.0000
 8123OM     OM1 8123   1.838   1.354   9.042  0.0000  0.0000  0.0000
 8124OM     OM1 8124   1.787   1.153   9.205  0.0000  0.0000  0.0000
 8125OM     OM1 8125   0.332   3.465   9.344  0.0000  0.0000  0.0000
 8126OM     OM1 8126   0.285   3.505   9.596  0.0000  0.0000  0.0000
 8127OM     OM1 8127   1.795   8.905   9.380  0.0000  0.0000  0.0000
 8128OM     OM1 8128   1.848   8.914   9.123  0.0000  0.0000  0.0000
 8129OM     OM1 8129   1.613   8.986   9.209  0.0000  0.0000  0.0000
 8130OM     OM1 8130   9.474   4.842   0.493  0.0000  0.0000  0.0000
 8131OM     OM1 8131   9.316   4.926   0.295  0.0000  0.0000  0.0000
 8132OM     OM1 8132   1.837   4.501   9.066  0.0000  0.0000  0.0000
 8133OM     OM1 8133   1.943   4.473   8.823  0.0000  0.0000  0.0000
 8134OM     OM1 8134   4.948   3.234   1.150  0.0000  0.0000  0.0000
 8135OM     OM1 8135   5.186   3.227   1.072  0.0000  0.0000  0.0000
 8136OM     OM1 8136   1.165   7.907   0.313  0.0000  0.0000  0.0000
 8137OM     OM1 8137   1.335   8.028   0.163  0.0000  0.0000  0.0000
 8138OM     OM1 8138   1.278   8.122   0.403  0.0000  0.0000  0.0000
 8139OM     OM1 8139   1.158   4.426   0.435  0.0000  0.0000  0.0000
 8140OM     OM1 8140   1.078   4.671   0.420  0.0000  0.0000  0.0000
 8141OM     OM1 8141   1.266   4.587   0.249  0.0000  0.0000  0.0000
 8142OM     OM1 8142   6.925   8.434   8.522  0.0000  0.0000  0.0000
 8143OM     OM1 8143   9.439   8.022   8.556  0.0000  0.0000  0.0000
 8144OM     OM1 8144   9.559   8.228   8.653  0.0000  0.0000  0.0000
 8145OM     OM1 8145   1.707   7.499   0.000  0.0000  0.0000  0.0000
 8146OM     OM1 8146   2.089   1.708   0.170  0.0000  0.0000  0.0000
 8147OM     OM1 8147   2.060   1.450   0.181  0.0000  0.0000  0.0000
 8148OM     OM1 8148   5.799   6.230   0.912  0.0000  0.0000  0.0000
 8149OM     OM1 8149   5.697   6.111   0.718  0.0000  0.0000  0.0000
 8150OM     OM1 8150   1.051   8.881   0.861  0.0000  0.0000  0.0000
 8151OM     OM1 8151   1.364   3.874   0.017  0.0000  0.0000  0.0000
 8152OM     OM1 8152   1.391   3.959   9.373  0.0000  0.0000  0.0000
 8153OM     OM1 8153   6.081   4.682   1.230  0.0000  0.0000  0.0000
 8154OM     OM1 8154   4.236   2.633   9.555  0.0000  0.0000  0.0000
 8155OM     OM1 8155   4.278   2.827   0.139  0.0000  0.0000  0.0000
 8156OM     OM1 8156   4.356   2.536   9.350  0.0000  0.0000  0.0000
 8157OM     OM1 8157   4.367   2.843   9.493  0.0000  0.0000  0.0000
 8158OM     OM1 8158   5.851   3.836   8.599  0.0000  0.0000  0.0000
 8159OM     OM1 8159   6.022   3.677   8.491  0.0000  0.0000  0.0000
 8160OM     OM1 8160   8.440   2.773   0.442  0.0000  0.0000  0.0000
 8161OM     OM1 8161   8.413   2.854   0.765  0.0000  0.0000  0.0000
 8162OM     OM1 8162   8.290   2.673   0.626  0.0000  0.0000  0.0000
 8163OM     OM1 8163   6.042   1.509   8.872  0.0000  0.0000  0.0000
 8164OM     OM1 8164   5.876   1.323   8.804  0.0000  0.0000  0.0000
 8165OM     OM1 8165   3.219   3.223   0.065  0.0000  0.0000  0.0000
 8166OM     OM1 8166   3.036   3.368   0.413  0.0000  0.0000  0.0000
 8167OM     OM1 8167   5.616   6.297   0.091  0.0000  0.0000  0.0000
 8168OM     OM1 8168   0.750   4.825   8.808  0.0000  0.0000  0.0000
 8169OM     OM1 8169   5.606   5.617   0.134  0.0000  0.0000  0.0000
 8170OM     OM1 8170   5.675   5.390   0.254  0.0000  0.0000  0.0000
 8171OM     OM1 8171   5.601   5.392   0.005  0.0000  0.0000  0.0000
 8172OM     OM1 8172   4.537   5.937   8.307  0.0000  0.0000  0.0000
 8173OM     OM1 8173   4.709   6.096   8.195  0.0000  0.0000  0.0000
 8174OM     OM1 8174   4.588   6.188   8.391  0.0000  0.0000  0.0000
 8175OM     OM1 8175   1.011   6.207   0.901  0.0000  0.0000  0.0000
 8176OM     OM1 8176   0.781   6.314   0.908  0.0000  0.0000  0.0000
 8177OM     OM1 8177   0.808   6.049   0.864  0.0000  0.0000  0.0000
 8178OM     OM1 8178   0.845   6.151   1.098  0.0000  0.0000  0.0000
 8179OM     OM1 8179   3.847   1.532   9.087  0.0000  0.0000  0.0000
 8180OM     OM1 8180   3.800   1.675   9.291  0.0000  0.0000  0.0000
 8181OM     OM1 8181   3.883   1.438   9.331  0.0000  0.0000  0.0000
 8182OM     OM1 8182   4.050   1.617   9.232  0.0000  0.0000  0.0000
 8183OM     OM1 8183   6.427   4.379   9.513  0.0000  0.0000  0.0000
 8184OM     OM1 8184   6.610   4.362   9.326  0.0000  0.0000  0.0000
 8185OM     OM1 8185   8.927   3.162   9.345  0.0000  0.0000  0.0000
 8186OM     OM1 8186   8.225   3.875   9.409  0.0000  0.0000  0.0000
 8187OM     OM1 8187   8.382   3.893   0.014  0.0000  0.0000  0.0000
 8188OM     OM1 8188   8.450   3.740   9.419  0.0000  0.0000  0.0000
 8189OM     OM1 8189   1.571   4.293   8.924  0.0000  0.0000  0.0000
 8190OM     OM1 8190   1.388   4.416   8.791  0.0000  0.0000  0.0000
 8191OM     OM1 8191   1.512   4.550   8.984  0.0000  0.0000  0.0000
 8192OM     OM1 8192   5.439   7.233   9.232  0.0000  0.0000  0.0000
 8193OM     OM1 8193   5.333   7.011   9.208  0.0000  0.0000  0.0000
 8194OM     OM1 8194   5.317   7.164   9.000  0.0000  0.0000  0.0000
 8195OM     OM1 8195   0.990   7.883   0.115  0.0000  0.0000  0.0000
 8196OM     OM1 8196   0.918   7.836   0.362  0.0000  0.0000  0.0000
 8197OM     OM1 8197   2.182   6.735   0.383  0.0000  0.0000  0.0000
 8198OM     OM1 8198   4.857   2.425   8.229  0.0000  0.0000  0.0000
 8199OM     OM1 8199   6.896   0.160   0.186  0.0000  0.0000  0.0000
 8200OM     OM1 8200   6.667   0.218   0.106  0.0000  0.0000  0.0000
 8201OM     OM1 8201   6.832   0.412   0.158  0.0000  0.0000  0.0000
 8202OM     OM1 8202   3.657   0.167   0.018  0.0000  0.0000  0.0000
 8203OM     OM1 8203   8.168   3.111   8.822  0.0000  0.0000  0.0000
 8204OM     OM1 8204   8.059   3.089   9.063  0.0000  0.0000  0.0000
 8205OM     OM1 8205   4.278   4.228   9.032  0.0000  0.0000  0.0000
 8206OM     OM1 8206   4.043   4.111   9.057  0.0000  0.0000  0.0000
 8207OM     OM1 8207   4.261   3.986   9.121  0.0000  0.0000  0.0000
 8208OM     OM1 8208   2.894   4.926   9.205  0.0000  0.0000  0.0000
 8209OM     OM1 8209   2.996   5.073   9.389  0.0000  0.0000  0.0000
 8210OM     OM1 8210   3.208   8.707   8.450  0.0000  0.0000  0.0000
 8211OM     OM1 8211   5.111   0.565   0.621  0.0000  0.0000  0.0000
 8212OM     OM1 8212   5.715   4.221   8.369  0.0000  0.0000  0.0000
 8213OM     OM1 8213   5.826   4.675   8.395  0.0000  0.0000  0.0000
 8214OM     OM1 8214   3.250   3.007   9.055  0.0000  0.0000  0.0000
 8215OM     OM1 8215   3.509   2.969   8.992  0.0000  0.0000  0.0000
 8216OM     OM1 8216   7.346   8.145   9.105  0.0000  0.0000  0.0000
 8217OM     OM1 8217   7.229   8.304   8.944  0.0000  0.0000  0.0000
 8218OM     OM1 8218   8.659   3.088   8.688  0.0000  0.0000  0.0000
 8219OM     OM1 8219   8.909   3.088   8.596  0.0000  0.0000  0.0000
 8220OM     OM1 8220   7.821   1.573   9.012  0.0000  0.0000  0.0000
 8221OM     OM1 8221   2.231   8.118   8.520  0.0000  0.0000  0.0000
 8222OM     OM1 8222   4.722   7.701   8.439  0.0000  0.0000  0.0000
 8223OM     OM1 8223   0.242   2.652   8.717  0.0000  0.0000  0.0000
 8224OM     OM1 8224   0.001   2.745   8.720  0.0000  0.0000  0.0000
 8225OM     OM1 8225   0.046   2.530   8.855  0.0000  0.0000  0.0000
 8226OM     OM1 8226   4.345   9.226   0.141  0.0000  0.0000  0.0000
 8227OM     OM1 8227   4.424   9.025   9.596  0.0000  0.0000  0.0000
 8228OM     OM1 8228   4.528   9.051   0.230  0.0000  0.0000  0.0000
 8229OM     OM1 8229   4.531   1.760   8.713  0.0000  0.0000  0.0000
 8230OM     OM1 8230   4.377   1.635   8.879  0.0000  0.0000  0.0000
 8231OM     OM1 8231   4.296   1.861   8.761  0.0000  0.0000  0.0000
 8232OM     OM1 8232   4.320   1.639   8.625  0.0000  0.0000  0.0000
 8233OM     OM1 8233   8.820   8.224   1.005  0.0000  0.0000  0.0000
 8234OM     OM1 8234   8.936   8.263   1.236  0.0000  0.0000  0.0000
 8235OM     OM1 8235   1.377   7.991   8.748  0.0000  0.0000  0.0000
 8236OM     OM1 8236   1.157   7.939   8.889  0.0000  0.0000  0.0000
 8237OM     OM1 8237   3.881   1.329   1.436  0.0000  0.0000  0.0000
 8238OM     OM1 8238   8.169   9.002   9.089  0.0000  0.0000  0.0000
 8239OM     OM1 8239   8.343   9.180   9.190  0.0000  0.0000  0.0000
 8240OM     OM1 8240   2.075   0.554   8.945  0.0000  0.0000  0.0000
 8241OM     OM1 8241   1.821   0.759   8.985  0.0000  0.0000  0.0000
 8242OM     OM1 8242   2.047   0.792   8.858  0.0000  0.0000  0.0000
 8243OM     OM1 8243   0.123   7.971   9.158  0.0000  0.0000  0.0000
 8244OM     OM1 8244   9.600   7.994   9.380  0.0000  0.0000  0.0000
 8245OM     OM1 8245   9.469   7.963   9.157  0.0000  0.0000  0.0000
 8246OM     OM1 8246   0.894   6.329   1.281  0.0000  0.0000  0.0000
 8247OM     OM1 8247   8.639   3.255   1.164  0.0000  0.0000  0.0000
 8248OM     OM1 8248   6.778   9.538   0.133  0.0000  0.0000  0.0000
 8249OM     OM1 8249   6.094   6.537   0.774  0.0000  0.0000  0.0000
 8250OM     OM1 8250   6.257   6.732   0.699  0.0000  0.0000  0.0000
 8251OM     OM1 8251   6.101   6.634   0.522  0.0000  0.0000  0.0000
 8252OM     OM1 8252   5.999   6.764   0.734  0.0000  0.0000  0.0000
 8253OM     OM1 8253   9.041   3.270   0.812  0.0000  0.0000  0.0000
 8254OM     OM1 8254   9.210   3.458   0.801  0.0000  0.0000  0.0000
 8255OM     OM1 8255   8.959   3.494   0.719  0.0000  0.0000  0.0000
 8256OM     OM1 8256   0.401   7.093   0.337  0.0000  0.0000  0.0000
 8257OM     OM1 8257   0.624   7.194   0.430  0.0000  0.0000  0.0000
 8258OM     OM1 8258   0.632   7.010   0.242  0.0000  0.0000  0.0000
 8259OM     OM1 8259   4.694   7.732   1.214  0.0000  0.0000  0.0000
 8260OM     OM1 8260   6.006   5.185   0.006  0.0000  0.0000  0.0000
 8261OM     OM1 8261   5.827   5.051   9.480  0.0000  0.0000  0.0000
 8262OM     OM1 8262   1.652   2.940   8.214  0.0000  0.0000  0.0000
 8263OM     OM1 8263   5.541   4.338   0.115  0.0000  0.0000  0.0000
 8264OM     OM1 8264   5.542   4.453   9.483  0.0000  0.0000  0.0000
 8265OM     OM1 8265   0.711   3.120   8.251  0.0000  0.0000  0.0000
 8266OM     OM1 8266   2.541   1.897   0.724  0.0000  0.0000  0.0000
 8267OM     OM1 8267   2.723   1.788   0.882  0.0000  0.0000  0.0000
 8268OM     OM1 8268   2.728   2.047   0.831  0.0000  0.0000  0.0000
 8269OM     OM1 8269   0.432   3.433   0.479  0.0000  0.0000  0.0000
 8270OM     OM1 8270   0.346   3.515   0.240  0.0000  0.0000  0.0000
 8271OM     OM1 8271   0.187   3.443   0.429  0.0000  0.0000  0.0000
 8272OM     OM1 8272   7.902   5.588   0.142  0.0000  0.0000  0.0000
 8273OM     OM1 8273   8.937   7.989   8.836  0.0000  0.0000  0.0000
 8274OM     OM1 8274   2.800   3.071   9.313  0.0000  0.0000  0.0000
 8275OM     OM1 8275   8.177   6.259   1.169  0.0000  0.0000  0.0000
 8276OM     OM1 8276   4.776   9.427   8.344  0.0000  0.0000  0.0000
 8277OM     OM1 8277   9.489   3.925   0.730  0.0000  0.0000  0.0000
 8278OM     OM1 8278   0.270   4.127   0.428  0.0000  0.0000  0.0000
 8279OM     OM1 8279   9.500   3.798   0.502  0.0000  0.0000  0.0000
 8280OM     OM1 8280   0.782   4.485   8.529  0.0000  0.0000  0.0000
 8281OM     OM1 8281   6.398   2.636   9.532  0.0000  0.0000  0.0000
 8282OM     OM1 8282   6.447   2.644   9.280  0.0000  0.0000  0.0000
 8283OM     OM1 8283   6.344   2.878   9.232  0.0000  0.0000  0.0000
 8284OM     OM1 8284   5.004   1.681   9.550  0.0000  0.0000  0.0000
 8285OM     OM1 8285   5.178   1.665   9.356  0.0000  0.0000  0.0000
 8286OM     OM1 8286   5.234   1.813   9.560  0.0000  0.0000  0.0000
 8287OM     OM1 8287   5.047   1.890   9.392  0.0000  0.0000  0.0000
 8288OM     OM1 8288   1.425   8.423   8.415  0.0000  0.0000  0.0000
 8289OM     OM1 8289   1.547   8.616   8.288  0.0000  0.0000  0.0000
 8290OM     OM1 8290   5.753   2.762   8.244  0.0000  0.0000  0.0000
 8291OM     OM1 8291   5.776   2.948   8.420  0.0000  0.0000  0.0000
 8292OM     OM1 8292   6.891   3.354   9.296  0.0000  0.0000  0.0000
 8293OM     OM1 8293   7.039   3.304   9.501  0.0000  0.0000  0.0000
 8294OM     OM1 8294   5.018   9.244   1.343  0.0000  0.0000  0.0000
 8295OM     OM1 8295   1.597   6.365   1.044  0.0000  0.0000  0.0000
 8296OM     OM1 8296   1.638   6.276   1.280  0.0000  0.0000  0.0000
 8297OM     OM1 8297   7.920   1.337   0.044  0.0000  0.0000  0.0000
 8298OM     OM1 8298   3.590   6.507   8.293  0.0000  0.0000  0.0000
 8299OM     OM1 8299   8.393   2.810   1.091  0.0000  0.0000  0.0000
 8300OM     OM1 8300   8.589   2.889   0.948  0.0000  0.0000  0.0000
 8301OM     OM1 8301   8.480   3.060   1.106  0.0000  0.0000  0.0000
 8302OM     OM1 8302   7.174   5.041   8.672  0.0000  0.0000  0.0000
 8303OM     OM1 8303   7.064   5.260   8.729  0.0000  0.0000  0.0000
 8304OM     OM1 8304   7.000   5.150   8.501  0.0000  0.0000  0.0000
 8305OM     OM1 8305   1.781   9.368   0.626  0.0000  0.0000  0.0000
 8306OM     OM1 8306   1.764   9.174   0.453  0.0000  0.0000  0.0000
 8307OM     OM1 8307   3.862   3.975   0.961  0.0000  0.0000  0.0000
 8308OM     OM1 8308   3.970   3.808   1.126  0.0000  0.0000  0.0000
 8309OM     OM1 8309   4.843   5.622   9.471  0.0000  0.0000  0.0000
 8310OM     OM1 8310   4.683   5.460   0.012  0.0000  0.0000  0.0000
 8311OM     OM1 8311   4.875   5.362   9.467  0.0000  0.0000  0.0000
 8312OM     OM1 8312   7.040   2.911   0.968  0.0000  0.0000  0.0000
 8313OM     OM1 8313   6.805   2.800   0.963  0.0000  0.0000  0.0000
 8314OM     OM1 8314   6.846   2.816   0.558  0.0000  0.0000  0.0000
 8315OM     OM1 8315   6.750   2.997   1.120  0.0000  0.0000  0.0000
 8316OM     OM1 8316   0.765   8.749   9.558  0.0000  0.0000  0.0000
 8317OM     OM1 8317   0.819   8.767   0.203  0.0000  0.0000  0.0000
 8318OM     OM1 8318   0.628   8.593   0.119  0.0000  0.0000  0.0000
 8319OM     OM1 8319   0.870   8.544   0.074  0.0000  0.0000  0.0000
 8320OM     OM1 8320   2.813   0.485   9.058  0.0000  0.0000  0.0000
 8321OM     OM1 8321   2.863   4.348   0.968  0.0000  0.0000  0.0000
 8322OM     OM1 8322   2.933   4.168   0.782  0.0000  0.0000  0.0000
 8323OM     OM1 8323   4.923   9.480   0.053  0.0000  0.0000  0.0000
 8324OM     OM1 8324   4.740   9.305   0.035  0.0000  0.0000  0.0000
 8325OM     OM1 8325   7.969   3.906   9.351  0.0000  0.0000  0.0000
 8326OM     OM1 8326   8.099   3.700   9.266  0.0000  0.0000  0.0000
 8327OM     OM1 8327   2.887   5.297   8.468  0.0000  0.0000  0.0000
 8328OM     OM1 8328   3.136   5.373   8.516  0.0000  0.0000  0.0000
 8329OM     OM1 8329   2.985   5.241   8.697  0.0000  0.0000  0.0000
 8330OM     OM1 8330   3.089   5.121   8.501  0.0000  0.0000  0.0000
 8331OM     OM1 8331   2.632   7.639   1.247  0.0000  0.0000  0.0000
 8332OM     OM1 8332   2.668   7.878   1.132  0.0000  0.0000  0.0000
 8333OM     OM1 8333   8.535   1.459   8.912  0.0000  0.0000  0.0000
 8334OM     OM1 8334   8.736   1.620   8.898  0.0000  0.0000  0.0000
 8335OM     OM1 8335   8.580   1.582   8.689  0.0000  0.0000  0.0000
 8336OM     OM1 8336   9.055   3.645   0.530  0.0000  0.0000  0.0000
 8337OM     OM1 8337   9.193   3.841   0.433  0.0000  0.0000  0.0000
 8338OM     OM1 8338   9.127   3.637   0.282  0.0000  0.0000  0.0000
 8339OM     OM1 8339   9.317   3.621   0.458  0.0000  0.0000  0.0000
 8340OM     OM1 8340   7.066   6.676   0.873  0.0000  0.0000  0.0000
 8341OM     OM1 8341   7.149   6.918   0.890  0.0000  0.0000  0.0000
 8342OM     OM1 8342   9.096   9.264   9.494  0.0000  0.0000  0.0000
 8343OM     OM1 8343   5.447   9.344   0.228  0.0000  0.0000  0.0000
 8344OM     OM1 8344   5.576   9.117   0.281  0.0000  0.0000  0.0000
 8345OM     OM1 8345   5.554   9.208   0.038  0.0000  0.0000  0.0000
 8346OM     OM1 8346   5.835   5.470   0.438  0.0000  0.0000  0.0000
 8347OM     OM1 8347   5.804   5.701   0.533  0.0000  0.0000  0.0000
 8348OM     OM1 8348   1.790   8.827   8.892  0.0000  0.0000  0.0000
 8349OM     OM1 8349   1.705   8.769   8.654  0.0000  0.0000  0.0000
 8350OM     OM1 8350   1.811   8.580   8.816  0.0000  0.0000  0.0000
 8351OM     OM1 8351   6.835   1.507   9.218  0.0000  0.0000  0.0000
 8352OM     OM1 8352   7.085   1.471   9.206  0.0000  0.0000  0.0000
 8353OM     OM1 8353   6.963   1.418   9.426  0.0000  0.0000  0.0000
 8354OM     OM1 8354   5.863   2.811   1.270  0.0000  0.0000  0.0000
 8355OM     OM1 8355   5.285   2.374   0.856  0.0000  0.0000  0.0000
 8356OM     OM1 8356   5.289   2.117   0.876  0.0000  0.0000  0.0000
 8357OM     OM1 8357   4.894   0.531   9.023  0.0000  0.0000  0.0000
 8358OM     OM1 8358   5.092   0.373   9.014  0.0000  0.0000  0.0000
 8359OM     OM1 8359   2.554   6.607   1.085  0.0000  0.0000  0.0000
 8360OM     OM1 8360   2.509   6.378   0.970  0.0000  0.0000  0.0000
 8361OM     OM1 8361   2.408   6.427   1.197  0.0000  0.0000  0.0000
 8362OM     OM1 8362   6.601   2.571   8.491  0.0000  0.0000  0.0000
 8363OM     OM1 8363   7.961   3.907   1.283  0.0000  0.0000  0.0000
 8364OM     OM1 8364   7.834   3.977   1.057  0.0000  0.0000  0.0000
 8365OM     OM1 8365   8.008   4.143   1.170  0.0000  0.0000  0.0000
 8366OM     OM1 8366   8.500   8.662   0.433  0.0000  0.0000  0.0000
 8367OM     OM1 8367   8.599   8.798   0.237  0.0000  0.0000  0.0000
 8368OM     OM1 8368   7.543   7.976   1.344  0.0000  0.0000  0.0000
 8369OM     OM1 8369   7.305   8.048   1.283  0.0000  0.0000  0.0000
 8370OM     OM1 8370   7.497   8.112   1.120  0.0000  0.0000  0.0000
 8371OM     OM1 8371   6.250   5.948   8.374  0.0000  0.0000  0.0000
 8372OM     OM1 8372   7.063   9.238   8.396  0.0000  0.0000  0.0000
 8373OM     OM1 8373   3.828   1.133   1.270  0.0000  0.0000  0.0000
 8374OM     OM1 8374   6.491   7.122   0.954  0.0000  0.0000  0.0000
 8375OM     OM1 8375   6.326   7.238   1.116  0.0000  0.0000  0.0000
 8376OM     OM1 8376   9.460   0.078   1.003  0.0000  0.0000  0.0000
 8377OM     OM1 8377   9.125   0.384   0.947  0.0000  0.0000  0.0000
 8378OM     OM1 8378   8.411   2.973   9.200  0.0000  0.0000  0.0000
 8379OM     OM1 8379   3.317   2.695   0.206  0.0000  0.0000  0.0000
 8380OM     OM1 8380   3.279   2.580   9.585  0.0000  0.0000  0.0000
 8381OM     OM1 8381   5.915   5.411   8.474  0.0000  0.0000  0.0000
 8382OM     OM1 8382   1.266   7.746   9.398  0.0000  0.0000  0.0000
 8383OM     OM1 8383   1.270   7.529   9.533  0.0000  0.0000  0.0000
 8384OM     OM1 8384   6.352   1.324   8.692  0.0000  0.0000  0.0000
 8385OM     OM1 8385   7.236   1.259   0.994  0.0000  0.0000  0.0000
 8386OM     OM1 8386   5.745   8.080   0.268  0.0000  0.0000  0.0000
 8387OM     OM1 8387   5.619   8.044   0.054  0.0000  0.0000  0.0000
 8388OM     OM1 8388   5.530   7.926   0.273  0.0000  0.0000  0.0000
 8389OM     OM1 8389   9.543   9.584   8.462  0.0000  0.0000  0.0000
 8390OM     OM1 8390   7.925   9.241   8.782  0.0000  0.0000  0.0000
 8391OM     OM1 8391   8.114   9.154   8.614  0.0000  0.0000  0.0000
 8392OM     OM1 8392   6.173   7.557   8.921  0.0000  0.0000  0.0000
 8393OM     OM1 8393   6.044   7.771   8.842  0.0000  0.0000  0.0000
 8394OM     OM1 8394   8.293   2.557   9.528  0.0000  0.0000  0.0000
 8395OM     OM1 8395   8.453   2.478   0.116  0.0000  0.0000  0.0000
 8396OM     OM1 8396   8.462   2.349   9.489  0.0000  0.0000  0.0000
 8397OM     OM1 8397   6.734   2.467   0.800  0.0000  0.0000  0.0000
 8398OM     OM1 8398   6.764   2.427   1.068  0.0000  0.0000  0.0000
 8399OM     OM1 8399   7.312   6.452   8.938  0.0000  0.0000  0.0000
 8400OM     OM1 8400   7.189   6.668   9.010  0.0000  0.0000  0.0000
 8401OM     OM1 8401   6.684   3.550   8.758  0.0000  0.0000  0.0000
 8402OM     OM1 8402   6.496   3.477   8.600  0.0000  0.0000  0.0000
 8403OM     OM1 8403   0.875   0.460   0.087  0.0000  0.0000  0.0000
 8404OM     OM1 8404   8.340   9.289   1.228  0.0000  0.0000  0.0000
 8405OM     OM1 8405   8.256   9.437   1.423  0.0000  0.0000  0.0000
 8406OM     OM1 8406   4.458   8.070   1.132  0.0000  0.0000  0.0000
 8407OM     OM1 8407   4.284   7.913   1.224  0.0000  0.0000  0.0000
 8408OM     OM1 8408   7.543   6.648   9.523  0.0000  0.0000  0.0000
 8409OM     OM1 8409   7.735   6.818   9.595  0.0000  0.0000  0.0000
 8410OM     OM1 8410   7.771   6.585   9.449  0.0000  0.0000  0.0000
 8411OM     OM1 8411   4.499   3.486   0.343  0.0000  0.0000  0.0000
 8412OM     OM1 8412   0.022   7.897   1.334  0.0000  0.0000  0.0000
 8413OM     OM1 8413   9.431   8.375   1.273  0.0000  0.0000  0.0000
 8414OM     OM1 8414   9.425   8.245   1.051  0.0000  0.0000  0.0000
 8415OM     OM1 8415   1.988   5.523   8.577  0.0000  0.0000  0.0000
 8416OM     OM1 8416   2.214   5.612   8.663  0.0000  0.0000  0.0000
 8417OM     OM1 8417   2.139   5.357   8.701  0.0000  0.0000  0.0000
 8418OM     OM1 8418   1.300   7.037   8.583  0.0000  0.0000  0.0000
 8419OM     OM1 8419   1.139   6.904   8.747  0.0000  0.0000  0.0000
 8420OM     OM1 8420   1.054   7.116   8.611  0.0000  0.0000  0.0000
 8421OM     OM1 8421   4.285   9.370   0.455  0.0000  0.0000  0.0000
 8422OM     OM1 8422   3.888   0.104   0.465  0.0000  0.0000  0.0000
 8423OM     OM1 8423   8.734   9.015   0.243  0.0000  0.0000  0.0000
 8424OM     OM1 8424   8.760   8.844   0.042  0.0000  0.0000  0.0000
 8425OM     OM1 8425   8.535   8.970   0.069  0.0000  0.0000  0.0000
 8426OM     OM1 8426   1.396   3.943   1.248  0.0000  0.0000  0.0000
 8427OM     OM1 8427   1.374   4.155   1.099  0.0000  0.0000  0.0000
 8428OM     OM1 8428   1.296   3.929   0.997  0.0000  0.0000  0.0000
 8429OM     OM1 8429   5.302   9.051   8.448  0.0000  0.0000  0.0000
 8430OM     OM1 8430   5.202   9.378   8.584  0.0000  0.0000  0.0000
 8431OM     OM1 8431   5.411   9.281   8.451  0.0000  0.0000  0.0000
 8432OM     OM1 8432   1.886   7.201   0.774  0.0000  0.0000  0.0000
 8433OM     OM1 8433   1.938   7.421   0.630  0.0000  0.0000  0.0000
 8434OM     OM1 8434   2.817   3.210   0.350  0.0000  0.0000  0.0000
 8435OM     OM1 8435   2.884   2.973   0.248  0.0000  0.0000  0.0000
 8436OM     OM1 8436   3.006   3.118   0.480  0.0000  0.0000  0.0000
 8437OM     OM1 8437   7.291   8.045   0.834  0.0000  0.0000  0.0000
 8438OM     OM1 8438   7.168   8.266   1.290  0.0000  0.0000  0.0000
 8439OM     OM1 8439   7.220   8.145   1.066  0.0000  0.0000  0.0000
 8440OM     OM1 8440   1.242   9.002   0.752  0.0000  0.0000  0.0000
 8441OM     OM1 8441   1.439   8.839   0.750  0.0000  0.0000  0.0000
 8442OM     OM1 8442   6.170   8.171   9.312  0.0000  0.0000  0.0000
 8443OM     OM1 8443   1.210   3.965   0.217  0.0000  0.0000  0.0000
 8444OM     OM1 8444   1.938   8.973   1.296  0.0000  0.0000  0.0000
 8445OM     OM1 8445   5.789   7.656   0.364  0.0000  0.0000  0.0000
 8446OM     OM1 8446   5.946   7.499   0.229  0.0000  0.0000  0.0000
 8447OM     OM1 8447   6.041   7.722   0.331  0.0000  0.0000  0.0000
 8448OM     OM1 8448   8.546   9.044   0.687  0.0000  0.0000  0.0000
 8449OM     OM1 8449   8.359   9.244   0.743  0.0000  0.0000  0.0000
 8450OM     OM1 8450   8.366   9.515   0.777  0.0000  0.0000  0.0000
 8451OM     OM1 8451   5.719   2.227   9.019  0.0000  0.0000  0.0000
 8452OM     OM1 8452   5.964   2.305   9.059  0.0000  0.0000  0.0000
 8453OM     OM1 8453   5.785   2.394   9.216  0.0000  0.0000  0.0000
 8454OM     OM1 8454   5.773   2.395   8.833  0.0000  0.0000  0.0000
 8455OM     OM1 8455   3.445   6.928   9.062  0.0000  0.0000  0.0000
 8456OM     OM1 8456   5.189   6.782   8.830  0.0000  0.0000  0.0000
 8457OM     OM1 8457   0.687   0.665   0.411  0.0000  0.0000  0.0000
 8458OM     OM1 8458   0.562   0.656   0.632  0.0000  0.0000  0.0000
 8459OM     OM1 8459   3.269   0.345   1.259  0.0000  0.0000  0.0000
 8460OM     OM1 8460   2.578   9.520   0.793  0.0000  0.0000  0.0000
 8461OM     OM1 8461   2.577   9.268   0.690  0.0000  0.0000  0.0000
 8462OM     OM1 8462   3.928   0.962   9.350  0.0000  0.0000  0.0000
 8463OM     OM1 8463   3.871   1.199   9.428  0.0000  0.0000  0.0000
 8464OM     OM1 8464   4.104   1.069   9.488  0.0000  0.0000  0.0000
 8465OM     OM1 8465   9.315   4.540   9.286  0.0000  0.0000  0.0000
 8466OM     OM1 8466   9.351   4.281   9.276  0.0000  0.0000  0.0000
 8467OM     OM1 8467   7.697   8.107   0.649  0.0000  0.0000  0.0000
 8468OM     OM1 8468   1.917   7.676   0.679  0.0000  0.0000  0.0000
 8469OM     OM1 8469   1.788   7.568   0.872  0.0000  0.0000  0.0000
 8470OM     OM1 8470   1.782   7.820   0.875  0.0000  0.0000  0.0000
 8471OM     OM1 8471   2.013   7.703   0.918  0.0000  0.0000  0.0000
 8472OM     OM1 8472   4.719   4.584   8.778  0.0000  0.0000  0.0000
 8473OM     OM1 8473   2.483   9.091   8.446  0.0000  0.0000  0.0000
 8474OM     OM1 8474   2.608   8.896   8.526  0.0000  0.0000  0.0000
 8475OM     OM1 8475   3.636   3.300   8.471  0.0000  0.0000  0.0000
 8476OM     OM1 8476   6.715   1.663   0.209  0.0000  0.0000  0.0000
 8477OM     OM1 8477   6.704   1.669   0.464  0.0000  0.0000  0.0000
 8478OM     OM1 8478   0.957   2.126   9.227  0.0000  0.0000  0.0000
 8479OM     OM1 8479   1.012   1.946   9.040  0.0000  0.0000  0.0000
 8480OM     OM1 8480   0.766   2.004   9.088  0.0000  0.0000  0.0000
 8481OM     OM1 8481   7.515   0.139   0.931  0.0000  0.0000  0.0000
 8482OM     OM1 8482   7.468   0.350   1.081  0.0000  0.0000  0.0000
 8483OM     OM1 8483   5.448   9.581   1.087  0.0000  0.0000  0.0000
 8484OM     OM1 8484   1.252   6.254   9.162  0.0000  0.0000  0.0000
 8485OM     OM1 8485   1.472   6.391   9.188  0.0000  0.0000  0.0000
 8486OM     OM1 8486   6.499   7.888   0.356  0.0000  0.0000  0.0000
 8487OM     OM1 8487   6.251   7.867   0.286  0.0000  0.0000  0.0000
 8488OM     OM1 8488   6.436   7.731   0.161  0.0000  0.0000  0.0000
 8489OM     OM1 8489   3.886   8.498   1.055  0.0000  0.0000  0.0000
 8490OM     OM1 8490   4.143   8.523   0.984  0.0000  0.0000  0.0000
 8491OM     OM1 8491   4.021   8.311   0.920  0.0000  0.0000  0.0000
 8492OM     OM1 8492   3.726   7.545   8.511  0.0000  0.0000  0.0000
 8493OM     OM1 8493   7.004   0.660   8.351  0.0000  0.0000  0.0000
 8494OM     OM1 8494   7.268   0.624   8.304  0.0000  0.0000  0.0000
 8495OM     OM1 8495   0.366   3.734   0.088  0.0000  0.0000  0.0000
 8496OM     OM1 8496   0.613   3.682   0.103  0.0000  0.0000  0.0000
 8497OM     OM1 8497   7.345   7.671   1.237  0.0000  0.0000  0.0000
 8498OM     OM1 8498   7.244   7.186   1.173  0.0000  0.0000  0.0000
 8499OM     OM1 8499   7.142   7.660   1.083  0.0000  0.0000  0.0000
 8500OM     OM1 8500   7.292   7.451   1.107  0.0000  0.0000  0.0000
 8501OM     OM1 8501   2.518   5.174   1.269  0.0000  0.0000  0.0000
 8502OM     OM1 8502   4.211   7.288   9.358  0.0000  0.0000  0.0000
 8503OM     OM1 8503   4.369   7.492   9.338  0.0000  0.0000  0.0000
 8504OM     OM1 8504   4.462   7.252   9.361  0.0000  0.0000  0.0000
 8505OM     OM1 8505   3.317   0.880   8.863  0.0000  0.0000  0.0000
 8506OM     OM1 8506   3.163   1.086   8.868  0.0000  0.0000  0.0000
 8507OM     OM1 8507   0.644   7.229   0.691  0.0000  0.0000  0.0000
 8508OM     OM1 8508   8.655   6.005   0.633  0.0000  0.0000  0.0000
 8509OM     OM1 8509   8.706   5.965   0.890  0.0000  0.0000  0.0000
 8510OM     OM1 8510   8.897   5.976   0.715  0.0000  0.0000  0.0000
 8511OM     OM1 8511   8.961   7.016   1.220  0.0000  0.0000  0.0000
 8512OM     OM1 8512   9.183   7.124   1.144  0.0000  0.0000  0.0000
 8513OM     OM1 8513   2.737   8.424   9.334  0.0000  0.0000  0.0000
 8514OM     OM1 8514   1.236   8.374   0.325  0.0000  0.0000  0.0000
 8515OM     OM1 8515   1.303   8.622   0.288  0.0000  0.0000  0.0000
 8516OM     OM1 8516   1.118   8.511   0.137  0.0000  0.0000  0.0000
 8517OM     OM1 8517   9.469   1.622   9.369  0.0000  0.0000  0.0000
 8518OM     OM1 8518   1.897   2.495   1.161  0.0000  0.0000  0.0000
 8519OM     OM1 8519   5.528   7.669   0.345  0.0000  0.0000  0.0000
 8520OM     OM1 8520   8.267   5.318   8.125  0.0000  0.0000  0.0000
 8521OM     OM1 8521   0.462   2.980   8.877  0.0000  0.0000  0.0000
 8522OM     OM1 8522   0.256   3.116   8.979  0.0000  0.0000  0.0000
 8523OM     OM1 8523   6.183   1.513   8.657  0.0000  0.0000  0.0000
 8524OM     OM1 8524   6.082   1.743   8.740  0.0000  0.0000  0.0000
 8525OM     OM1 8525   6.018   0.618   0.434  0.0000  0.0000  0.0000
 8526OM     OM1 8526   6.259   0.510   0.479  0.0000  0.0000  0.0000
 8527OM     OM1 8527   6.125   0.606   0.679  0.0000  0.0000  0.0000
 8528OM     OM1 8528   6.847   1.501   0.044  0.0000  0.0000  0.0000
 8529OM     OM1 8529   6.942   1.262   0.037  0.0000  0.0000  0.0000
 8530OM     OM1 8530   8.984   5.716   8.709  0.0000  0.0000  0.0000
 8531OM     OM1 8531   9.230   5.645   8.736  0.0000  0.0000  0.0000
 8532OM     OM1 8532   2.984   2.284   9.404  0.0000  0.0000  0.0000
 8533OM     OM1 8533   2.810   2.231   9.596  0.0000  0.0000  0.0000
 8534OM     OM1 8534   3.017   2.076   9.572  0.0000  0.0000  0.0000
 8535OM     OM1 8535   3.732   8.749   8.748  0.0000  0.0000  0.0000
 8536OM     OM1 8536   3.555   8.554   8.740  0.0000  0.0000  0.0000
 8537OM     OM1 8537   3.616   8.660   8.966  0.0000  0.0000  0.0000
 8538OM     OM1 8538   3.025   1.038   9.092  0.0000  0.0000  0.0000
 8539OM     OM1 8539   2.906   1.018   8.863  0.0000  0.0000  0.0000
 8540OM     OM1 8540   0.634   7.352   8.968  0.0000  0.0000  0.0000
 8541OM     OM1 8541   0.503   7.150   9.082  0.0000  0.0000  0.0000
 8542OM     OM1 8542   0.681   7.101   8.905  0.0000  0.0000  0.0000
 8543OM     OM1 8543   6.162   6.822   8.843  0.0000  0.0000  0.0000
 8544OM     OM1 8544   6.247   7.049   8.940  0.0000  0.0000  0.0000
 8545OM     OM1 8545   6.104   7.040   8.721  0.0000  0.0000  0.0000
 8546OM     OM1 8546   5.270   9.545   0.203  0.0000  0.0000  0.0000
 8547OM     OM1 8547   8.488   9.424   8.841  0.0000  0.0000  0.0000
 8548OM     OM1 8548   8.359   9.407   9.061  0.0000  0.0000  0.0000
 8549OM     OM1 8549   8.500   0.021   9.012  0.0000  0.0000  0.0000
 8550OM     OM1 8550   0.954   4.561   1.282  0.0000  0.0000  0.0000
 8551OM     OM1 8551   2.651   2.416   9.217  0.0000  0.0000  0.0000
 8552OM     OM1 8552   2.436   2.354   9.076  0.0000  0.0000  0.0000
 8553OM     OM1 8553   2.592   2.157   9.151  0.0000  0.0000  0.0000
 8554OM     OM1 8554   2.363   3.616   1.056  0.0000  0.0000  0.0000
 8555OM     OM1 8555   2.194   3.440   0.974  0.0000  0.0000  0.0000
 8556OM     OM1 8556   3.741   7.947   9.054  0.0000  0.0000  0.0000
 8557OM     OM1 8557   3.873   8.164   9.093  0.0000  0.0000  0.0000
 8558OM     OM1 8558   5.363   2.621   0.817  0.0000  0.0000  0.0000
 8559OM     OM1 8559   5.574   2.772   0.870  0.0000  0.0000  0.0000
 8560OM     OM1 8560   9.288   3.711   0.088  0.0000  0.0000  0.0000
 8561OM     OM1 8561   9.051   3.810   0.109  0.0000  0.0000  0.0000
 8562OM     OM1 8562   0.180   1.586   1.162  0.0000  0.0000  0.0000
 8563OM     OM1 8563   9.205   8.199   0.908  0.0000  0.0000  0.0000
 8564OM     OM1 8564   6.544   2.375   1.164  0.0000  0.0000  0.0000
 8565OM     OM1 8565   6.460   2.583   1.018  0.0000  0.0000  0.0000
 8566OM     OM1 8566   3.308   4.736   0.490  0.0000  0.0000  0.0000
 8567OM     OM1 8567   5.593   5.172   9.475  0.0000  0.0000  0.0000
 8568OM     OM1 8568   7.145   3.413   8.550  0.0000  0.0000  0.0000
 8569OM     OM1 8569   7.170   3.244   8.360  0.0000  0.0000  0.0000
 8570OM     OM1 8570   3.162   6.376   1.034  0.0000  0.0000  0.0000
 8571OM     OM1 8571   3.042   6.153   1.069  0.0000  0.0000  0.0000
 8572OM     OM1 8572   3.298   6.172   0.989  0.0000  0.0000  0.0000
 8573OM     OM1 8573   6.838   8.887   1.195  0.0000  0.0000  0.0000
 8574OM     OM1 8574   6.651   9.000   1.051  0.0000  0.0000  0.0000
 8575OM     OM1 8575   0.597   8.330   0.073  0.0000  0.0000  0.0000
 8576OM     OM1 8576   4.956   7.469   0.160  0.0000  0.0000  0.0000
 8577OM     OM1 8577   4.838   7.344   9.556  0.0000  0.0000  0.0000
 8578OM     OM1 8578   4.844   7.602   9.575  0.0000  0.0000  0.0000
 8579OM     OM1 8579   4.698   7.475   0.142  0.0000  0.0000  0.0000
 8580OM     OM1 8580   4.014   5.501   9.049  0.0000  0.0000  0.0000
 8581OM     OM1 8581   3.995   5.731   9.154  0.0000  0.0000  0.0000
 8582OM     OM1 8582   8.200   5.797   0.951  0.0000  0.0000  0.0000
 8583OM     OM1 8583   6.608   9.008   0.786  0.0000  0.0000  0.0000
 8584OM     OM1 8584   6.493   8.847   0.621  0.0000  0.0000  0.0000
 8585OM     OM1 8585   6.761   8.893   0.614  0.0000  0.0000  0.0000
 8586OM     OM1 8586   4.340   0.921   9.087  0.0000  0.0000  0.0000
 8587OM     OM1 8587   4.123   0.849   9.199  0.0000  0.0000  0.0000
 8588OM     OM1 8588   6.071   5.233   1.143  0.0000  0.0000  0.0000
 8589OM     OM1 8589   6.031   5.052   0.966  0.0000  0.0000  0.0000
 8590OM     OM1 8590   4.680   3.845   8.794  0.0000  0.0000  0.0000
 8591OM     OM1 8591   4.500   3.660   8.796  0.0000  0.0000  0.0000
 8592OM     OM1 8592   4.733   3.608   8.693  0.0000  0.0000  0.0000
 8593OM     OM1 8593   9.350   1.408   0.707  0.0000  0.0000  0.0000
 8594OM     OM1 8594   0.016   1.719   0.456  0.0000  0.0000  0.0000
 8595OM     OM1 8595   9.498   1.725   0.673  0.0000  0.0000  0.0000
 8596OM     OM1 8596   8.406   2.444   8.653  0.0000  0.0000  0.0000
 8597OM     OM1 8597   8.641   2.450   8.774  0.0000  0.0000  0.0000
 8598OM     OM1 8598   8.607   2.290   8.579  0.0000  0.0000  0.0000
 8599OM     OM1 8599   0.648   6.552   0.929  0.0000  0.0000  0.0000
 8600OM     OM1 8600   0.540   6.782   0.859  0.0000  0.0000  0.0000
 8601OM     OM1 8601   0.564   6.719   1.113  0.0000  0.0000  0.0000
 8602OM     OM1 8602   0.156   8.152   9.518  0.0000  0.0000  0.0000
 8603OM     OM1 8603   9.542   8.084   0.023  0.0000  0.0000  0.0000
 8604OM     OM1 8604   2.468   4.665   9.222  0.0000  0.0000  0.0000
 8605OM     OM1 8605   8.816   2.521   0.393  0.0000  0.0000  0.0000
 8606OM     OM1 8606   8.948   2.492   0.617  0.0000  0.0000  0.0000
 8607OM     OM1 8607   8.781   2.306   0.559  0.0000  0.0000  0.0000
 8608OM     OM1 8608   8.700   2.553   0.612  0.0000  0.0000  0.0000
 8609OM     OM1 8609   1.844   0.932   8.780  0.0000  0.0000  0.0000
 8610OM     OM1 8610   8.603   0.168   0.210  0.0000  0.0000  0.0000
 8611OM     OM1 8611   8.381   0.044   0.116  0.0000  0.0000  0.0000
 8612OM     OM1 8612   8.209   0.043   0.354  0.0000  0.0000  0.0000
 8613OM     OM1 8613   7.893   9.454   0.030  0.0000  0.0000  0.0000
 8614OM     OM1 8614   8.147   9.500   0.069  0.0000  0.0000  0.0000
 8615OM     OM1 8615   1.460   4.886   9.572  0.0000  0.0000  0.0000
 8616OM     OM1 8616   1.544   5.103   0.082  0.0000  0.0000  0.0000
 8617OM     OM1 8617   1.780   5.048   1.358  0.0000  0.0000  0.0000
 8618OM     OM1 8618   1.943   5.228   1.274  0.0000  0.0000  0.0000
 8619OM     OM1 8619   1.965   3.482   1.109  0.0000  0.0000  0.0000
 8620OM     OM1 8620   2.016   3.255   0.984  0.0000  0.0000  0.0000
 8621OM     OM1 8621   9.273   3.262   8.327  0.0000  0.0000  0.0000
 8622OM     OM1 8622   5.547   4.222   8.905  0.0000  0.0000  0.0000
 8623OM     OM1 8623   5.861   4.273   9.068  0.0000  0.0000  0.0000
 8624OM     OM1 8624   5.762   4.464   9.224  0.0000  0.0000  0.0000
 8625OM     OM1 8625   0.539   4.959   9.499  0.0000  0.0000  0.0000
 8626OM     OM1 8626   6.491   1.637   9.445  0.0000  0.0000  0.0000
 8627OM     OM1 8627   6.578   1.886   9.433  0.0000  0.0000  0.0000
 8628OM     OM1 8628   6.714   1.698   9.558  0.0000  0.0000  0.0000
 8629OM     OM1 8629   6.701   1.708   9.298  0.0000  0.0000  0.0000
 8630OM     OM1 8630   7.196   9.276   1.071  0.0000  0.0000  0.0000
 8631OM     OM1 8631   0.162   6.245   8.982  0.0000  0.0000  0.0000
 8632OM     OM1 8632   0.313   6.199   9.185  0.0000  0.0000  0.0000
 8633OM     OM1 8633   0.286   6.024   8.992  0.0000  0.0000  0.0000
 8634OM     OM1 8634   3.594   1.888   1.348  0.0000  0.0000  0.0000
 8635OM     OM1 8635   3.443   2.085   1.402  0.0000  0.0000  0.0000
 8636OM     OM1 8636   3.561   2.087   1.170  0.0000  0.0000  0.0000
 8637OM     OM1 8637   8.559   7.295   8.723  0.0000  0.0000  0.0000
 8638OM     OM1 8638   8.514   7.200   8.956  0.0000  0.0000  0.0000
 8639OM     OM1 8639   8.314   7.256   8.795  0.0000  0.0000  0.0000
 8640OM     OM1 8640   2.283   8.156   9.443  0.0000  0.0000  0.0000
 8641OM     OM1 8641   5.640   5.628   9.118  0.0000  0.0000  0.0000
 8642OM     OM1 8642   5.719   5.530   9.343  0.0000  0.0000  0.0000
 8643OM     OM1 8643   4.282   1.641   9.349  0.0000  0.0000  0.0000
 8644OM     OM1 8644   4.322   1.475   9.551  0.0000  0.0000  0.0000
 8645OM     OM1 8645   2.310   1.305   1.003  0.0000  0.0000  0.0000
 8646OM     OM1 8646   2.492   1.201   0.860  0.0000  0.0000  0.0000
 8647OM     OM1 8647   0.705   1.365   8.381  0.0000  0.0000  0.0000
 8648OM     OM1 8648   0.734   1.123   8.332  0.0000  0.0000  0.0000
 8649OM     OM1 8649   0.050   5.897   0.334  0.0000  0.0000  0.0000
 8650OM     OM1 8650   0.035   5.888   0.074  0.0000  0.0000  0.0000
 8651OM     OM1 8651   7.257   2.592   0.372  0.0000  0.0000  0.0000
 8652OM     OM1 8652   5.891   8.290   0.226  0.0000  0.0000  0.0000
 8653OM     OM1 8653   1.597   8.092   0.659  0.0000  0.0000  0.0000
 8654OM     OM1 8654   1.668   8.264   0.485  0.0000  0.0000  0.0000
 8655OM     OM1 8655   4.359   3.857   0.627  0.0000  0.0000  0.0000
 8656OM     OM1 8656   4.424   3.708   0.835  0.0000  0.0000  0.0000
 8657OM     OM1 8657   7.800   2.599   8.389  0.0000  0.0000  0.0000
 8658OM     OM1 8658   7.856   2.852   8.316  0.0000  0.0000  0.0000
 8659OM     OM1 8659   4.375   2.103   8.711  0.0000  0.0000  0.0000
 8660OM     OM1 8660   1.027   3.135   9.083  0.0000  0.0000  0.0000
 8661OM     OM1 8661   1.044   3.221   9.337  0.0000  0.0000  0.0000
 8662OM     OM1 8662   1.773   5.395   8.668  0.0000  0.0000  0.0000
 8663OM     OM1 8663   1.542   5.384   8.783  0.0000  0.0000  0.0000
 8664OM     OM1 8664   1.605   5.181   8.643  0.0000  0.0000  0.0000
 8665OM     OM1 8665   1.551   5.398   8.521  0.0000  0.0000  0.0000
 8666OM     OM1 8666   5.543   3.281   9.024  0.0000  0.0000  0.0000
 8667OM     OM1 8667   5.295   3.188   9.128  0.0000  0.0000  0.0000
 8668OM     OM1 8668   5.349   3.194   8.666  0.0000  0.0000  0.0000
 8669OM     OM1 8669   2.921   0.217   9.431  0.0000  0.0000  0.0000
 8670OM     OM1 8670   9.424   4.643   9.001  0.0000  0.0000  0.0000
 8671OM     OM1 8671   9.481   4.734   8.768  0.0000  0.0000  0.0000
 8672OM     OM1 8672   5.019   2.926   8.469  0.0000  0.0000  0.0000
 8673OM     OM1 8673   1.634   2.277   8.747  0.0000  0.0000  0.0000
 8674OM     OM1 8674   1.830   2.409   8.846  0.0000  0.0000  0.0000
 8675OM     OM1 8675   3.241   3.688   0.741  0.0000  0.0000  0.0000
 8676OM     OM1 8676   3.050   3.663   0.571  0.0000  0.0000  0.0000
 8677OM     OM1 8677   2.965   3.714   0.801  0.0000  0.0000  0.0000
 8678OM     OM1 8678   0.250   1.697   0.336  0.0000  0.0000  0.0000
 8679OM     OM1 8679   5.298   6.833   0.584  0.0000  0.0000  0.0000
 8680OM     OM1 8680   5.087   6.966   0.475  0.0000  0.0000  0.0000
 8681OM     OM1 8681   1.292   2.806   9.404  0.0000  0.0000  0.0000
 8682OM     OM1 8682   1.263   2.605   9.556  0.0000  0.0000  0.0000
 8683OM     OM1 8683   1.236   2.578   9.305  0.0000  0.0000  0.0000
 8684OM     OM1 8684   1.046   2.705   9.418  0.0000  0.0000  0.0000
 8685OM     OM1 8685   0.151   2.150   0.125  0.0000  0.0000  0.0000
 8686OM     OM1 8686   1.618   7.900   8.744  0.0000  0.0000  0.0000
 8687OM     OM1 8687   1.787   7.974   8.931  0.0000  0.0000  0.0000
 8688OM     OM1 8688   3.211   6.670   0.126  0.0000  0.0000  0.0000
 8689OM     OM1 8689   3.255   6.427   0.036  0.0000  0.0000  0.0000
 8690OM     OM1 8690   5.654   8.032   9.403  0.0000  0.0000  0.0000
 8691OM     OM1 8691   9.059   2.675   0.480  0.0000  0.0000  0.0000
 8692OM     OM1 8692   9.016   2.913   0.418  0.0000  0.0000  0.0000
 8693OM     OM1 8693   8.920   2.716   0.268  0.0000  0.0000  0.0000
 8694OM     OM1 8694   9.167   2.777   0.253  0.0000  0.0000  0.0000
 8695OM     OM1 8695   5.043   0.639   0.385  0.0000  0.0000  0.0000
 8696OM     OM1 8696   8.132   7.887   8.813  0.0000  0.0000  0.0000
 8697OM     OM1 8697   0.622   5.648   8.775  0.0000  0.0000  0.0000
 8698OM     OM1 8698   8.612   1.316   0.406  0.0000  0.0000  0.0000
 8699OM     OM1 8699   8.772   1.363   0.214  0.0000  0.0000  0.0000
 8700OM     OM1 8700   7.302   9.078   1.202  0.0000  0.0000  0.0000
 8701OM     OM1 8701   7.107   8.911   1.218  0.0000  0.0000  0.0000
 8702OM     OM1 8702   7.530   7.427   0.530  0.0000  0.0000  0.0000
 8703OM     OM1 8703   7.342   7.610   0.483  0.0000  0.0000  0.0000
 8704OM     OM1 8704   5.966   1.109   0.312  0.0000  0.0000  0.0000
 8705OM     OM1 8705   5.931   1.351   0.226  0.0000  0.0000  0.0000
 8706OM     OM1 8706   4.714   7.269   9.330  0.0000  0.0000  0.0000
 8707OM     OM1 8707   7.935   6.455   8.484  0.0000  0.0000  0.0000
 8708OM     OM1 8708   7.919   6.679   8.602  0.0000  0.0000  0.0000
 8709OM     OM1 8709   7.866   6.673   8.343  0.0000  0.0000  0.0000
 8710OM     OM1 8710   9.516   0.867   8.970  0.0000  0.0000  0.0000
 8711OM     OM1 8711   0.052   0.709   8.822  0.0000  0.0000  0.0000
 8712OM     OM1 8712   6.388   3.998   0.239  0.0000  0.0000  0.0000
 8713OM     OM1 8713   0.636   4.642   1.160  0.0000  0.0000  0.0000
 8714OM     OM1 8714   0.501   4.836   1.046  0.0000  0.0000  0.0000
 8715OM     OM1 8715   2.241   4.123   1.073  0.0000  0.0000  0.0000
 8716OM     OM1 8716   5.129   8.500   9.212  0.0000  0.0000  0.0000
 8717OM     OM1 8717   4.871   8.467   9.247  0.0000  0.0000  0.0000
 8718OM     OM1 8718   4.972   8.696   9.148  0.0000  0.0000  0.0000
 8719OM     OM1 8719   3.745   4.242   0.124  0.0000  0.0000  0.0000
 8720OM     OM1 8720   3.741   4.500   0.123  0.0000  0.0000  0.0000
 8721OM     OM1 8721   1.341   6.388   0.555  0.0000  0.0000  0.0000
 8722OM     OM1 8722   1.308   6.187   0.409  0.0000  0.0000  0.0000
 8723OM     OM1 8723   8.920   7.484   0.965  0.0000  0.0000  0.0000
 8724OM     OM1 8724   8.807   7.706   0.912  0.0000  0.0000  0.0000
 8725OM     OM1 8725   8.909   7.676   1.150  0.0000  0.0000  0.0000
 8726OM     OM1 8726   4.642   9.102   9.504  0.0000  0.0000  0.0000
 8727OM     OM1 8727   4.473   8.962   9.348  0.0000  0.0000  0.0000
 8728OM     OM1 8728   9.285   4.281   0.437  0.0000  0.0000  0.0000
 8729OM     OM1 8729   9.502   4.175   0.348  0.0000  0.0000  0.0000
 8730OM     OM1 8730   9.330   4.051   0.519  0.0000  0.0000  0.0000
 8731OM     OM1 8731   0.435   8.696   8.446  0.0000  0.0000  0.0000
 8732OM     OM1 8732   0.355   8.463   8.528  0.0000  0.0000  0.0000
 8733OM     OM1 8733   5.165   2.116   9.327  0.0000  0.0000  0.0000
 8734OM     OM1 8734   7.804   8.930   0.666  0.0000  0.0000  0.0000
 8735OM     OM1 8735   7.773   9.184   0.967  0.0000  0.0000  0.0000
 8736OM     OM1 8736   4.732   7.645   0.337  0.0000  0.0000  0.0000
 8737OM     OM1 8737   6.208   9.197   9.267  0.0000  0.0000  0.0000
 8738OM     OM1 8738   6.477   3.442   0.543  0.0000  0.0000  0.0000
 8739OM     OM1 8739   6.678   3.286   0.594  0.0000  0.0000  0.0000
 8740OM     OM1 8740   6.550   3.417   0.787  0.0000  0.0000  0.0000
 8741OM     OM1 8741   8.282   5.156   0.602  0.0000  0.0000  0.0000
 8742OM     OM1 8742   2.399   3.693   9.469  0.0000  0.0000  0.0000
 8743OM     OM1 8743   2.590   3.763   9.303  0.0000  0.0000  0.0000
 8744OM     OM1 8744   1.898   5.586   0.365  0.0000  0.0000  0.0000
 8745OM     OM1 8745   1.978   5.410   0.541  0.0000  0.0000  0.0000
 8746OM     OM1 8746   1.049   6.776   8.964  0.0000  0.0000  0.0000
 8747OM     OM1 8747   0.803   1.150   0.527  0.0000  0.0000  0.0000
 8748OM     OM1 8748   0.572   1.073   0.448  0.0000  0.0000  0.0000
 8749OM     OM1 8749   0.642   1.073   0.712  0.0000  0.0000  0.0000
 8750OM     OM1 8750   1.945   2.724   9.421  0.0000  0.0000  0.0000
 8751OM     OM1 8751   0.688   1.114   0.215  0.0000  0.0000  0.0000
 8752OM     OM1 8752   0.139   9.145   9.489  0.0000  0.0000  0.0000
 8753OM     OM1 8753   9.508   9.179   9.365  0.0000  0.0000  0.0000
 8754OM     OM1 8754   3.506   4.407   9.280  0.0000  0.0000  0.0000
 8755OM     OM1 8755   3.615   4.510   9.068  0.0000  0.0000  0.0000
 8756OM     OM1 8756   3.644   4.632   9.300  0.0000  0.0000  0.0000
 8757OM     OM1 8757   0.266   8.988   0.040  0.0000  0.0000  0.0000
 8758OM     OM1 8758   2.715   0.364   9.485  0.0000  0.0000  0.0000
 8759OM     OM1 8759   2.741   0.631   9.517  0.0000  0.0000  0.0000
 8760OM     OM1 8760   3.452   5.550   8.202  0.0000  0.0000  0.0000
 8761OM     OM1 8761   3.324   5.366   8.324  0.0000  0.0000  0.0000
 8762OM     OM1 8762   2.454   4.128   0.621  0.0000  0.0000  0.0000
 8763OM     OM1 8763   5.891   7.184   8.708  0.0000  0.0000  0.0000
 8764OM     OM1 8764   0.930   6.248   0.670  0.0000  0.0000  0.0000
 8765OM     OM1 8765   1.188   6.165   0.719  0.0000  0.0000  0.0000
 8766OM     OM1 8766   1.293   2.541   0.566  0.0000  0.0000  0.0000
 8767OM     OM1 8767   1.295   2.281   0.590  0.0000  0.0000  0.0000
 8768OM     OM1 8768   0.364   8.629   9.039  0.0000  0.0000  0.0000
 8769OM     OM1 8769   0.591   8.688   9.162  0.0000  0.0000  0.0000
 8770OM     OM1 8770   5.018   5.789   9.561  0.0000  0.0000  0.0000
 8771OM     OM1 8771   5.031   5.754   0.223  0.0000  0.0000  0.0000
 8772OM     OM1 8772   0.746   6.127   0.505  0.0000  0.0000  0.0000
 8773OM     OM1 8773   4.661   7.280   0.928  0.0000  0.0000  0.0000
 8774OM     OM1 8774   4.439   7.148   0.870  0.0000  0.0000  0.0000
 8775OM     OM1 8775   8.532   6.365   0.095  0.0000  0.0000  0.0000
 8776OM     OM1 8776   8.445   6.119   0.034  0.0000  0.0000  0.0000
 8777OM     OM1 8777   2.418   5.007   1.086  0.0000  0.0000  0.0000
 8778OM     OM1 8778   7.929   3.382   0.802  0.0000  0.0000  0.0000
 8779OM     OM1 8779   7.955   3.493   0.571  0.0000  0.0000  0.0000
 8780OM     OM1 8780   8.875   3.993   0.756  0.0000  0.0000  0.0000
 8781OM     OM1 8781   9.069   4.017   0.576  0.0000  0.0000  0.0000
 8782OM     OM1 8782   8.838   3.915   0.502  0.0000  0.0000  0.0000
 8783OM     OM1 8783   1.714   9.421   9.293  0.0000  0.0000  0.0000
 8784OM     OM1 8784   1.909   9.347   9.447  0.0000  0.0000  0.0000
 8785OM     OM1 8785   4.110   3.101   1.136  0.0000  0.0000  0.0000
 8786OM     OM1 8786   3.756   9.263   9.340  0.0000  0.0000  0.0000
 8787OM     OM1 8787   3.901   9.177   9.533  0.0000  0.0000  0.0000
 8788OM     OM1 8788   1.686   2.485   9.053  0.0000  0.0000  0.0000
 8789OM     OM1 8789   1.931   2.573   9.020  0.0000  0.0000  0.0000
 8790OM     OM1 8790   4.348   1.456   0.718  0.0000  0.0000  0.0000
 8791OM     OM1 8791   4.266   1.515   0.486  0.0000  0.0000  0.0000
 8792OM     OM1 8792   4.477   1.361   0.523  0.0000  0.0000  0.0000
 8793OM     OM1 8793   3.009   1.174   8.466  0.0000  0.0000  0.0000
 8794OM     OM1 8794   3.261   1.188   8.412  0.0000  0.0000  0.0000
 8795OM     OM1 8795   0.340   2.822   9.272  0.0000  0.0000  0.0000
 8796OM     OM1 8796   6.829   6.679   9.266  0.0000  0.0000  0.0000
 8797OM     OM1 8797   6.864   6.463   9.399  0.0000  0.0000  0.0000
 8798OM     OM1 8798   5.159   1.043   0.960  0.0000  0.0000  0.0000
 8799OM     OM1 8799   5.286   0.969   1.185  0.0000  0.0000  0.0000
 8800OM     OM1 8800   6.585   8.680   9.113  0.0000  0.0000  0.0000
 8801OM     OM1 8801   6.428   8.478   9.084  0.0000  0.0000  0.0000
 8802OM     OM1 8802   6.599   8.531   8.899  0.0000  0.0000  0.0000
 8803OM     OM1 8803   7.582   5.130   9.100  0.0000  0.0000  0.0000
 8804OM     OM1 8804   7.348   5.217   9.138  0.0000  0.0000  0.0000
 8805OM     OM1 8805   3.997   2.010   9.567  0.0000  0.0000  0.0000
 8806OM     OM1 8806   4.205   2.093   0.084  0.0000  0.0000  0.0000
 8807OM     OM1 8807   3.972   2.065   0.222  0.0000  0.0000  0.0000
 8808OM     OM1 8808   4.229   0.410   8.693  0.0000  0.0000  0.0000
 8809OM     OM1 8809   7.242   5.305   8.919  0.0000  0.0000  0.0000
 8810OM     OM1 8810   7.462   5.411   8.992  0.0000  0.0000  0.0000
 8811OM     OM1 8811   7.247   5.464   9.130  0.0000  0.0000  0.0000
 8812OM     OM1 8812   4.665   9.071   0.466  0.0000  0.0000  0.0000
 8813OM     OM1 8813   6.302   5.681   8.403  0.0000  0.0000  0.0000
 8814OM     OM1 8814   6.489   9.534   0.571  0.0000  0.0000  0.0000
 8815OM     OM1 8815   2.335   6.345   8.406  0.0000  0.0000  0.0000
 8816OM     OM1 8816   2.426   6.274   8.695  0.0000  0.0000  0.0000
 8817OM     OM1 8817   5.388   6.404   9.142  0.0000  0.0000  0.0000
 8818OM     OM1 8818   3.787   6.035   0.369  0.0000  0.0000  0.0000
 8819OM     OM1 8819   3.780   6.229   0.189  0.0000  0.0000  0.0000
 8820OM     OM1 8820   1.418   0.357   9.531  0.0000  0.0000  0.0000
 8821OM     OM1 8821   1.345   2.286   8.386  0.0000  0.0000  0.0000
 8822OM     OM1 8822   9.453   9.218   1.330  0.0000  0.0000  0.0000
 8823OM     OM1 8823   3.153   8.235   8.744  0.0000  0.0000  0.0000
 8824OM     OM1 8824   3.009   8.031   8.690  0.0000  0.0000  0.0000
 8825OM     OM1 8825   3.714   3.905   0.750  0.0000  0.0000  0.0000
 8826OM     OM1 8826   5.662   3.439   8.846  0.0000  0.0000  0.0000
 8827OM     OM1 8827   2.672   9.285   8.574  0.0000  0.0000  0.0000
 8828OM     OM1 8828   2.855   9.348   8.388  0.0000  0.0000  0.0000
 8829OM     OM1 8829   2.739   9.103   8.416  0.0000  0.0000  0.0000
 8830OM     OM1 8830   5.431   8.904   0.270  0.0000  0.0000  0.0000
 8831OM     OM1 8831   7.368   2.612   9.491  0.0000  0.0000  0.0000
 8832OM     OM1 8832   7.287   2.555   0.124  0.0000  0.0000  0.0000
 8833OM     OM1 8833   7.474   2.733   0.107  0.0000  0.0000  0.0000
 8834OM     OM1 8834   7.239   2.795   0.014  0.0000  0.0000  0.0000
 8835OM     OM1 8835   2.957   0.559   8.848  0.0000  0.0000  0.0000
 8836OM     OM1 8836   2.295   6.720   9.273  0.0000  0.0000  0.0000
 8837OM     OM1 8837   8.228   0.286   9.516  0.0000  0.0000  0.0000
 8838OM     OM1 8838   8.582   9.257   0.080  0.0000  0.0000  0.0000
 8839OM     OM1 8839   8.382   9.137   9.584  0.0000  0.0000  0.0000
 8840OM     OM1 8840   8.366   9.385   0.081  0.0000  0.0000  0.0000
 8841OM     OM1 8841   4.315   6.831   1.270  0.0000  0.0000  0.0000
 8842OM     OM1 8842   4.369   6.956   1.039  0.0000  0.0000  0.0000
 8843OM     OM1 8843   5.718   6.612   8.573  0.0000  0.0000  0.0000
 8844OM     OM1 8844   5.495   6.456   8.582  0.0000  0.0000  0.0000
 8845OM     OM1 8845   4.115   6.487   9.286  0.0000  0.0000  0.0000
 8846OM     OM1 8846   3.992   6.553   9.496  0.0000  0.0000  0.0000
 8847OM     OM1 8847   4.418   9.278   0.657  0.0000  0.0000  0.0000
 8848OM     OM1 8848   4.409   0.096   0.729  0.0000  0.0000  0.0000
 8849OM     OM1 8849   9.043   2.242   0.357  0.0000  0.0000  0.0000
 8850OM     OM1 8850   9.120   5.706   0.162  0.0000  0.0000  0.0000
 8851OM     OM1 8851   0.831   4.171   8.316  0.0000  0.0000  0.0000
 8852OM     OM1 8852   3.729   9.066   8.892  0.0000  0.0000  0.0000
 8853OM     OM1 8853   3.754   9.078   9.147  0.0000  0.0000  0.0000
 8854OM     OM1 8854   3.605   8.899   9.053  0.0000  0.0000  0.0000
 8855OM     OM1 8855   3.885   2.643   9.302  0.0000  0.0000  0.0000
 8856OM     OM1 8856   3.635   2.899   9.203  0.0000  0.0000  0.0000
 8857OM     OM1 8857   3.732   3.110   9.321  0.0000  0.0000  0.0000
 8858OM     OM1 8858   7.124   4.400   0.241  0.0000  0.0000  0.0000
 8859OM     OM1 8859   7.332   4.316   0.115  0.0000  0.0000  0.0000
 8860OM     OM1 8860   7.212   4.539   0.043  0.0000  0.0000  0.0000
 8861OM     OM1 8861   7.854   5.359   0.755  0.0000  0.0000  0.0000
 8862OM     OM1 8862   7.852   5.159   0.587  0.0000  0.0000  0.0000
 8863OM     OM1 8863   8.063   5.312   0.579  0.0000  0.0000  0.0000
 8864OM     OM1 8864   0.818   1.809   8.508  0.0000  0.0000  0.0000
 8865OM     OM1 8865   0.783   2.044   8.367  0.0000  0.0000  0.0000
 8866OM     OM1 8866   6.337   1.434   8.449  0.0000  0.0000  0.0000
 8867OM     OM1 8867   6.123   1.316   8.381  0.0000  0.0000  0.0000
 8868OM     OM1 8868   5.868   2.132   0.849  0.0000  0.0000  0.0000
 8869OM     OM1 8869   3.172   9.488   1.259  0.0000  0.0000  0.0000
 8870OM     OM1 8870   0.787   6.732   0.587  0.0000  0.0000  0.0000
 8871OM     OM1 8871   0.639   6.779   0.370  0.0000  0.0000  0.0000
 8872OM     OM1 8872   8.541   5.923   9.505  0.0000  0.0000  0.0000
 8873OM     OM1 8873   9.202   7.931   8.508  0.0000  0.0000  0.0000
 8874OM     OM1 8874   9.097   8.131   8.385  0.0000  0.0000  0.0000
 8875OM     OM1 8875   8.961   7.908   8.423  0.0000  0.0000  0.0000
 8876OM     OM1 8876   6.343   4.666   1.225  0.0000  0.0000  0.0000
 8877OM     OM1 8877   4.345   2.673   1.131  0.0000  0.0000  0.0000
 8878OM     OM1 8878   3.823   8.529   8.349  0.0000  0.0000  0.0000
 8879OM     OM1 8879   3.848   8.287   8.273  0.0000  0.0000  0.0000
 8880OM     OM1 8880   6.938   1.753   9.208  0.0000  0.0000  0.0000
 8881OM     OM1 8881   8.591   0.704   8.796  0.0000  0.0000  0.0000
 8882OM     OM1 8882   8.567   0.715   9.052  0.0000  0.0000  0.0000
 8883OM     OM1 8883   4.926   8.431   0.844  0.0000  0.0000  0.0000
 8884OM     OM1 8884   4.912   4.225   9.366  0.0000  0.0000  0.0000
 8885OM     OM1 8885   5.155   4.238   9.473  0.0000  0.0000  0.0000
 8886OM     OM1 8886   3.734   5.285   0.288  0.0000  0.0000  0.0000
 8887OM     OM1 8887   3.571   5.170   0.457  0.0000  0.0000  0.0000
 8888OM     OM1 8888   3.284   8.777   0.548  0.0000  0.0000  0.0000
 8889OM     OM1 8889   3.362   8.902   0.340  0.0000  0.0000  0.0000
 8890OM     OM1 8890   3.104   8.868   0.401  0.0000  0.0000  0.0000
 8891OM     OM1 8891   2.157   6.881   8.821  0.0000  0.0000  0.0000
 8892OM     OM1 8892   2.173   6.783   9.053  0.0000  0.0000  0.0000
 8893OM     OM1 8893   5.807   3.793   9.412  0.0000  0.0000  0.0000
 8894OM     OM1 8894   5.582   3.867   0.346  0.0000  0.0000  0.0000
 8895OM     OM1 8895   4.785   4.958   0.713  0.0000  0.0000  0.0000
 8896OM     OM1 8896   7.919   7.569   8.952  0.0000  0.0000  0.0000
 8897OM     OM1 8897   8.054   7.653   8.736  0.0000  0.0000  0.0000
 8898OM     OM1 8898   7.979   7.415   8.760  0.0000  0.0000  0.0000
 8899OM     OM1 8899   9.597   6.069   8.875  0.0000  0.0000  0.0000
 8900OM     OM1 8900   4.918   4.361   0.653  0.0000  0.0000  0.0000
 8901OM     OM1 8901   4.930   4.132   0.762  0.0000  0.0000  0.0000
 8902OM     OM1 8902   0.033   3.251   8.905  0.0000  0.0000  0.0000
 8903OM     OM1 8903   9.387   3.216   8.959  0.0000  0.0000  0.0000
 8904OM     OM1 8904   7.876   2.479   0.216  0.0000  0.0000  0.0000
 8905OM     OM1 8905   8.065   2.527   0.039  0.0000  0.0000  0.0000
 8906OM     OM1 8906   8.111   2.405   0.265  0.0000  0.0000  0.0000
 8907OM     OM1 8907   0.268   9.172   8.622  0.0000  0.0000  0.0000
 8908OM     OM1 8908   4.049   1.346   1.245  0.0000  0.0000  0.0000
 8909OM     OM1 8909   3.883   2.694   8.829  0.0000  0.0000  0.0000
 8910OM     OM1 8910   3.753   2.868   8.972  0.0000  0.0000  0.0000
 8911OM     OM1 8911   8.950   1.474   8.849  0.0000  0.0000  0.0000
 8912OM     OM1 8912   8.978   1.720   8.911  0.0000  0.0000  0.0000
 8913OM     OM1 8913   3.132   4.184   1.074  0.0000  0.0000  0.0000
 8914OM     OM1 8914   3.588   4.274   8.982  0.0000  0.0000  0.0000
 8915OM     OM1 8915   3.780   4.427   8.888  0.0000  0.0000  0.0000
 8916OM     OM1 8916   2.037   1.301   8.299  0.0000  0.0000  0.0000
 8917OM     OM1 8917   1.905   4.229   0.218  0.0000  0.0000  0.0000
 8918OM     OM1 8918   2.200   1.908   0.042  0.0000  0.0000  0.0000
 8919OM     OM1 8919   2.107   2.063   9.464  0.0000  0.0000  0.0000
 8920OM     OM1 8920   2.178   1.819   9.398  0.0000  0.0000  0.0000
 8921OM     OM1 8921   7.638   9.434   9.349  0.0000  0.0000  0.0000
 8922OM     OM1 8922   7.679   9.206   9.227  0.0000  0.0000  0.0000
 8923OM     OM1 8923   3.393   6.662   1.348  0.0000  0.0000  0.0000
 8924OM     OM1 8924   7.863   8.231   9.045  0.0000  0.0000  0.0000
 8925OM     OM1 8925   7.620   8.150   9.079  0.0000  0.0000  0.0000
 8926OM     OM1 8926   7.828   7.976   9.105  0.0000  0.0000  0.0000
 8927OM     OM1 8927   4.316   7.682   1.336  0.0000  0.0000  0.0000
 8928OM     OM1 8928   9.179   1.220   8.238  0.0000  0.0000  0.0000
 8929OM     OM1 8929   8.480   8.586   9.307  0.0000  0.0000  0.0000
 8930OM     OM1 8930   8.448   2.775   8.884  0.0000  0.0000  0.0000
 8931OM     OM1 8931   8.637   2.939   8.897  0.0000  0.0000  0.0000
 8932OM     OM1 8932   8.685   2.672   8.902  0.0000  0.0000  0.0000
 8933OM     OM1 8933   8.574   2.797   9.106  0.0000  0.0000  0.0000
 8934OM     OM1 8934   3.401   0.842   9.356  0.0000  0.0000  0.0000
 8935OM     OM1 8935   3.422   0.843   9.097  0.0000  0.0000  0.0000
 8936OM     OM1 8936   5.517   4.467   0.400  0.0000  0.0000  0.0000
 8937OM     OM1 8937   0.720   5.847   1.008  0.0000  0.0000  0.0000
 8938OM     OM1 8938   0.659   5.884   1.263  0.0000  0.0000  0.0000
 8939OM     OM1 8939   8.565   4.548   9.289  0.0000  0.0000  0.0000
 8940OM     OM1 8940   0.537   6.004   0.405  0.0000  0.0000  0.0000
 8941OM     OM1 8941   3.644   4.717   8.747  0.0000  0.0000  0.0000
 8942OM     OM1 8942   2.168   3.011   8.283  0.0000  0.0000  0.0000
 8943OM     OM1 8943   2.902   2.853   9.206  0.0000  0.0000  0.0000
 8944OM     OM1 8944   2.736   2.660   9.162  0.0000  0.0000  0.0000
 8945OM     OM1 8945   2.708   2.905   9.054  0.0000  0.0000  0.0000
 8946OM     OM1 8946   2.893   2.737   8.970  0.0000  0.0000  0.0000
 8947OM     OM1 8947   8.608   4.540   0.739  0.0000  0.0000  0.0000
 8948OM     OM1 8948   8.790   4.514   0.913  0.0000  0.0000  0.0000
 8949OM     OM1 8949   2.472   2.019   0.267  0.0000  0.0000  0.0000
 8950OM     OM1 8950   2.347   2.248   0.264  0.0000  0.0000  0.0000
 8951OM     OM1 8951   2.567   2.211   0.113  0.0000  0.0000  0.0000
 8952OM     OM1 8952   2.591   2.227   0.364  0.0000  0.0000  0.0000
 8953OM     OM1 8953   4.244   6.176   9.293  0.0000  0.0000  0.0000
 8954OM     OM1 8954   1.789   3.686   1.134  0.0000  0.0000  0.0000
 8955OM     OM1 8955   1.590   3.799   1.023  0.0000  0.0000  0.0000
 8956OM     OM1 8956   1.645   3.865   1.269  0.0000  0.0000  0.0000
 8957OM     OM1 8957   9.229   6.309   0.660  0.0000  0.0000  0.0000
 8958OM     OM1 8958   9.385   6.120   0.718  0.0000  0.0000  0.0000
 8959OM     OM1 8959   9.132   6.081   0.771  0.0000  0.0000  0.0000
 8960OM     OM1 8960   9.116   6.601   9.484  0.0000  0.0000  0.0000
 8961OM     OM1 8961   0.924   0.892   1.354  0.0000  0.0000  0.0000
 8962OM     OM1 8962   8.773   5.191   8.318  0.0000  0.0000  0.0000
 8963OM     OM1 8963   6.636   9.345   0.029  0.0000  0.0000  0.0000
 8964OM     OM1 8964   1.363   9.066   9.252  0.0000  0.0000  0.0000
 8965OM     OM1 8965   1.553   9.242   9.198  0.0000  0.0000  0.0000
 8966OM     OM1 8966   1.552   9.109   9.426  0.0000  0.0000  0.0000
 8967OM     OM1 8967   9.273   6.792   9.393  0.0000  0.0000  0.0000
 8968OM     OM1 8968   2.411   5.789   8.692  0.0000  0.0000  0.0000
 8969OM     OM1 8969   2.502   5.957   8.870  0.0000  0.0000  0.0000
 8970OM     OM1 8970   7.663   5.451   0.914  0.0000  0.0000  0.0000
 8971OM     OM1 8971   6.121   4.285   0.761  0.0000  0.0000  0.0000
 8972OM     OM1 8972   6.361   4.296   0.885  0.0000  0.0000  0.0000
 8973OM     OM1 8973   6.244   4.066   0.838  0.0000  0.0000  0.0000
 8974OM     OM1 8974   5.194   5.341   1.200  0.0000  0.0000  0.0000
 8975OM     OM1 8975   4.550   8.502   1.233  0.0000  0.0000  0.0000
 8976OM     OM1 8976   2.808   7.193   9.040  0.0000  0.0000  0.0000
 8977OM     OM1 8977   2.731   7.603   8.776  0.0000  0.0000  0.0000
 8978OM     OM1 8978   2.761   7.448   8.581  0.0000  0.0000  0.0000
 8979OM     OM1 8979   7.186   1.045   1.132  0.0000  0.0000  0.0000
 8980OM     OM1 8980   7.018   1.250   1.143  0.0000  0.0000  0.0000
 8981OM     OM1 8981   7.023   1.096   0.942  0.0000  0.0000  0.0000
 8982OM     OM1 8982   8.170   7.425   9.394  0.0000  0.0000  0.0000
 8983OM     OM1 8983   8.245   7.291   0.006  0.0000  0.0000  0.0000
 8984OM     OM1 8984   0.059   4.757   8.583  0.0000  0.0000  0.0000
 8985OM     OM1 8985   0.227   4.845   8.403  0.0000  0.0000  0.0000
 8986OM     OM1 8986   0.697   8.841   0.409  0.0000  0.0000  0.0000
 8987OM     OM1 8987   6.187   1.951   8.854  0.0000  0.0000  0.0000
 8988OM     OM1 8988   6.213   1.911   9.114  0.0000  0.0000  0.0000
 8989OM     OM1 8989   6.166   2.153   9.014  0.0000  0.0000  0.0000
 8990OM     OM1 8990   1.707   7.936   1.103  0.0000  0.0000  0.0000
 8991OM     OM1 8991   3.583   3.934   0.454  0.0000  0.0000  0.0000
 8992OM     OM1 8992   3.806   3.793   0.413  0.0000  0.0000  0.0000
 8993OM     OM1 8993   6.332   0.520   0.818  0.0000  0.0000  0.0000
 8994OM     OM1 8994   6.105   0.622   0.937  0.0000  0.0000  0.0000
 8995OM     OM1 8995   8.673   0.177   8.907  0.0000  0.0000  0.0000
 8996OM     OM1 8996   2.478   8.185   0.442  0.0000  0.0000  0.0000
 8997OM     OM1 8997   2.606   8.123   0.658  0.0000  0.0000  0.0000
 8998OM     OM1 8998   6.347   2.434   9.372  0.0000  0.0000  0.0000
 8999OM     OM1 8999   0.679   7.737   0.416  0.0000  0.0000  0.0000
 9000OM     OM1 9000   0.809   7.864   0.594  0.0000  0.0000  0.0000
 9001OM     OM1 9001   3.171   8.505   8.314  0.0000  0.0000  0.0000
 9002OM     OM1 9002   0.975   9.445   8.639  0.0000  0.0000  0.0000
 9003OM     OM1 9003   0.796   9.601   8.538  0.0000  0.0000  0.0000
 9004OM     OM1 9004   0.803   9.352   8.460  0.0000  0.0000  0.0000
 9005OM     OM1 9005   3.487   7.630   1.231  0.0000  0.0000  0.0000
 9006OM     OM1 9006   7.641   8.773   0.381  0.0000  0.0000  0.0000
 9007OM     OM1 9007   7.668   8.755   0.134  0.0000  0.0000  0.0000
 9008OM     OM1 9008   7.682   8.533   0.266  0.0000  0.0000  0.0000
 9009OM     OM1 9009   2.407   9.272   8.603  0.0000  0.0000  0.0000
 9010OM     OM1 9010   1.047   8.028   8.352  0.0000  0.0000  0.0000
 9011OM     OM1 9011   5.180   9.437   1.285  0.0000  0.0000  0.0000
 9012OM     OM1 9012   5.144   0.086   1.184  0.0000  0.0000  0.0000
 9013OM     OM1 9013   2.986   5.541   9.019  0.0000  0.0000  0.0000
 9014OM     OM1 9014   2.972   5.283   8.951  0.0000  0.0000  0.0000
 9015OM     OM1 9015   5.848   6.974   0.726  0.0000  0.0000  0.0000
 9016OM     OM1 9016   5.744   7.205   0.675  0.0000  0.0000  0.0000
 9017OM     OM1 9017   5.777   6.751   0.609  0.0000  0.0000  0.0000
 9018OM     OM1 9018   7.898   4.424   0.840  0.0000  0.0000  0.0000
 9019OM     OM1 9019   4.311   3.059   9.367  0.0000  0.0000  0.0000
 9020OM     OM1 9020   3.227   8.044   0.856  0.0000  0.0000  0.0000
 9021OM     OM1 9021   3.096   8.076   1.092  0.0000  0.0000  0.0000
 9022OM     OM1 9022   3.606   0.916   0.112  0.0000  0.0000  0.0000
 9023OM     OM1 9023   3.580   0.770   0.327  0.0000  0.0000  0.0000
 9024OM     OM1 9024   3.856   4.291   8.478  0.0000  0.0000  0.0000
 9025OM     OM1 9025   4.035   4.395   8.316  0.0000  0.0000  0.0000
 9026OM     OM1 9026   4.775   1.667   0.799  0.0000  0.0000  0.0000
 9027OM     OM1 9027   4.687   1.790   0.589  0.0000  0.0000  0.0000
 9028OM     OM1 9028   4.617   1.880   0.826  0.0000  0.0000  0.0000
 9029OM     OM1 9029   3.786   4.737   8.523  0.0000  0.0000  0.0000
 9030OM     OM1 9030   3.878   4.601   8.729  0.0000  0.0000  0.0000
 9031OM     OM1 9031   7.651   0.521   1.142  0.0000  0.0000  0.0000
 9032OM     OM1 9032   7.847   0.435   1.287  0.0000  0.0000  0.0000
 9033OM     OM1 9033   7.892   0.597   1.087  0.0000  0.0000  0.0000
 9034OM     OM1 9034   0.079   1.651   8.588  0.0000  0.0000  0.0000
 9035OM     OM1 9035   1.649   8.824   8.400  0.0000  0.0000  0.0000
 9036OM     OM1 9036   6.045   0.018   0.045  0.0000  0.0000  0.0000
 9037OM     OM1 9037   6.250   0.132   0.140  0.0000  0.0000  0.0000
 9038OM     OM1 9038   0.593   5.454   0.240  0.0000  0.0000  0.0000
 9039OM     OM1 9039   0.657   5.592   0.025  0.0000  0.0000  0.0000
 9040OM     OM1 9040   1.841   6.863   9.169  0.0000  0.0000  0.0000
 9041OM     OM1 9041   1.842   7.009   9.588  0.0000  0.0000  0.0000
 9042OM     OM1 9042   1.856   6.800   9.426  0.0000  0.0000  0.0000
 9043OM     OM1 9043   2.068   6.838   9.282  0.0000  0.0000  0.0000
 9044OM     OM1 9044   3.782   9.116   0.565  0.0000  0.0000  0.0000
 9045OM     OM1 9045   4.318   2.183   9.455  0.0000  0.0000  0.0000
 9046OM     OM1 9046   2.306   6.266   0.844  0.0000  0.0000  0.0000
 9047OM     OM1 9047   2.410   6.150   1.048  0.0000  0.0000  0.0000
 9048OM     OM1 9048   9.182   8.297   1.302  0.0000  0.0000  0.0000
 9049OM     OM1 9049   5.913   5.997   9.118  0.0000  0.0000  0.0000
 9050OM     OM1 9050   5.889   6.183   9.303  0.0000  0.0000  0.0000
 9051OM     OM1 9051   5.733   5.318   8.634  0.0000  0.0000  0.0000
 9052OM     OM1 9052   5.996   5.324   8.701  0.0000  0.0000  0.0000
 9053OM     OM1 9053   5.183   3.759   8.578  0.0000  0.0000  0.0000
 9054OM     OM1 9054   7.665   7.765   1.291  0.0000  0.0000  0.0000
 9055OM     OM1 9055   7.843   7.640   1.164  0.0000  0.0000  0.0000
 9056OM     OM1 9056   8.774   5.646   8.554  0.0000  0.0000  0.0000
 9057OM     OM1 9057   7.947   6.566   0.224  0.0000  0.0000  0.0000
 9058OM     OM1 9058   8.202   6.626   0.153  0.0000  0.0000  0.0000
 9059OM     OM1 9059   8.104   6.652   0.404  0.0000  0.0000  0.0000
 9060OM     OM1 9060   3.188   4.148   0.820  0.0000  0.0000  0.0000
 9061OM     OM1 9061   3.513   3.852   1.090  0.0000  0.0000  0.0000
 9062OM     OM1 9062   2.597   4.434   0.020  0.0000  0.0000  0.0000
 9063OM     OM1 9063   2.465   4.283   0.170  0.0000  0.0000  0.0000
 9064OM     OM1 9064   2.458   4.552   0.201  0.0000  0.0000  0.0000
 9065OM     OM1 9065   0.806   3.676   9.546  0.0000  0.0000  0.0000
 9066OM     OM1 9066   2.213   7.332   0.496  0.0000  0.0000  0.0000
 9067OM     OM1 9067   3.761   3.448   8.314  0.0000  0.0000  0.0000
 9068OM     OM1 9068   5.254   2.714   0.016  0.0000  0.0000  0.0000
 9069OM     OM1 9069   5.235   2.645   0.243  0.0000  0.0000  0.0000
 9070OM     OM1 9070   3.381   7.728   0.002  0.0000  0.0000  0.0000
 9071OM     OM1 9071   3.550   7.902   9.534  0.0000  0.0000  0.0000
 9072OM     OM1 9072   6.015   6.377   0.979  0.0000  0.0000  0.0000
 9073OM     OM1 9073   6.218   6.329   0.605  0.0000  0.0000  0.0000
 9074OM     OM1 9074   3.043   5.838   0.465  0.0000  0.0000  0.0000
 9075OM     OM1 9075   3.283   5.929   0.523  0.0000  0.0000  0.0000
 9076OM     OM1 9076   0.646   2.657   0.651  0.0000  0.0000  0.0000
 9077OM     OM1 9077   0.581   2.874   0.787  0.0000  0.0000  0.0000
 9078OM     OM1 9078   0.756   2.879   0.587  0.0000  0.0000  0.0000
 9079OM     OM1 9079   0.501   2.860   0.547  0.0000  0.0000  0.0000
 9080OM     OM1 9080   3.221   9.049   9.115  0.0000  0.0000  0.0000
 9081OM     OM1 9081   3.205   8.958   8.875  0.0000  0.0000  0.0000
 9082OM     OM1 9082   3.316   9.349   8.801  0.0000  0.0000  0.0000
 9083OM     OM1 9083   3.141   9.208   8.923  0.0000  0.0000  0.0000
 9084OM     OM1 9084   6.760   2.340   0.572  0.0000  0.0000  0.0000
 9085OM     OM1 9085   5.971   1.898   0.786  0.0000  0.0000  0.0000
 9086OM     OM1 9086   0.855   1.099   8.754  0.0000  0.0000  0.0000
 9087OM     OM1 9087   6.867   5.503   0.661  0.0000  0.0000  0.0000
 9088OM     OM1 9088   4.402   1.419   1.200  0.0000  0.0000  0.0000
 9089OM     OM1 9089   4.388   1.681   1.208  0.0000  0.0000  0.0000
 9090OM     OM1 9090   4.577   1.548   1.328  0.0000  0.0000  0.0000
 9091OM     OM1 9091   8.715   7.848   8.489  0.0000  0.0000  0.0000
 9092OM     OM1 9092   8.517   7.844   8.329  0.0000  0.0000  0.0000
 9093OM     OM1 9093   8.561   8.055   8.513  0.0000  0.0000  0.0000
 9094OM     OM1 9094   8.687   8.287   8.513  0.0000  0.0000  0.0000
 9095OM     OM1 9095   8.740   8.116   8.695  0.0000  0.0000  0.0000
 9096OM     OM1 9096   3.399   8.796   8.938  0.0000  0.0000  0.0000
 9097OM     OM1 9097   3.216   8.724   8.772  0.0000  0.0000  0.0000
 9098OM     OM1 9098   4.866   6.036   8.398  0.0000  0.0000  0.0000
 9099OM     OM1 9099   8.970   8.781   0.162  0.0000  0.0000  0.0000
 9100OM     OM1 9100   8.964   8.711   9.521  0.0000  0.0000  0.0000
 9101OM     OM1 9101   7.065   7.165   9.417  0.0000  0.0000  0.0000
 9102OM     OM1 9102   6.968   7.077   9.194  0.0000  0.0000  0.0000
 9103OM     OM1 9103   4.521   0.147   1.223  0.0000  0.0000  0.0000
 9104OM     OM1 9104   4.669   0.368   1.240  0.0000  0.0000  0.0000
 9105OM     OM1 9105   2.830   8.013   9.582  0.0000  0.0000  0.0000
 9106OM     OM1 9106   3.059   8.131   9.479  0.0000  0.0000  0.0000
 9107OM     OM1 9107   3.035   7.886   9.581  0.0000  0.0000  0.0000
 9108OM     OM1 9108   2.925   9.537   0.027  0.0000  0.0000  0.0000
 9109OM     OM1 9109   3.103   4.031   0.603  0.0000  0.0000  0.0000
 9110OM     OM1 9110   5.234   8.340   8.487  0.0000  0.0000  0.0000
 9111OM     OM1 9111   5.472   8.140   8.371  0.0000  0.0000  0.0000
 9112OM     OM1 9112   5.147   8.136   8.627  0.0000  0.0000  0.0000
 9113OM     OM1 9113   1.556   8.225   0.877  0.0000  0.0000  0.0000
 9114OM     OM1 9114   0.567   7.721   0.190  0.0000  0.0000  0.0000
 9115OM     OM1 9115   0.817   7.693   0.108  0.0000  0.0000  0.0000
 9116OM     OM1 9116   0.626   7.666   9.546  0.0000  0.0000  0.0000
 9117OM     OM1 9117   7.204   3.872   0.854  0.0000  0.0000  0.0000
 9118OM     OM1 9118   7.160   4.026   1.048  0.0000  0.0000  0.0000
 9119OM     OM1 9119   7.071   3.822   1.182  0.0000  0.0000  0.0000
 9120OM     OM1 9120   7.145   4.124   0.795  0.0000  0.0000  0.0000
 9121OM     OM1 9121   7.134   2.545   9.394  0.0000  0.0000  0.0000
 9122OM     OM1 9122   6.959   2.486   9.209  0.0000  0.0000  0.0000
 9123OM     OM1 9123   7.152   0.395   8.798  0.0000  0.0000  0.0000
 9124OM     OM1 9124   7.288   0.238   8.653  0.0000  0.0000  0.0000
 9125OM     OM1 9125   7.068   0.148   8.785  0.0000  0.0000  0.0000
 9126OM     OM1 9126   7.126   9.604   8.990  0.0000  0.0000  0.0000
 9127OM     OM1 9127   3.177   7.761   0.147  0.0000  0.0000  0.0000
 9128OM     OM1 9128   2.936   7.682   0.143  0.0000  0.0000  0.0000
 9129OM     OM1 9129   6.408   9.203   9.097  0.0000  0.0000  0.0000
 9130OM     OM1 9130   2.779   4.572   9.081  0.0000  0.0000  0.0000
 9131OM     OM1 9131   2.847   4.331   9.033  0.0000  0.0000  0.0000
 9132OM     OM1 9132   3.043   4.509   9.067  0.0000  0.0000  0.0000
 9133OM     OM1 9133   2.904   4.425   9.268  0.0000  0.0000  0.0000
 9134OM     OM1 9134   0.833   0.234   9.578  0.0000  0.0000  0.0000
 9135OM     OM1 9135   6.186   4.587   0.240  0.0000  0.0000  0.0000
 9136OM     OM1 9136   6.170   4.374   0.390  0.0000  0.0000  0.0000
 9137OM     OM1 9137   3.550   2.718   9.027  0.0000  0.0000  0.0000
 9138OM     OM1 9138   3.471   2.484   8.922  0.0000  0.0000  0.0000
 9139OM     OM1 9139   4.077   0.730   8.333  0.0000  0.0000  0.0000
 9140OM     OM1 9140   4.141   0.979   8.320  0.0000  0.0000  0.0000
 9141OM     OM1 9141   2.279   1.338   0.117  0.0000  0.0000  0.0000
 9142OM     OM1 9142   4.561   2.967   9.362  0.0000  0.0000  0.0000
 9143OM     OM1 9143   7.305   4.944   1.200  0.0000  0.0000  0.0000
 9144OM     OM1 9144   7.244   4.700   1.120  0.0000  0.0000  0.0000
 9145OM     OM1 9145   8.578   8.782   0.653  0.0000  0.0000  0.0000
 9146OM     OM1 9146   9.197   8.828   9.561  0.0000  0.0000  0.0000
 9147OM     OM1 9147   9.182   9.076   0.048  0.0000  0.0000  0.0000
 9148OM     OM1 9148   9.328   9.017   9.447  0.0000  0.0000  0.0000
 9149OM     OM1 9149   2.208   9.108   9.399  0.0000  0.0000  0.0000
 9150OM     OM1 9150   2.388   9.258   9.291  0.0000  0.0000  0.0000
 9151OM     OM1 9151   2.278   9.067   9.151  0.0000  0.0000  0.0000
 9152OM     OM1 9152   3.659   7.060   0.268  0.0000  0.0000  0.0000
 9153OM     OM1 9153   3.653   7.148   0.509  0.0000  0.0000  0.0000
 9154OM     OM1 9154   3.434   7.157   0.384  0.0000  0.0000  0.0000
 9155OM     OM1 9155   6.755   7.565   8.901  0.0000  0.0000  0.0000
 9156OM     OM1 9156   7.002   8.314   0.239  0.0000  0.0000  0.0000
 9157OM     OM1 9157   7.264   8.332   0.260  0.0000  0.0000  0.0000
 9158OM     OM1 9158   6.713   8.482   0.831  0.0000  0.0000  0.0000
 9159OM     OM1 9159   6.973   8.285   1.044  0.0000  0.0000  0.0000
 9160OM     OM1 9160   3.207   1.510   0.385  0.0000  0.0000  0.0000
 9161OM     OM1 9161   3.261   1.566   0.626  0.0000  0.0000  0.0000
 9162OM     OM1 9162   3.332   1.337   0.528  0.0000  0.0000  0.0000
 9163OM     OM1 9163   0.926   2.341   8.489  0.0000  0.0000  0.0000
 9164OM     OM1 9164   0.746   2.299   8.315  0.0000  0.0000  0.0000
 9165OM     OM1 9165   0.675   2.403   8.548  0.0000  0.0000  0.0000
 9166OM     OM1 9166   0.759   6.793   0.144  0.0000  0.0000  0.0000
 9167OM     OM1 9167   0.500   6.811   0.145  0.0000  0.0000  0.0000
 9168OM     OM1 9168   4.533   8.329   8.373  0.0000  0.0000  0.0000
 9169OM     OM1 9169   4.756   1.775   8.585  0.0000  0.0000  0.0000
 9170OM     OM1 9170   8.516   2.472   0.377  0.0000  0.0000  0.0000
 9171OM     OM1 9171   8.672   2.596   0.203  0.0000  0.0000  0.0000
 9172OM     OM1 9172   3.493   2.822   8.403  0.0000  0.0000  0.0000
 9173OM     OM1 9173   8.585   8.270   0.291  0.0000  0.0000  0.0000
 9174OM     OM1 9174   8.781   7.896   0.219  0.0000  0.0000  0.0000
 9175OM     OM1 9175   8.651   8.064   0.419  0.0000  0.0000  0.0000
 9176OM     OM1 9176   4.573   8.671   0.818  0.0000  0.0000  0.0000
 9177OM     OM1 9177   4.489   8.869   0.684  0.0000  0.0000  0.0000
 9178OM     OM1 9178   1.359   6.646   0.573  0.0000  0.0000  0.0000
 9179OM     OM1 9179   0.958   9.124   8.691  0.0000  0.0000  0.0000
 9180OM     OM1 9180   1.313   8.882   8.419  0.0000  0.0000  0.0000
 9181OM     OM1 9181   1.102   9.267   8.530  0.0000  0.0000  0.0000
 9182OM     OM1 9182   7.045   7.711   0.861  0.0000  0.0000  0.0000
 9183OM     OM1 9183   9.334   6.050   8.425  0.0000  0.0000  0.0000
 9184OM     OM1 9184   9.479   6.032   8.645  0.0000  0.0000  0.0000
 9185OM     OM1 9185   4.190   7.578   9.164  0.0000  0.0000  0.0000
 9186OM     OM1 9186   4.371   8.442   9.418  0.0000  0.0000  0.0000
 9187OM     OM1 9187   7.591   5.296   8.790  0.0000  0.0000  0.0000
 9188OM     OM1 9188   1.393   6.050   0.613  0.0000  0.0000  0.0000
 9189OM     OM1 9189   8.281   5.480   1.349  0.0000  0.0000  0.0000
 9190OM     OM1 9190   8.275   5.241   1.240  0.0000  0.0000  0.0000
 9191OM     OM1 9191   8.477   5.320   1.384  0.0000  0.0000  0.0000
 9192OM     OM1 9192   2.826   1.129   8.643  0.0000  0.0000  0.0000
 9193OM     OM1 9193   1.994   1.134   1.295  0.0000  0.0000  0.0000
 9194OM     OM1 9194   9.335   5.109   1.367  0.0000  0.0000  0.0000
 9195OM     OM1 9195   7.558   8.149   0.857  0.0000  0.0000  0.0000
 9196OM     OM1 9196   5.512   4.089   0.206  0.0000  0.0000  0.0000
 9197OM     OM1 9197   5.380   4.179   9.602  0.0000  0.0000  0.0000
 9198OM     OM1 9198   3.807   0.301   0.928  0.0000  0.0000  0.0000
 9199OM     OM1 9199   3.917   0.077   0.869  0.0000  0.0000  0.0000
 9200OM     OM1 9200   4.042   0.310   0.806  0.0000  0.0000  0.0000
 9201OM     OM1 9201   0.817   6.940   1.025  0.0000  0.0000  0.0000
 9202OM     OM1 9202   1.044   6.983   1.144  0.0000  0.0000  0.0000
 9203OM     OM1 9203   6.924   3.526   9.536  0.0000  0.0000  0.0000
 9204OM     OM1 9204   6.881   3.327   0.108  0.0000  0.0000  0.0000
 9205OM     OM1 9205   2.933   3.956   8.733  0.0000  0.0000  0.0000
 9206OM     OM1 9206   2.816   4.093   8.920  0.0000  0.0000  0.0000
 9207OM     OM1 9207   3.956   5.012   9.383  0.0000  0.0000  0.0000
 9208OM     OM1 9208   3.861   4.786   9.306  0.0000  0.0000  0.0000
 9209OM     OM1 9209   4.081   4.886   9.189  0.0000  0.0000  0.0000
 9210OM     OM1 9210   9.037   5.393   1.090  0.0000  0.0000  0.0000
 9211OM     OM1 9211   9.036   5.304   0.852  0.0000  0.0000  0.0000
 9212OM     OM1 9212   8.829   5.260   1.016  0.0000  0.0000  0.0000
 9213OM     OM1 9213   2.002   5.249   9.300  0.0000  0.0000  0.0000
 9214OM     OM1 9214   9.313   7.357   9.066  0.0000  0.0000  0.0000
 9215OM     OM1 9215   9.187   4.431   0.953  0.0000  0.0000  0.0000
 9216OM     OM1 9216   8.856   4.367   1.112  0.0000  0.0000  0.0000
 9217OM     OM1 9217   2.804   4.966   0.917  0.0000  0.0000  0.0000
 9218OM     OM1 9218   2.662   5.000   1.132  0.0000  0.0000  0.0000
 9219OM     OM1 9219   9.350   3.259   0.903  0.0000  0.0000  0.0000
 9220OM     OM1 9220   3.649   8.571   0.224  0.0000  0.0000  0.0000
 9221OM     OM1 9221   3.599   8.823   0.278  0.0000  0.0000  0.0000
 9222OM     OM1 9222   4.155   6.472   0.718  0.0000  0.0000  0.0000
 9223OM     OM1 9223   7.730   1.806   0.479  0.0000  0.0000  0.0000
 9224OM     OM1 9224   7.854   1.825   0.707  0.0000  0.0000  0.0000
 9225OM     OM1 9225   1.437   5.966   0.370  0.0000  0.0000  0.0000
 9226OM     OM1 9226   5.968   0.952   9.231  0.0000  0.0000  0.0000
 9227OM     OM1 9227   5.887   1.053   9.463  0.0000  0.0000  0.0000
 9228OM     OM1 9228   1.179   1.722   0.072  0.0000  0.0000  0.0000
 9229OM     OM1 9229   2.044   7.150   1.206  0.0000  0.0000  0.0000
 9230OM     OM1 9230   1.804   7.248   1.162  0.0000  0.0000  0.0000
 9231OM     OM1 9231   1.900   7.068   1.010  0.0000  0.0000  0.0000
 9232OM     OM1 9232   3.853   4.790   0.639  0.0000  0.0000  0.0000
 9233OM     OM1 9233   3.653   4.929   0.538  0.0000  0.0000  0.0000
 9234OM     OM1 9234   2.253   7.809   0.897  0.0000  0.0000  0.0000
 9235OM     OM1 9235   2.420   7.990   0.786  0.0000  0.0000  0.0000
 9236OM     OM1 9236   1.644   2.083   0.073  0.0000  0.0000  0.0000
 9237OM     OM1 9237   1.887   2.164   9.580  0.0000  0.0000  0.0000
 9238OM     OM1 9238   7.671   0.945   0.781  0.0000  0.0000  0.0000
 9239OM     OM1 9239   7.701   0.943   0.524  0.0000  0.0000  0.0000
 9240OM     OM1 9240   9.389   2.883   8.659  0.0000  0.0000  0.0000
 9241OM     OM1 9241   9.146   2.972   8.620  0.0000  0.0000  0.0000
 9242OM     OM1 9242   9.270   3.011   8.853  0.0000  0.0000  0.0000
 9243OM     OM1 9243   2.639   1.379   9.443  0.0000  0.0000  0.0000
 9244OM     OM1 9244   2.713   1.142   9.367  0.0000  0.0000  0.0000
 9245OM     OM1 9245   5.852   5.208   0.863  0.0000  0.0000  0.0000
 9246OM     OM1 9246   5.838   5.470   0.910  0.0000  0.0000  0.0000
 9247OM     OM1 9247   5.676   5.313   1.022  0.0000  0.0000  0.0000
 9248OM     OM1 9248   9.074   8.610   8.657  0.0000  0.0000  0.0000
 9249OM     OM1 9249   8.851   8.728   8.627  0.0000  0.0000  0.0000
 9250OM     OM1 9250   8.854   8.474   8.593  0.0000  0.0000  0.0000
 9251OM     OM1 9251   5.779   0.727   0.431  0.0000  0.0000  0.0000
 9252OM     OM1 9252   5.980   0.844   0.309  0.0000  0.0000  0.0000
 9253OM     OM1 9253   3.152   6.773   0.368  0.0000  0.0000  0.0000
 9254OM     OM1 9254   7.561   8.166   8.358  0.0000  0.0000  0.0000
 9255OM     OM1 9255   4.907   1.374   9.243  0.0000  0.0000  0.0000
 9256OM     OM1 9256   4.733   1.186   9.256  0.0000  0.0000  0.0000
 9257OM     OM1 9257   8.744   6.770   8.962  0.0000  0.0000  0.0000
 9258OM     OM1 9258   8.622   6.559   8.890  0.0000  0.0000  0.0000
 9259OM     OM1 9259   8.872   3.430   9.297  0.0000  0.0000  0.0000
 9260OM     OM1 9260   9.026   3.608   9.165  0.0000  0.0000  0.0000
 9261OM     OM1 9261   1.093   0.292   8.680  0.0000  0.0000  0.0000
 9262OM     OM1 9262   1.230   0.446   8.829  0.0000  0.0000  0.0000
 9263OM     OM1 9263   2.563   7.525   8.297  0.0000  0.0000  0.0000
 9264OM     OM1 9264   2.811   7.453   8.329  0.0000  0.0000  0.0000
 9265OM     OM1 9265   8.940   8.963   8.608  0.0000  0.0000  0.0000
 9266OM     OM1 9266   5.139   1.643   0.309  0.0000  0.0000  0.0000
 9267OM     OM1 9267   5.274   1.842   0.209  0.0000  0.0000  0.0000
 9268OM     OM1 9268   5.162   1.856   0.457  0.0000  0.0000  0.0000
 9269OM     OM1 9269   5.548   7.333   1.397  0.0000  0.0000  0.0000
 9270OM     OM1 9270   5.360   0.205   1.181  0.0000  0.0000  0.0000
 9271OM     OM1 9271   5.611   0.154   1.187  0.0000  0.0000  0.0000
 9272OM     OM1 9272   3.852   5.290   8.997  0.0000  0.0000  0.0000
 9273OM     OM1 9273   3.621   5.177   9.077  0.0000  0.0000  0.0000
 9274OM     OM1 9274   3.850   5.111   9.174  0.0000  0.0000  0.0000
 9275OM     OM1 9275   5.608   5.850   8.976  0.0000  0.0000  0.0000
 9276OM     OM1 9276   0.515   6.509   1.252  0.0000  0.0000  0.0000
 9277OM     OM1 9277   5.761   3.534   0.716  0.0000  0.0000  0.0000
 9278OM     OM1 9278   5.935   0.076   9.098  0.0000  0.0000  0.0000
 9279OM     OM1 9279   8.329   2.731   9.178  0.0000  0.0000  0.0000
 9280OM     OM1 9280   8.118   2.884   9.200  0.0000  0.0000  0.0000
 9281OM     OM1 9281   8.205   2.794   8.965  0.0000  0.0000  0.0000
 9282OM     OM1 9282   6.883   6.860   9.094  0.0000  0.0000  0.0000
 9283OM     OM1 9283   1.399   1.582   8.522  0.0000  0.0000  0.0000
 9284OM     OM1 9284   1.202   1.312   8.248  0.0000  0.0000  0.0000
 9285OM     OM1 9285   7.293   3.632   0.760  0.0000  0.0000  0.0000
 9286OM     OM1 9286   9.452   0.205   8.382  0.0000  0.0000  0.0000
 9287OM     OM1 9287   3.776   0.866   8.639  0.0000  0.0000  0.0000
 9288OM     OM1 9288   3.969   1.003   8.518  0.0000  0.0000  0.0000
 9289OM     OM1 9289   0.925   3.486   8.599  0.0000  0.0000  0.0000
 9290OM     OM1 9290   1.144   3.494   8.738  0.0000  0.0000  0.0000
 9291OM     OM1 9291   0.936   3.553   8.863  0.0000  0.0000  0.0000
 9292OM     OM1 9292   1.796   5.351   9.165  0.0000  0.0000  0.0000
 9293OM     OM1 9293   1.786   5.104   9.240  0.0000  0.0000  0.0000
 9294OM     OM1 9294   7.326   7.312   8.583  0.0000  0.0000  0.0000
 9295OM     OM1 9295   7.558   9.349   9.052  0.0000  0.0000  0.0000
 9296OM     OM1 9296   7.368   9.529   9.062  0.0000  0.0000  0.0000
 9297OM     OM1 9297   2.025   0.105   8.746  0.0000  0.0000  0.0000
 9298OM     OM1 9298   1.880   9.529   8.622  0.0000  0.0000  0.0000
 9299OM     OM1 9299   1.861   9.548   8.877  0.0000  0.0000  0.0000
 9300OM     OM1 9300   2.547   8.825   9.395  0.0000  0.0000  0.0000
 9301OM     OM1 9301   2.721   8.829   9.602  0.0000  0.0000  0.0000
 9302OM     OM1 9302   5.527   7.337   9.451  0.0000  0.0000  0.0000
 9303OM     OM1 9303   5.603   7.093   9.379  0.0000  0.0000  0.0000
 9304OM     OM1 9304   7.869   2.931   9.193  0.0000  0.0000  0.0000
 9305OM     OM1 9305   6.707   4.056   1.128  0.0000  0.0000  0.0000
 9306OM     OM1 9306   6.638   3.866   0.969  0.0000  0.0000  0.0000
 9307OM     OM1 9307   6.810   3.811   1.155  0.0000  0.0000  0.0000
 9308OM     OM1 9308   3.139   9.088   0.537  0.0000  0.0000  0.0000
 9309OM     OM1 9309   7.814   3.366   0.400  0.0000  0.0000  0.0000
 9310OM     OM1 9310   0.657   5.000   0.331  0.0000  0.0000  0.0000
 9311OM     OM1 9311   0.572   5.246   0.390  0.0000  0.0000  0.0000
 9312OM     OM1 9312   0.999   4.868   8.750  0.0000  0.0000  0.0000
 9313OM     OM1 9313   0.847   4.731   8.576  0.0000  0.0000  0.0000
 9314OM     OM1 9314   0.808   4.982   8.606  0.0000  0.0000  0.0000
 9315OM     OM1 9315   5.002   0.487   0.177  0.0000  0.0000  0.0000
 9316OM     OM1 9316   4.807   0.528   0.348  0.0000  0.0000  0.0000
 9317OM     OM1 9317   1.605   1.020   9.345  0.0000  0.0000  0.0000
 9318OM     OM1 9318   0.808   2.795   9.463  0.0000  0.0000  0.0000
 9319OM     OM1 9319   0.894   2.795   0.104  0.0000  0.0000  0.0000
 9320OM     OM1 9320   0.716   2.965   0.029  0.0000  0.0000  0.0000
 9321OM     OM1 9321   0.262   4.027   0.927  0.0000  0.0000  0.0000
 9322OM     OM1 9322   0.489   3.950   0.817  0.0000  0.0000  0.0000
 9323OM     OM1 9323   9.126   6.100   8.857  0.0000  0.0000  0.0000
 9324OM     OM1 9324   2.161   7.133   8.899  0.0000  0.0000  0.0000
 9325OM     OM1 9325   1.956   6.981   8.960  0.0000  0.0000  0.0000
 9326OM     OM1 9326   6.784   8.357   0.373  0.0000  0.0000  0.0000
 9327OM     OM1 9327   6.719   8.516   0.572  0.0000  0.0000  0.0000
 9328OM     OM1 9328   7.684   1.609   8.794  0.0000  0.0000  0.0000
 9329OM     OM1 9329   7.271   1.600   8.495  0.0000  0.0000  0.0000
 9330OM     OM1 9330   3.047   2.850   0.587  0.0000  0.0000  0.0000
 9331OM     OM1 9331   2.690   0.874   9.387  0.0000  0.0000  0.0000
 9332OM     OM1 9332   2.780   0.987   9.176  0.0000  0.0000  0.0000
 9333OM     OM1 9333   2.523   1.010   9.236  0.0000  0.0000  0.0000
 9334OM     OM1 9334   0.409   4.537   0.285  0.0000  0.0000  0.0000
 9335OM     OM1 9335   0.606   4.587   0.133  0.0000  0.0000  0.0000
 9336OM     OM1 9336   8.289   4.698   8.907  0.0000  0.0000  0.0000
 9337OM     OM1 9337   6.206   2.387   9.124  0.0000  0.0000  0.0000
 9338OM     OM1 9338   6.152   2.358   8.866  0.0000  0.0000  0.0000
 9339OM     OM1 9339   9.174   0.380   0.688  0.0000  0.0000  0.0000
 9340OM     OM1 9340   2.166   2.195   0.701  0.0000  0.0000  0.0000
 9341OM     OM1 9341   1.961   2.322   0.797  0.0000  0.0000  0.0000
 9342OM     OM1 9342   7.273   1.563   9.367  0.0000  0.0000  0.0000
 9343OM     OM1 9343   7.409   1.773   9.448  0.0000  0.0000  0.0000
 9344OM     OM1 9344   0.099   9.536   1.059  0.0000  0.0000  0.0000
 9345OM     OM1 9345   0.023   0.033   0.835  0.0000  0.0000  0.0000
 9346OM     OM1 9346   2.926   4.081   0.124  0.0000  0.0000  0.0000
 9347OM     OM1 9347   7.399   4.455   9.079  0.0000  0.0000  0.0000
 9348OM     OM1 9348   7.456   7.753   1.453  0.0000  0.0000  0.0000
 9349OM     OM1 9349   2.431   8.861   9.153  0.0000  0.0000  0.0000
 9350OM     OM1 9350   3.028   7.073   9.078  0.0000  0.0000  0.0000
 9351OM     OM1 9351   2.531   6.935   9.276  0.0000  0.0000  0.0000
 9352OM     OM1 9352   2.701   7.071   9.407  0.0000  0.0000  0.0000
 9353OM     OM1 9353   1.784   5.773   8.415  0.0000  0.0000  0.0000
 9354OM     OM1 9354   1.784   7.930   9.187  0.0000  0.0000  0.0000
 9355OM     OM1 9355   5.982   4.036   9.050  0.0000  0.0000  0.0000
 9356OM     OM1 9356   6.068   4.234   8.906  0.0000  0.0000  0.0000
 9357OM     OM1 9357   9.583   0.884   0.369  0.0000  0.0000  0.0000
 9358OM     OM1 9358   8.019   1.140   0.680  0.0000  0.0000  0.0000
 9359OM     OM1 9359   8.268   1.313   0.937  0.0000  0.0000  0.0000
 9360OM     OM1 9360   8.141   1.093   0.894  0.0000  0.0000  0.0000
 9361OM     OM1 9361   3.099   8.185   0.485  0.0000  0.0000  0.0000
 9362OM     OM1 9362   9.044   4.221   1.035  0.0000  0.0000  0.0000
 9363OM     OM1 9363   4.629   5.026   9.262  0.0000  0.0000  0.0000
 9364OM     OM1 9364   4.863   4.972   9.171  0.0000  0.0000  0.0000
 9365OM     OM1 9365   3.184   5.127   0.199  0.0000  0.0000  0.0000
 9366OM     OM1 9366   2.968   4.987   0.240  0.0000  0.0000  0.0000
 9367OM     OM1 9367   3.198   4.893   0.308  0.0000  0.0000  0.0000
 9368OM     OM1 9368   3.125   5.929   8.773  0.0000  0.0000  0.0000
 9369OM     OM1 9369   3.135   5.737   8.942  0.0000  0.0000  0.0000
 9370OM     OM1 9370   2.731   0.469   0.576  0.0000  0.0000  0.0000
 9371OM     OM1 9371   6.658   0.828   0.769  0.0000  0.0000  0.0000
 9372OM     OM1 9372   6.656   0.624   0.613  0.0000  0.0000  0.0000
 9373OM     OM1 9373   2.199   5.382   0.674  0.0000  0.0000  0.0000
 9374OM     OM1 9374   2.187   9.510   0.993  0.0000  0.0000  0.0000
 9375OM     OM1 9375   1.747   0.631   8.316  0.0000  0.0000  0.0000
 9376OM     OM1 9376   9.310   3.989   0.910  0.0000  0.0000  0.0000
 9377OM     OM1 9377   9.251   3.865   0.687  0.0000  0.0000  0.0000
 9378OM     OM1 9378   1.567   2.949   0.147  0.0000  0.0000  0.0000
 9379OM     OM1 9379   1.370   2.830   0.281  0.0000  0.0000  0.0000
 9380OM     OM1 9380   1.213   2.087   9.392  0.0000  0.0000  0.0000
 9381OM     OM1 9381   1.384   1.903   9.356  0.0000  0.0000  0.0000
 9382OM     OM1 9382   1.534   5.451   0.216  0.0000  0.0000  0.0000
 9383OM     OM1 9383   1.603   5.340   9.595  0.0000  0.0000  0.0000
 9384OM     OM1 9384   1.863   7.936   8.681  0.0000  0.0000  0.0000
 9385OM     OM1 9385   8.273   2.894   8.731  0.0000  0.0000  0.0000
 9386OM     OM1 9386   8.293   3.116   8.586  0.0000  0.0000  0.0000
 9387OM     OM1 9387   8.429   3.078   8.807  0.0000  0.0000  0.0000
 9388OM     OM1 9388   7.595   5.908   1.123  0.0000  0.0000  0.0000
 9389OM     OM1 9389   4.716   0.696   8.961  0.0000  0.0000  0.0000
 9390OM     OM1 9390   4.823   0.711   9.200  0.0000  0.0000  0.0000
 9391OM     OM1 9391   3.266   7.349   0.322  0.0000  0.0000  0.0000
 9392OM     OM1 9392   1.565   8.647   0.629  0.0000  0.0000  0.0000
 9393OM     OM1 9393   5.750   4.062   8.624  0.0000  0.0000  0.0000
 9394OM     OM1 9394   5.525   4.157   8.530  0.0000  0.0000  0.0000
 9395OM     OM1 9395   5.602   3.945   8.430  0.0000  0.0000  0.0000
 9396OM     OM1 9396   6.740   6.219   9.385  0.0000  0.0000  0.0000
 9397OM     OM1 9397   8.559   2.476   9.016  0.0000  0.0000  0.0000
 9398OM     OM1 9398   8.508   2.336   9.233  0.0000  0.0000  0.0000
 9399OM     OM1 9399   8.318   2.367   9.032  0.0000  0.0000  0.0000
 9400OM     OM1 9400   4.592   0.717   9.326  0.0000  0.0000  0.0000
 9401OM     OM1 9401   7.831   1.915   0.268  0.0000  0.0000  0.0000
 9402OM     OM1 9402   1.032   8.131   1.236  0.0000  0.0000  0.0000
 9403OM     OM1 9403   0.784   8.181   1.188  0.0000  0.0000  0.0000
 9404OM     OM1 9404   7.629   0.013   0.731  0.0000  0.0000  0.0000
 9405OM     OM1 9405   3.864   9.211   1.366  0.0000  0.0000  0.0000
 9406OM     OM1 9406   5.394   0.165   0.248  0.0000  0.0000  0.0000
 9407OM     OM1 9407   5.235   1.873   0.791  0.0000  0.0000  0.0000
 9408OM     OM1 9408   5.246   2.057   0.621  0.0000  0.0000  0.0000
 9409OM     OM1 9409   8.715   1.194   0.603  0.0000  0.0000  0.0000
 9410OM     OM1 9410   7.272   6.227   0.451  0.0000  0.0000  0.0000
 9411OM     OM1 9411   7.316   6.015   0.596  0.0000  0.0000  0.0000
 9412OM     OM1 9412   6.928   7.049   8.931  0.0000  0.0000  0.0000
 9413OM     OM1 9413   6.690   7.127   8.881  0.0000  0.0000  0.0000
 9414OM     OM1 9414   5.270   9.477   8.932  0.0000  0.0000  0.0000
 9415OM     OM1 9415   9.233   8.125   8.676  0.0000  0.0000  0.0000
 9416OM     OM1 9416   9.193   8.391   8.682  0.0000  0.0000  0.0000
 9417OM     OM1 9417   9.152   8.255   8.887  0.0000  0.0000  0.0000
 9418OM     OM1 9418   8.989   8.207   8.701  0.0000  0.0000  0.0000
 9419OM     OM1 9419   6.135   6.670   9.043  0.0000  0.0000  0.0000
 9420OM     OM1 9420   5.082   5.930   9.127  0.0000  0.0000  0.0000
 9421OM     OM1 9421   5.262   5.812   9.291  0.0000  0.0000  0.0000
 9422OM     OM1 9422   5.007   5.755   9.303  0.0000  0.0000  0.0000
 9423OM     OM1 9423   8.807   1.516   8.436  0.0000  0.0000  0.0000
 9424OM     OM1 9424   8.977   1.327   8.368  0.0000  0.0000  0.0000
 9425OM     OM1 9425   9.014   1.465   8.594  0.0000  0.0000  0.0000
 9426OM     OM1 9426   1.956   9.413   0.084  0.0000  0.0000  0.0000
 9427OM     OM1 9427   6.464   5.843   0.371  0.0000  0.0000  0.0000
 9428OM     OM1 9428   2.550   0.655   0.554  0.0000  0.0000  0.0000
 9429OM     OM1 9429   2.519   0.903   0.595  0.0000  0.0000  0.0000
 9430OM     OM1 9430   1.608   9.367   1.234  0.0000  0.0000  0.0000
 9431OM     OM1 9431   6.251   7.303   8.901  0.0000  0.0000  0.0000
 9432OM     OM1 9432   2.635   5.723   9.459  0.0000  0.0000  0.0000
 9433OM     OM1 9433   2.714   5.689   0.094  0.0000  0.0000  0.0000
 9434OM     OM1 9434   2.171   3.231   0.010  0.0000  0.0000  0.0000
 9435OM     OM1 9435   8.538   6.768   9.130  0.0000  0.0000  0.0000
 9436OM     OM1 9436   8.304   6.660   9.212  0.0000  0.0000  0.0000
 9437OM     OM1 9437   6.108   0.140   0.359  0.0000  0.0000  0.0000
 9438OM     OM1 9438   9.440   4.777   0.119  0.0000  0.0000  0.0000
 9439OM     OM1 9439   9.538   5.002   0.196  0.0000  0.0000  0.0000
 9440OM     OM1 9440   0.554   6.608   0.004  0.0000  0.0000  0.0000
 9441OM     OM1 9441   8.920   8.326   8.392  0.0000  0.0000  0.0000
 9442OM     OM1 9442   3.958   5.430   0.271  0.0000  0.0000  0.0000
 9443OM     OM1 9443   3.844   5.365   0.501  0.0000  0.0000  0.0000
 9444OM     OM1 9444   8.899   1.230   1.101  0.0000  0.0000  0.0000
 9445OM     OM1 9445   5.715   1.011   0.075  0.0000  0.0000  0.0000
 9446OM     OM1 9446   5.967   0.971   0.090  0.0000  0.0000  0.0000
 9447OM     OM1 9447   5.800   0.820   9.546  0.0000  0.0000  0.0000
 9448OM     OM1 9448   3.225   7.573   8.490  0.0000  0.0000  0.0000
 9449OM     OM1 9449   2.966   7.594   8.499  0.0000  0.0000  0.0000
 9450OM     OM1 9450   3.132   7.759   8.641  0.0000  0.0000  0.0000
 9451OM     OM1 9451   7.629   6.383   9.326  0.0000  0.0000  0.0000
 9452OM     OM1 9452   7.723   6.578   0.098  0.0000  0.0000  0.0000
 9453OM     OM1 9453   3.641   1.249   8.955  0.0000  0.0000  0.0000
 9454OM     OM1 9454   3.753   1.263   9.200  0.0000  0.0000  0.0000
 9455OM     OM1 9455   3.979   0.717   9.363  0.0000  0.0000  0.0000
 9456OM     OM1 9456   4.870   9.134   8.315  0.0000  0.0000  0.0000
 9457OM     OM1 9457   7.133   6.924   9.049  0.0000  0.0000  0.0000
 9458OM     OM1 9458   6.941   1.950   8.324  0.0000  0.0000  0.0000
 9459OM     OM1 9459   6.902   6.490   0.955  0.0000  0.0000  0.0000
 9460OM     OM1 9460   7.110   6.570   1.105  0.0000  0.0000  0.0000
 9461OM     OM1 9461   5.851   3.034   0.173  0.0000  0.0000  0.0000
 9462OM     OM1 9462   5.735   2.804   0.177  0.0000  0.0000  0.0000
 9463OM     OM1 9463   5.887   2.875   0.378  0.0000  0.0000  0.0000
 9464OM     OM1 9464   6.313   4.637   8.362  0.0000  0.0000  0.0000
 9465OM     OM1 9465   2.823   4.784   1.093  0.0000  0.0000  0.0000
 9466OM     OM1 9466   1.474   3.905   0.822  0.0000  0.0000  0.0000
 9467OM     OM1 9467   8.864   7.299   0.778  0.0000  0.0000  0.0000
 9468OM     OM1 9468   8.777   7.191   0.550  0.0000  0.0000  0.0000
 9469OM     OM1 9469   4.479   0.537   0.945  0.0000  0.0000  0.0000
 9470OM     OM1 9470   4.655   0.686   0.834  0.0000  0.0000  0.0000
 9471OM     OM1 9471   4.713   0.554   1.062  0.0000  0.0000  0.0000
 9472OM     OM1 9472   8.820   2.471   8.981  0.0000  0.0000  0.0000
 9473OM     OM1 9473   4.975   5.197   9.107  0.0000  0.0000  0.0000
 9474OM     OM1 9474   4.956   5.133   9.350  0.0000  0.0000  0.0000
 9475OM     OM1 9475   4.732   8.502   8.909  0.0000  0.0000  0.0000
 9476OM     OM1 9476   4.581   8.587   9.104  0.0000  0.0000  0.0000
 9477OM     OM1 9477   4.684   8.351   9.110  0.0000  0.0000  0.0000
 9478OM     OM1 9478   2.875   1.884   1.060  0.0000  0.0000  0.0000
 9479OM     OM1 9479   7.012   1.677   1.074  0.0000  0.0000  0.0000
 9480OM     OM1 9480   6.866   1.575   0.892  0.0000  0.0000  0.0000
 9481OM     OM1 9481   3.695   8.679   1.111  0.0000  0.0000  0.0000
 9482OM     OM1 9482   7.129   2.679   8.640  0.0000  0.0000  0.0000
 9483OM     OM1 9483   3.104   3.425   8.836  0.0000  0.0000  0.0000
 9484OM     OM1 9484   1.674   5.118   9.470  0.0000  0.0000  0.0000
 9485OM     OM1 9485   1.355   5.420   0.017  0.0000  0.0000  0.0000
 9486OM     OM1 9486   5.253   0.057   9.212  0.0000  0.0000  0.0000
 9487OM     OM1 9487   4.968   9.463   9.405  0.0000  0.0000  0.0000
 9488OM     OM1 9488   9.443   6.471   0.663  0.0000  0.0000  0.0000
 9489OM     OM1 9489   9.232   6.521   0.523  0.0000  0.0000  0.0000
 9490OM     OM1 9490   7.698   1.216   0.071  0.0000  0.0000  0.0000
 9491OM     OM1 9491   7.868   1.159   0.243  0.0000  0.0000  0.0000
 9492OM     OM1 9492   5.326   7.226   1.320  0.0000  0.0000  0.0000
 9493OM     OM1 9493   4.185   7.078   0.913  0.0000  0.0000  0.0000
 9494OM     OM1 9494   7.733   6.437   0.324  0.0000  0.0000  0.0000
 9495OM     OM1 9495   0.426   0.542   9.167  0.0000  0.0000  0.0000
 9496OM     OM1 9496   7.996   4.965   9.318  0.0000  0.0000  0.0000
 9497OM     OM1 9497   0.217   6.021   9.358  0.0000  0.0000  0.0000
 9498OM     OM1 9498   0.119   6.257   9.347  0.0000  0.0000  0.0000
 9499OM     OM1 9499   4.094   1.615   1.116  0.0000  0.0000  0.0000
 9500OM     OM1 9500   5.198   4.498   1.262  0.0000  0.0000  0.0000
 9501OM     OM1 9501   4.696   0.932   9.229  0.0000  0.0000  0.0000
 9502OM     OM1 9502   4.509   1.104   9.157  0.0000  0.0000  0.0000
 9503OM     OM1 9503   7.660   7.257   9.124  0.0000  0.0000  0.0000
 9504OM     OM1 9504   8.992   4.729   8.487  0.0000  0.0000  0.0000
 9505OM     OM1 9505   1.342   7.379   1.260  0.0000  0.0000  0.0000
 9506OM     OM1 9506   1.165   7.546   1.166  0.0000  0.0000  0.0000
 9507OM     OM1 9507   0.968   0.241   0.703  0.0000  0.0000  0.0000
 9508OM     OM1 9508   0.882   0.010   0.592  0.0000  0.0000  0.0000
 9509OM     OM1 9509   1.422   4.854   1.018  0.0000  0.0000  0.0000
 9510OM     OM1 9510   4.563   0.121   8.462  0.0000  0.0000  0.0000
 9511OM     OM1 9511   4.872   0.445   8.596  0.0000  0.0000  0.0000
 9512OM     OM1 9512   4.687   0.549   8.744  0.0000  0.0000  0.0000
 9513OM     OM1 9513   1.726   4.686   9.227  0.0000  0.0000  0.0000
 9514OM     OM1 9514   1.577   4.697   9.447  0.0000  0.0000  0.0000
 9515OM     OM1 9515   1.478   4.712   9.198  0.0000  0.0000  0.0000
 9516OM     OM1 9516   1.619   4.911   9.308  0.0000  0.0000  0.0000
 9517OM     OM1 9517   3.942   7.152   1.017  0.0000  0.0000  0.0000
 9518OM     OM1 9518   6.954   2.288   9.041  0.0000  0.0000  0.0000
 9519OM     OM1 9519   0.877   5.010   0.973  0.0000  0.0000  0.0000
 9520OM     OM1 9520   5.101   1.461   8.425  0.0000  0.0000  0.0000
 9521OM     OM1 9521   3.852   1.412   0.711  0.0000  0.0000  0.0000
 9522OM     OM1 9522   8.540   2.881   0.225  0.0000  0.0000  0.0000
 9523OM     OM1 9523   2.785   1.729   9.465  0.0000  0.0000  0.0000
 9524OM     OM1 9524   3.017   1.852   9.435  0.0000  0.0000  0.0000
 9525OM     OM1 9525   8.659   2.803   0.714  0.0000  0.0000  0.0000
 9526OM     OM1 9526   7.091   1.881   0.921  0.0000  0.0000  0.0000
 9527OM     OM1 9527   8.767   6.676   1.007  0.0000  0.0000  0.0000
 9528OM     OM1 9528   8.720   6.554   0.784  0.0000  0.0000  0.0000
 9529OM     OM1 9529   1.464   2.717   0.633  0.0000  0.0000  0.0000
 9530OM     OM1 9530   1.246   2.798   0.504  0.0000  0.0000  0.0000
 9531OM     OM1 9531   1.247   2.706   0.760  0.0000  0.0000  0.0000
 9532OM     OM1 9532   3.119   3.912   0.097  0.0000  0.0000  0.0000
 9533OM     OM1 9533   2.949   3.945   9.511  0.0000  0.0000  0.0000
 9534OM     OM1 9534   2.922   4.183   9.382  0.0000  0.0000  0.0000
 9535OM     OM1 9535   1.880   9.160   0.037  0.0000  0.0000  0.0000
 9536OM     OM1 9536   7.635   8.057   0.128  0.0000  0.0000  0.0000
 9537OM     OM1 9537   7.703   7.861   9.586  0.0000  0.0000  0.0000
 9538OM     OM1 9538   6.373   9.390   8.912  0.0000  0.0000  0.0000
 9539OM     OM1 9539   6.408   0.025   8.836  0.0000  0.0000  0.0000
 9540OM     OM1 9540   0.770   4.842   0.133  0.0000  0.0000  0.0000
 9541OM     OM1 9541   6.549   9.307   1.156  0.0000  0.0000  0.0000
 9542OM     OM1 9542   6.326   9.176   1.181  0.0000  0.0000  0.0000
 9543OM     OM1 9543   6.465   9.152   0.961  0.0000  0.0000  0.0000
 9544OM     OM1 9544   6.348   9.382   1.014  0.0000  0.0000  0.0000
 9545OM     OM1 9545   8.065   1.957   9.295  0.0000  0.0000  0.0000
 9546OM     OM1 9546   1.901   5.813   0.232  0.0000  0.0000  0.0000
 9547OM     OM1 9547   6.795   9.080   8.521  0.0000  0.0000  0.0000
 9548OM     OM1 9548   6.988   8.964   8.390  0.0000  0.0000  0.0000
 9549OM     OM1 9549   1.938   8.944   8.241  0.0000  0.0000  0.0000
 9550OM     OM1 9550   4.793   2.869   0.869  0.0000  0.0000  0.0000
 9551OM     OM1 9551   4.867   2.614   0.899  0.0000  0.0000  0.0000
 9552OM     OM1 9552   0.676   1.337   9.041  0.0000  0.0000  0.0000
 9553OM     OM1 9553   0.792   1.552   8.938  0.0000  0.0000  0.0000
 9554OM     OM1 9554   0.792   1.337   8.801  0.0000  0.0000  0.0000
 9555OM     OM1 9555   5.990   7.162   0.612  0.0000  0.0000  0.0000
 9556OM     OM1 9556   6.558   6.351   8.503  0.0000  0.0000  0.0000
 9557OM     OM1 9557   6.635   6.102   8.511  0.0000  0.0000  0.0000
 9558OM     OM1 9558   7.788   3.801   1.438  0.0000  0.0000  0.0000
 9559OM     OM1 9559   3.427   6.363   9.141  0.0000  0.0000  0.0000
 9560OM     OM1 9560   3.693   6.364   9.189  0.0000  0.0000  0.0000
 9561OM     OM1 9561   8.266   6.908   8.318  0.0000  0.0000  0.0000
 9562OM     OM1 9562   8.262   6.644   8.379  0.0000  0.0000  0.0000
 9563OM     OM1 9563   2.152   7.360   1.308  0.0000  0.0000  0.0000
 9564OM     OM1 9564   3.080   8.502   8.722  0.0000  0.0000  0.0000
 9565OM     OM1 9565   7.221   4.550   0.912  0.0000  0.0000  0.0000
 9566OM     OM1 9566   7.414   4.724   0.936  0.0000  0.0000  0.0000
 9567OM     OM1 9567   2.456   5.660   0.033  0.0000  0.0000  0.0000
 9568OM     OM1 9568   5.999   2.883   8.300  0.0000  0.0000  0.0000
 9569OM     OM1 9569   9.356   5.977   8.874  0.0000  0.0000  0.0000
 9570OM     OM1 9570   9.544   5.820   8.783  0.0000  0.0000  0.0000
 9571OM     OM1 9571   1.851   9.030   0.259  0.0000  0.0000  0.0000
 9572OM     OM1 9572   1.654   4.441   9.240  0.0000  0.0000  0.0000
 9573OM     OM1 9573   3.891   8.676   8.556  0.0000  0.0000  0.0000
 9574OM     OM1 9574   4.125   1.625   8.459  0.0000  0.0000  0.0000
 9575OM     OM1 9575   4.279   1.408   8.503  0.0000  0.0000  0.0000
 9576OM     OM1 9576   2.735   2.837   8.524  0.0000  0.0000  0.0000
 9577OM     OM1 9577   2.786   2.698   8.740  0.0000  0.0000  0.0000
 9578OM     OM1 9578   1.586   4.177   8.456  0.0000  0.0000  0.0000
 9579OM     OM1 9579   4.331   9.292   9.038  0.0000  0.0000  0.0000
 9580OM     OM1 9580   7.867   8.859   0.028  0.0000  0.0000  0.0000
 9581OM     OM1 9581   6.305   3.530   1.191  0.0000  0.0000  0.0000
 9582OM     OM1 9582   6.115   3.611   1.040  0.0000  0.0000  0.0000
 9583OM     OM1 9583   6.111   3.665   1.294  0.0000  0.0000  0.0000
 9584OM     OM1 9584   7.075   3.426   8.797  0.0000  0.0000  0.0000
 9585OM     OM1 9585   7.045   3.632   8.617  0.0000  0.0000  0.0000
 9586OM     OM1 9586   4.151   7.231   0.596  0.0000  0.0000  0.0000
 9587OM     OM1 9587   7.811   7.572   0.916  0.0000  0.0000  0.0000
 9588OM     OM1 9588   0.629   7.999   0.731  0.0000  0.0000  0.0000
 9589OM     OM1 9589   0.880   7.989   0.807  0.0000  0.0000  0.0000
 9590OM     OM1 9590   0.801   8.126   0.590  0.0000  0.0000  0.0000
 9591OM     OM1 9591   6.233   9.541   0.592  0.0000  0.0000  0.0000
 9592OM     OM1 9592   6.179   9.468   0.835  0.0000  0.0000  0.0000
 9593OM     OM1 9593   6.123   3.841   0.916  0.0000  0.0000  0.0000
 9594OM     OM1 9594   6.388   3.864   0.909  0.0000  0.0000  0.0000
 9595OM     OM1 9595   3.829   9.562   0.659  0.0000  0.0000  0.0000
 9596OM     OM1 9596   3.673   0.166   0.624  0.0000  0.0000  0.0000
 9597OM     OM1 9597   3.719   9.502   0.874  0.0000  0.0000  0.0000
 9598OM     OM1 9598   9.064   2.045   8.549  0.0000  0.0000  0.0000
 9599OM     OM1 9599   8.825   2.148   8.603  0.0000  0.0000  0.0000
 9600OM     OM1 9600   7.669   5.063   0.729  0.0000  0.0000  0.0000
 9601OM     OM1 9601   7.782   3.047   8.477  0.0000  0.0000  0.0000
 9602OM     OM1 9602   7.972   3.090   8.309  0.0000  0.0000  0.0000
 9603OM     OM1 9603   9.515   1.492   8.469  0.0000  0.0000  0.0000
 9604OM     OM1 9604   6.340   0.026   9.185  0.0000  0.0000  0.0000
 9605OM     OM1 9605   6.509   9.438   9.128  0.0000  0.0000  0.0000
 9606OM     OM1 9606   9.334   0.439   8.367  0.0000  0.0000  0.0000
 9607OM     OM1 9607   9.539   7.567   0.726  0.0000  0.0000  0.0000
 9608OM     OM1 9608   9.284   7.600   0.668  0.0000  0.0000  0.0000
 9609OM     OM1 9609   5.105   8.036   9.492  0.0000  0.0000  0.0000
 9610OM     OM1 9610   5.208   7.933   9.274  0.0000  0.0000  0.0000
 9611OM     OM1 9611   5.077   8.157   9.270  0.0000  0.0000  0.0000
 9612OM     OM1 9612   4.599   1.366   0.301  0.0000  0.0000  0.0000
 9613OM     OM1 9613   4.646   1.562   0.469  0.0000  0.0000  0.0000
 9614OM     OM1 9614   7.622   3.837   8.623  0.0000  0.0000  0.0000
 9615OM     OM1 9615   7.604   4.093   8.637  0.0000  0.0000  0.0000
 9616OM     OM1 9616   0.452   2.799   8.684  0.0000  0.0000  0.0000
 9617OM     OM1 9617   0.672   2.827   8.806  0.0000  0.0000  0.0000
 9618OM     OM1 9618   9.017   3.081   0.623  0.0000  0.0000  0.0000
 9619OM     OM1 9619   6.437   5.135   9.218  0.0000  0.0000  0.0000
 9620OM     OM1 9620   3.774   4.112   9.056  0.0000  0.0000  0.0000
 9621OM     OM1 9621   6.544   9.067   8.505  0.0000  0.0000  0.0000
 9622OM     OM1 9622   8.075   0.156   8.224  0.0000  0.0000  0.0000
 9623OM     OM1 9623   0.678   8.721   8.557  0.0000  0.0000  0.0000
 9624OM     OM1 9624   0.792   8.493   8.637  0.0000  0.0000  0.0000
 9625OM     OM1 9625   0.942   8.685   8.586  0.0000  0.0000  0.0000
 9626OM     OM1 9626   5.868   5.234   0.362  0.0000  0.0000  0.0000
 9627OM     OM1 9627   6.097   5.207   0.249  0.0000  0.0000  0.0000
 9628OM     OM1 9628   5.998   5.015   0.409  0.0000  0.0000  0.0000
 9629OM     OM1 9629   6.096   5.232   0.507  0.0000  0.0000  0.0000
 9630OM     OM1 9630   8.393   4.508   0.894  0.0000  0.0000  0.0000
 9631OM     OM1 9631   8.447   4.698   1.077  0.0000  0.0000  0.0000
 9632OM     OM1 9632   8.367   6.556   8.832  0.0000  0.0000  0.0000
 9633OM     OM1 9633   8.486   6.327   8.884  0.0000  0.0000  0.0000
 9634OM     OM1 9634   8.216   6.707   8.980  0.0000  0.0000  0.0000
 9635OM     OM1 9635   1.828   3.108   0.889  0.0000  0.0000  0.0000
 9636OM     OM1 9636   1.569   3.111   0.920  0.0000  0.0000  0.0000
 9637OM     OM1 9637   3.653   1.350   9.428  0.0000  0.0000  0.0000
 9638OM     OM1 9638   2.660   7.980   0.882  0.0000  0.0000  0.0000
 9639OM     OM1 9639   2.533   8.199   0.897  0.0000  0.0000  0.0000
 9640OM     OM1 9640   0.138   4.047   8.957  0.0000  0.0000  0.0000
 9641OM     OM1 9641   7.168   7.547   0.305  0.0000  0.0000  0.0000
 9642OM     OM1 9642   4.127   1.202   8.455  0.0000  0.0000  0.0000
 9643OM     OM1 9643   3.931   1.128   8.300  0.0000  0.0000  0.0000
 9644OM     OM1 9644   3.991   5.001   1.326  0.0000  0.0000  0.0000
 9645OM     OM1 9645   3.904   5.246   1.303  0.0000  0.0000  0.0000
 9646OM     OM1 9646   4.928   4.448   8.854  0.0000  0.0000  0.0000
 9647OM     OM1 9647   5.010   4.693   8.820  0.0000  0.0000  0.0000
 9648OM     OM1 9648   8.198   0.858   1.245  0.0000  0.0000  0.0000
 9649OM     OM1 9649   5.154   4.211   0.872  0.0000  0.0000  0.0000
 9650OM     OM1 9650   5.233   4.405   1.020  0.0000  0.0000  0.0000
 9651OM     OM1 9651   5.414   4.239   0.917  0.0000  0.0000  0.0000
 9652OM     OM1 9652   2.969   1.076   1.153  0.0000  0.0000  0.0000
 9653OM     OM1 9653   5.583   0.276   8.335  0.0000  0.0000  0.0000
 9654OM     OM1 9654   8.668   0.455   1.126  0.0000  0.0000  0.0000
 9655OM     OM1 9655   8.142   9.375   0.824  0.0000  0.0000  0.0000
 9656OM     OM1 9656   8.344   9.361   0.974  0.0000  0.0000  0.0000
 9657OM     OM1 9657   7.592   0.434   9.301  0.0000  0.0000  0.0000
 9658OM     OM1 9658   3.998   1.561   0.881  0.0000  0.0000  0.0000
 9659OM     OM1 9659   4.061   1.542   0.636  0.0000  0.0000  0.0000
 9660OM     OM1 9660   3.853   1.676   0.689  0.0000  0.0000  0.0000
 9661OM     OM1 9661   4.256   4.192   8.570  0.0000  0.0000  0.0000
 9662OM     OM1 9662   4.012   4.125   8.588  0.0000  0.0000  0.0000
 9663OM     OM1 9663   4.160   4.025   8.394  0.0000  0.0000  0.0000
 9664OM     OM1 9664   4.872   5.377   8.945  0.0000  0.0000  0.0000
 9665OM     OM1 9665   3.236   1.988   8.560  0.0000  0.0000  0.0000
 9666OM     OM1 9666   3.049   2.101   8.703  0.0000  0.0000  0.0000
 9667OM     OM1 9667   4.251   6.397   8.487  0.0000  0.0000  0.0000
 9668OM     OM1 9668   4.348   6.611   8.365  0.0000  0.0000  0.0000
 9669OM     OM1 9669   4.392   6.571   8.616  0.0000  0.0000  0.0000
 9670OM     OM1 9670   4.515   6.422   8.451  0.0000  0.0000  0.0000
 9671OM     OM1 9671   6.601   4.183   9.131  0.0000  0.0000  0.0000
 9672OM     OM1 9672   8.585   5.355   8.229  0.0000  0.0000  0.0000
 9673OM     OM1 9673   0.618   0.047   1.195  0.0000  0.0000  0.0000
 9674OM     OM1 9674   6.235   4.754   8.583  0.0000  0.0000  0.0000
 9675OM     OM1 9675   7.571   1.899   0.284  0.0000  0.0000  0.0000
 9676OM     OM1 9676   1.296   8.077   9.499  0.0000  0.0000  0.0000
 9677OM     OM1 9677   0.190   3.064   1.014  0.0000  0.0000  0.0000
 9678OM     OM1 9678   0.326   3.046   1.232  0.0000  0.0000  0.0000
 9679OM     OM1 9679   0.130   2.886   1.200  0.0000  0.0000  0.0000
 9680OM     OM1 9680   9.438   4.761   9.234  0.0000  0.0000  0.0000
 9681OM     OM1 9681   9.407   4.694   9.481  0.0000  0.0000  0.0000
 9682OM     OM1 9682   9.195   4.761   9.339  0.0000  0.0000  0.0000
 9683OM     OM1 9683   6.727   1.950   8.477  0.0000  0.0000  0.0000
 9684OM     OM1 9684   2.614   4.204   9.031  0.0000  0.0000  0.0000
 9685OM     OM1 9685   3.781   6.252   8.980  0.0000  0.0000  0.0000
 9686OM     OM1 9686   3.560   6.278   8.814  0.0000  0.0000  0.0000
 9687OM     OM1 9687   9.147   1.000   0.168  0.0000  0.0000  0.0000
 9688OM     OM1 9688   9.109   0.886   0.388  0.0000  0.0000  0.0000
 9689OM     OM1 9689   5.457   6.176   9.258  0.0000  0.0000  0.0000
 9690OM     OM1 9690   9.395   6.580   8.231  0.0000  0.0000  0.0000
 9691OM     OM1 9691   6.764   6.445   8.378  0.0000  0.0000  0.0000
 9692OM     OM1 9692   8.716   0.354   0.351  0.0000  0.0000  0.0000
 9693OM     OM1 9693   1.712   9.393   9.043  0.0000  0.0000  0.0000
 9694OM     OM1 9694   5.376   5.630   0.254  0.0000  0.0000  0.0000
 9695OM     OM1 9695   5.143   5.559   0.348  0.0000  0.0000  0.0000
 9696OM     OM1 9696   2.045   0.299   8.919  0.0000  0.0000  0.0000
 9697OM     OM1 9697   2.153   0.406   9.135  0.0000  0.0000  0.0000
 9698OM     OM1 9698   3.956   4.352   8.715  0.0000  0.0000  0.0000
 9699OM     OM1 9699   5.509   3.761   1.091  0.0000  0.0000  0.0000
 9700OM     OM1 9700   5.505   4.017   1.030  0.0000  0.0000  0.0000
 9701OM     OM1 9701   5.730   3.924   1.102  0.0000  0.0000  0.0000
 9702OM     OM1 9702   9.280   3.614   9.185  0.0000  0.0000  0.0000
 9703OM     OM1 9703   9.458   3.785   9.237  0.0000  0.0000  0.0000
 9704OM     OM1 9704   9.351   3.690   9.440  0.0000  0.0000  0.0000
 9705OM     OM1 9705   4.018   7.156   9.242  0.0000  0.0000  0.0000
 9706OM     OM1 9706   4.260   7.060   9.242  0.0000  0.0000  0.0000
 9707OM     OM1 9707   3.922   7.202   9.479  0.0000  0.0000  0.0000
 9708OM     OM1 9708   3.071   6.653   8.448  0.0000  0.0000  0.0000
 9709OM     OM1 9709   7.013   2.897   0.089  0.0000  0.0000  0.0000
 9710OM     OM1 9710   7.695   6.448   0.574  0.0000  0.0000  0.0000
 9711OM     OM1 9711   7.513   6.328   0.419  0.0000  0.0000  0.0000
 9712OM     OM1 9712   8.495   0.819   8.587  0.0000  0.0000  0.0000
 9713OM     OM1 9713   8.245   0.828   8.509  0.0000  0.0000  0.0000
 9714OM     OM1 9714   1.177   2.290   8.577  0.0000  0.0000  0.0000
 9715OM     OM1 9715   1.036   2.499   8.657  0.0000  0.0000  0.0000
 9716OM     OM1 9716   2.732   0.973   0.461  0.0000  0.0000  0.0000
 9717OM     OM1 9717   2.935   1.095   0.333  0.0000  0.0000  0.0000
 9718OM     OM1 9718   6.301   0.315   0.315  0.0000  0.0000  0.0000
 9719OM     OM1 9719   1.300   5.255   9.187  0.0000  0.0000  0.0000
 9720OM     OM1 9720   1.102   5.417   9.237  0.0000  0.0000  0.0000
 9721OM     OM1 9721   1.060   5.180   9.142  0.0000  0.0000  0.0000
 9722OM     OM1 9722   8.500   8.075   0.628  0.0000  0.0000  0.0000
 9723OM     OM1 9723   8.708   8.129   0.784  0.0000  0.0000  0.0000
 9724OM     OM1 9724   9.271   0.268   8.554  0.0000  0.0000  0.0000
 9725OM     OM1 9725   6.347   0.067   0.387  0.0000  0.0000  0.0000
 9726OM     OM1 9726   8.651   6.998   9.062  0.0000  0.0000  0.0000
 9727OM     OM1 9727   0.263   7.313   1.237  0.0000  0.0000  0.0000
 9728OM     OM1 9728   7.921   6.590   0.586  0.0000  0.0000  0.0000
 9729OM     OM1 9729   3.623   0.295   0.240  0.0000  0.0000  0.0000
 9730OM     OM1 9730   3.515   0.301   0.476  0.0000  0.0000  0.0000
 9731OM     OM1 9731   2.737   1.949   9.087  0.0000  0.0000  0.0000
 9732OM     OM1 9732   5.173   6.764   1.160  0.0000  0.0000  0.0000
 9733OM     OM1 9733   5.235   6.566   1.001  0.0000  0.0000  0.0000
 9734OM     OM1 9734   4.999   6.571   1.100  0.0000  0.0000  0.0000
 9735OM     OM1 9735   5.075   6.742   0.916  0.0000  0.0000  0.0000
 9736OM     OM1 9736   2.457   7.156   9.165  0.0000  0.0000  0.0000
 9737OM     OM1 9737   2.377   7.104   9.404  0.0000  0.0000  0.0000
 9738OM     OM1 9738   2.282   6.968   9.201  0.0000  0.0000  0.0000
 9739OM     OM1 9739   7.100   1.366   0.218  0.0000  0.0000  0.0000
 9740OM     OM1 9740   6.415   8.002   8.463  0.0000  0.0000  0.0000
 9741OM     OM1 9741   4.582   2.531   9.482  0.0000  0.0000  0.0000
 9742OM     OM1 9742   7.541   6.886   8.563  0.0000  0.0000  0.0000
 9743OM     OM1 9743   7.766   6.891   8.431  0.0000  0.0000  0.0000
 9744OM     OM1 9744   5.445   5.339   1.133  0.0000  0.0000  0.0000
 9745OM     OM1 9745   5.274   5.425   0.958  0.0000  0.0000  0.0000
 9746OM     OM1 9746   7.034   8.077   0.904  0.0000  0.0000  0.0000
 9747OM     OM1 9747   6.786   8.105   1.015  0.0000  0.0000  0.0000
 9748OM     OM1 9748   7.465   2.155   0.683  0.0000  0.0000  0.0000
 9749OM     OM1 9749   7.133   8.845   8.559  0.0000  0.0000  0.0000
 9750OM     OM1 9750   7.223   9.025   8.378  0.0000  0.0000  0.0000
 9751OM     OM1 9751   0.063   2.635   1.168  0.0000  0.0000  0.0000
 9752OM     OM1 9752   0.111   2.543   0.929  0.0000  0.0000  0.0000
 9753OM     OM1 9753   9.470   2.559   1.005  0.0000  0.0000  0.0000
 9754OM     OM1 9754   5.153   0.950   9.237  0.0000  0.0000  0.0000
 9755OM     OM1 9755   5.759   5.640   1.092  0.0000  0.0000  0.0000
 9756OM     OM1 9756   5.954   5.464   1.143  0.0000  0.0000  0.0000
 9757OM     OM1 9757   5.028   3.503   0.663  0.0000  0.0000  0.0000
 9758OM     OM1 9758   5.158   3.325   0.812  0.0000  0.0000  0.0000
 9759OM     OM1 9759   6.724   3.176   9.381  0.0000  0.0000  0.0000
 9760OM     OM1 9760   6.572   2.986   9.304  0.0000  0.0000  0.0000
 9761OM     OM1 9761   9.106   1.879   8.744  0.0000  0.0000  0.0000
 9762OM     OM1 9762   9.206   1.845   0.225  0.0000  0.0000  0.0000
 9763OM     OM1 9763   9.024   2.036   0.206  0.0000  0.0000  0.0000
 9764OM     OM1 9764   6.926   6.066   1.164  0.0000  0.0000  0.0000
 9765OM     OM1 9765   6.839   6.175   1.388  0.0000  0.0000  0.0000
 9766OM     OM1 9766   9.080   3.106   8.400  0.0000  0.0000  0.0000
 9767OM     OM1 9767   0.619   5.062   1.026  0.0000  0.0000  0.0000
 9768OM     OM1 9768   0.819   5.131   1.192  0.0000  0.0000  0.0000
 9769OM     OM1 9769   6.122   5.353   0.732  0.0000  0.0000  0.0000
 9770OM     OM1 9770   6.034   5.103   0.716  0.0000  0.0000  0.0000
 9771OM     OM1 9771   1.146   2.375   1.121  0.0000  0.0000  0.0000
 9772OM     OM1 9772   1.036   2.181   1.004  0.0000  0.0000  0.0000
 9773OM     OM1 9773   1.429   7.760   8.633  0.0000  0.0000  0.0000
 9774OM     OM1 9774   5.724   5.871   1.189  0.0000  0.0000  0.0000
 9775OM     OM1 9775   6.976   4.185   0.254  0.0000  0.0000  0.0000
 9776OM     OM1 9776   1.108   2.805   0.276  0.0000  0.0000  0.0000
 9777OM     OM1 9777   1.463   2.708   0.077  0.0000  0.0000  0.0000
 9778OM     OM1 9778   4.937   9.402   8.560  0.0000  0.0000  0.0000
 9779OM     OM1 9779   5.067   9.480   8.775  0.0000  0.0000  0.0000
 9780OM     OM1 9780   6.445   1.063   0.221  0.0000  0.0000  0.0000
 9781OM     OM1 9781   2.326   0.699   8.510  0.0000  0.0000  0.0000
 9782OM     OM1 9782   2.171   0.616   8.707  0.0000  0.0000  0.0000
 9783OM     OM1 9783   0.101   7.002   9.361  0.0000  0.0000  0.0000
 9784OM     OM1 9784   0.120   7.270   9.385  0.0000  0.0000  0.0000
 9785OM     OM1 9785   0.289   7.134   9.244  0.0000  0.0000  0.0000
 9786OM     OM1 9786   3.580   9.053   0.411  0.0000  0.0000  0.0000
 9787OM     OM1 9787   6.361   6.770   0.086  0.0000  0.0000  0.0000
 9788OM     OM1 9788   6.570   6.825   9.564  0.0000  0.0000  0.0000
 9789OM     OM1 9789   2.704   7.256   0.723  0.0000  0.0000  0.0000
 9790OM     OM1 9790   2.856   3.311   0.591  0.0000  0.0000  0.0000
 9791OM     OM1 9791   2.808   3.521   0.747  0.0000  0.0000  0.0000
 9792OM     OM1 9792   2.919   3.277   0.835  0.0000  0.0000  0.0000
 9793OM     OM1 9793   9.001   1.971   8.961  0.0000  0.0000  0.0000
 9794OM     OM1 9794   1.676   1.550   8.937  0.0000  0.0000  0.0000
 9795OM     OM1 9795   1.518   1.647   8.738  0.0000  0.0000  0.0000
 9796OM     OM1 9796   9.482   0.819   1.029  0.0000  0.0000  0.0000
 9797OM     OM1 9797   9.453   1.005   1.224  0.0000  0.0000  0.0000
 9798OM     OM1 9798   7.421   7.286   0.715  0.0000  0.0000  0.0000
 9799OM     OM1 9799   7.478   7.164   0.494  0.0000  0.0000  0.0000
 9800OM     OM1 9800   0.262   1.905   0.165  0.0000  0.0000  0.0000
 9801OM     OM1 9801   0.310   1.654   0.092  0.0000  0.0000  0.0000
 9802OM     OM1 9802   7.060   5.875   1.060  0.0000  0.0000  0.0000
 9803OM     OM1 9803   7.142   6.129   1.034  0.0000  0.0000  0.0000
 9804OM     OM1 9804   2.667   5.407   8.383  0.0000  0.0000  0.0000
 9805OM     OM1 9805   3.842   1.905   9.396  0.0000  0.0000  0.0000
 9806OM     OM1 9806   3.405   1.801   8.628  0.0000  0.0000  0.0000
 9807OM     OM1 9807   5.026   6.989   8.528  0.0000  0.0000  0.0000
 9808OM     OM1 9808   8.934   9.458   8.416  0.0000  0.0000  0.0000
 9809OM     OM1 9809   7.263   7.560   9.398  0.0000  0.0000  0.0000
 9810OM     OM1 9810   7.018   7.562   9.485  0.0000  0.0000  0.0000
 9811OM     OM1 9811   8.001   1.796   0.907  0.0000  0.0000  0.0000
 9812OM     OM1 9812   8.109   1.860   0.679  0.0000  0.0000  0.0000
 9813OM     OM1 9813   2.129   5.782   9.418  0.0000  0.0000  0.0000
 9814OM     OM1 9814   1.931   5.803   9.582  0.0000  0.0000  0.0000
 9815OM     OM1 9815   1.897   5.696   9.349  0.0000  0.0000  0.0000
 9816OM     OM1 9816   0.241   8.162   9.280  0.0000  0.0000  0.0000
 9817OM     OM1 9817   0.344   4.620   0.576  0.0000  0.0000  0.0000
 9818OM     OM1 9818   0.127   4.753   0.540  0.0000  0.0000  0.0000
 9819OM     OM1 9819   2.907   7.370   0.831  0.0000  0.0000  0.0000
 9820OM     OM1 9820   2.934   7.536   0.639  0.0000  0.0000  0.0000
 9821OM     OM1 9821   6.737   1.674   9.045  0.0000  0.0000  0.0000
 9822OM     OM1 9822   8.759   1.057   8.391  0.0000  0.0000  0.0000
 9823OM     OM1 9823   8.940   1.117   8.219  0.0000  0.0000  0.0000
 9824OM     OM1 9824   1.352   8.214   8.550  0.0000  0.0000  0.0000
 9825OM     OM1 9825   7.532   2.125   1.109  0.0000  0.0000  0.0000
 9826OM     OM1 9826   2.208   6.027   9.390  0.0000  0.0000  0.0000
 9827OM     OM1 9827   8.356   2.955   8.393  0.0000  0.0000  0.0000
 9828OM     OM1 9828   8.214   3.176   8.344  0.0000  0.0000  0.0000
 9829OM     OM1 9829   2.133   7.505   9.187  0.0000  0.0000  0.0000
 9830OM     OM1 9830   2.323   7.670   9.274  0.0000  0.0000  0.0000
 9831OM     OM1 9831   1.173   4.166   0.402  0.0000  0.0000  0.0000
 9832OM     OM1 9832   1.060   4.175   0.170  0.0000  0.0000  0.0000
 9833OM     OM1 9833   0.986   4.004   0.351  0.0000  0.0000  0.0000
 9834OM     OM1 9834   6.598   9.270   8.929  0.0000  0.0000  0.0000
 9835OM     OM1 9835   0.955   0.271   8.450  0.0000  0.0000  0.0000
 9836OM     OM1 9836   8.505   2.120   9.382  0.0000  0.0000  0.0000
 9837OM     OM1 9837   8.362   1.893   9.401  0.0000  0.0000  0.0000
 9838OM     OM1 9838   8.245   2.120   9.395  0.0000  0.0000  0.0000
 9839OM     OM1 9839   7.014   1.036   9.349  0.0000  0.0000  0.0000
 9840OM     OM1 9840   7.183   0.841   9.381  0.0000  0.0000  0.0000
 9841OM     OM1 9841   1.575   8.499   0.420  0.0000  0.0000  0.0000
 9842OM     OM1 9842   1.504   8.747   0.400  0.0000  0.0000  0.0000
 9843OM     OM1 9843   2.975   7.334   8.502  0.0000  0.0000  0.0000
 9844OM     OM1 9844   3.011   7.122   8.359  0.0000  0.0000  0.0000
 9845OM     OM1 9845   3.194   1.876   0.021  0.0000  0.0000  0.0000
 9846OM     OM1 9846   3.303   1.802   0.249  0.0000  0.0000  0.0000
 9847OM     OM1 9847   3.233   1.623   0.056  0.0000  0.0000  0.0000
 9848OM     OM1 9848   7.332   4.016   9.311  0.0000  0.0000  0.0000
 9849OM     OM1 9849   0.624   5.475   0.507  0.0000  0.0000  0.0000
 9850OM     OM1 9850   0.860   5.387   0.539  0.0000  0.0000  0.0000
 9851OM     OM1 9851   8.566   9.547   0.933  0.0000  0.0000  0.0000
 9852OM     OM1 9852   5.942   1.698   1.404  0.0000  0.0000  0.0000
 9853OM     OM1 9853   6.160   1.678   1.277  0.0000  0.0000  0.0000
 9854OM     OM1 9854   1.988   3.305   0.191  0.0000  0.0000  0.0000
 9855OM     OM1 9855   3.850   8.929   8.591  0.0000  0.0000  0.0000
 9856OM     OM1 9856   3.760   9.167   8.656  0.0000  0.0000  0.0000
 9857OM     OM1 9857   1.051   7.138   0.135  0.0000  0.0000  0.0000
 9858OM     OM1 9858   2.905   0.010   8.382  0.0000  0.0000  0.0000
 9859OM     OM1 9859   3.052   0.219   8.310  0.0000  0.0000  0.0000
 9860OM     OM1 9860   1.156   8.305   0.554  0.0000  0.0000  0.0000
 9861OM     OM1 9861   0.927   8.327   0.669  0.0000  0.0000  0.0000
 9862OM     OM1 9862   3.194   0.949   9.482  0.0000  0.0000  0.0000
 9863OM     OM1 9863   2.976   0.964   9.344  0.0000  0.0000  0.0000
 9864OM     OM1 9864   5.316   7.356   8.823  0.0000  0.0000  0.0000
 9865OM     OM1 9865   1.668   3.720   0.788  0.0000  0.0000  0.0000
 9866OM     OM1 9866   1.861   3.795   0.638  0.0000  0.0000  0.0000
 9867OM     OM1 9867   4.468   1.681   0.799  0.0000  0.0000  0.0000
 9868OM     OM1 9868   4.459   1.461   0.951  0.0000  0.0000  0.0000
 9869OM     OM1 9869   4.252   1.606   0.903  0.0000  0.0000  0.0000
 9870OM     OM1 9870   3.204   6.892   9.001  0.0000  0.0000  0.0000
 9871OM     OM1 9871   4.245   0.265   0.638  0.0000  0.0000  0.0000
 9872OM     OM1 9872   4.425   0.166   0.470  0.0000  0.0000  0.0000
 9873OM     OM1 9873   6.016   4.029   8.590  0.0000  0.0000  0.0000
 9874OM     OM1 9874   5.908   3.973   8.817  0.0000  0.0000  0.0000
 9875OM     OM1 9875   7.634   8.655   8.537  0.0000  0.0000  0.0000
 9876OM     OM1 9876   7.769   8.520   8.717  0.0000  0.0000  0.0000
 9877OM     OM1 9877   7.985   1.638   1.117  0.0000  0.0000  0.0000
 9878OM     OM1 9878   7.919   1.545   0.878  0.0000  0.0000  0.0000
 9879OM     OM1 9879   4.553   8.280   0.438  0.0000  0.0000  0.0000
 9880OM     OM1 9880   1.314   6.804   0.774  0.0000  0.0000  0.0000
 9881OM     OM1 9881   1.215   6.885   0.550  0.0000  0.0000  0.0000
 9882OM     OM1 9882   2.213   6.135   8.732  0.0000  0.0000  0.0000
 9883OM     OM1 9883   2.322   6.261   8.933  0.0000  0.0000  0.0000
 9884OM     OM1 9884   6.221   6.648   0.276  0.0000  0.0000  0.0000
 9885OM     OM1 9885   0.439   9.336   0.897  0.0000  0.0000  0.0000
 9886OM     OM1 9886   1.163   7.967   9.305  0.0000  0.0000  0.0000
 9887OM     OM1 9887   4.932   2.209   0.242  0.0000  0.0000  0.0000
 9888OM     OM1 9888   5.076   2.576   0.418  0.0000  0.0000  0.0000
 9889OM     OM1 9889   5.041   2.454   0.203  0.0000  0.0000  0.0000
 9890OM     OM1 9890   5.629   6.375   9.208  0.0000  0.0000  0.0000
 9891OM     OM1 9891   5.854   6.509   9.239  0.0000  0.0000  0.0000
 9892OM     OM1 9892   5.630   6.626   9.207  0.0000  0.0000  0.0000
 9893OM     OM1 9893   4.086   0.687   0.528  0.0000  0.0000  0.0000
 9894OM     OM1 9894   4.191   0.510   0.671  0.0000  0.0000  0.0000
 9895OM     OM1 9895   2.901   2.476   9.250  0.0000  0.0000  0.0000
 9896OM     OM1 9896   9.150   6.605   0.295  0.0000  0.0000  0.0000
 9897OM     OM1 9897   4.064   0.184   0.000  0.0000  0.0000  0.0000
 9898OM     OM1 9898   3.870   0.275   0.143  0.0000  0.0000  0.0000
 9899OM     OM1 9899   6.774   3.195   1.279  0.0000  0.0000  0.0000
 9900OM     OM1 9900   8.085   1.168   0.362  0.0000  0.0000  0.0000
 9901OM     OM1 9901   7.862   1.205   0.497  0.0000  0.0000  0.0000
 9902OM     OM1 9902   7.929   0.964   0.421  0.0000  0.0000  0.0000
 9903OM     OM1 9903   3.034   3.732   1.282  0.0000  0.0000  0.0000
 9904OM     OM1 9904   2.875   3.511   1.262  0.0000  0.0000  0.0000
 9905OM     OM1 9905   2.819   3.730   1.134  0.0000  0.0000  0.0000
 9906OM     OM1 9906   1.268   5.522   9.391  0.0000  0.0000  0.0000
 9907OM     OM1 9907   1.095   5.455   9.578  0.0000  0.0000  0.0000
 9908OM     OM1 9908   6.974   0.853   8.915  0.0000  0.0000  0.0000
 9909OM     OM1 9909   6.810   0.658   8.906  0.0000  0.0000  0.0000
 9910OM     OM1 9910   7.320   9.257   8.422  0.0000  0.0000  0.0000
 9911OM     OM1 9911   3.055   9.394   8.763  0.0000  0.0000  0.0000
 9912OM     OM1 9912   7.641   8.561   9.316  0.0000  0.0000  0.0000
 9913OM     OM1 9913   6.957   3.669   0.990  0.0000  0.0000  0.0000
 9914OM     OM1 9914   5.526   0.257   8.795  0.0000  0.0000  0.0000
 9915OM     OM1 9915   5.785   0.226   8.809  0.0000  0.0000  0.0000
 9916OM     OM1 9916   5.036   2.329   9.310  0.0000  0.0000  0.0000
 9917OM     OM1 9917   2.715   5.009   0.673  0.0000  0.0000  0.0000
 9918OM     OM1 9918   2.764   5.004   0.418  0.0000  0.0000  0.0000
 9919OM     OM1 9919   3.995   6.588   8.566  0.0000  0.0000  0.0000
 9920OM     OM1 9920   4.137   6.432   8.713  0.0000  0.0000  0.0000
 9921OM     OM1 9921   7.115   4.809   8.758  0.0000  0.0000  0.0000
 9922OM     OM1 9922   3.572   6.180   0.341  0.0000  0.0000  0.0000
 9923OM     OM1 9923   3.372   6.660   0.321  0.0000  0.0000  0.0000
 9924OM     OM1 9924   7.842   7.442   9.166  0.0000  0.0000  0.0000
 9925OM     OM1 9925   7.852   7.715   9.148  0.0000  0.0000  0.0000
 9926OM     OM1 9926   8.001   1.309   0.937  0.0000  0.0000  0.0000
 9927OM     OM1 9927   2.682   9.502   8.302  0.0000  0.0000  0.0000
 9928OM     OM1 9928   7.506   7.538   9.507  0.0000  0.0000  0.0000
 9929OM     OM1 9929   4.679   2.812   9.192  0.0000  0.0000  0.0000
 9930OM     OM1 9930   2.484   0.852   8.355  0.0000  0.0000  0.0000
 9931OM     OM1 9931   8.703   4.981   9.387  0.0000  0.0000  0.0000
 9932OM     OM1 9932   8.578   5.034   0.003  0.0000  0.0000  0.0000
 9933OM     OM1 9933   4.352   4.841   1.115  0.0000  0.0000  0.0000
 9934OM     OM1 9934   7.852   0.725   0.533  0.0000  0.0000  0.0000
 9935OM     OM1 9935   3.560   9.256   8.805  0.0000  0.0000  0.0000
 9936OM     OM1 9936   0.138   4.388   9.546  0.0000  0.0000  0.0000
 9937OM     OM1 9937   9.589   4.265   9.382  0.0000  0.0000  0.0000
 9938OM     OM1 9938   6.251   7.718   0.503  0.0000  0.0000  0.0000
 9939OM     OM1 9939   8.161   7.819   8.556  0.0000  0.0000  0.0000
 9940OM     OM1 9940   8.040   8.122   8.889  0.0000  0.0000  0.0000
 9941OM     OM1 9941   3.972   7.168   0.138  0.0000  0.0000  0.0000
 9942OM     OM1 9942   3.755   7.091   0.030  0.0000  0.0000  0.0000
 9943OM     OM1 9943   1.344   0.627   8.682  0.0000  0.0000  0.0000
 9944OM     OM1 9944   6.081   7.386   0.664  0.0000  0.0000  0.0000
 9945OM     OM1 9945   1.810   4.885   0.515  0.0000  0.0000  0.0000
 9946OM     OM1 9946   1.613   4.847   0.356  0.0000  0.0000  0.0000
 9947OM     OM1 9947   8.751   2.592   0.852  0.0000  0.0000  0.0000
 9948OM     OM1 9948   8.977   2.595   0.974  0.0000  0.0000  0.0000
 9949OM     OM1 9949   8.542   6.711   1.130  0.0000  0.0000  0.0000
 9950OM     OM1 9950   8.486   6.473   1.241  0.0000  0.0000  0.0000
 9951OM     OM1 9951   4.698   3.776   9.206  0.0000  0.0000  0.0000
 9952OM     OM1 9952   4.501   3.945   9.218  0.0000  0.0000  0.0000
 9953OM     OM1 9953   4.683   3.965   9.029  0.0000  0.0000  0.0000
 9954OM     OM1 9954   4.751   4.025   9.271  0.0000  0.0000  0.0000
 9955OM     OM1 9955   5.481   5.636   8.910  0.0000  0.0000  0.0000
 9956OM     OM1 9956   1.520   8.668   0.157  0.0000  0.0000  0.0000
 9957OM     OM1 9957   9.063   9.303   0.138  0.0000  0.0000  0.0000
 9958OM     OM1 9958   0.898   3.137   9.542  0.0000  0.0000  0.0000
 9959OM     OM1 9959   8.981   8.940   9.120  0.0000  0.0000  0.0000
 9960OM     OM1 9960   9.067   8.865   9.344  0.0000  0.0000  0.0000
 9961OM     OM1 9961   4.918   1.011   0.843  0.0000  0.0000  0.0000
 9962OM     OM1 9962   8.544   1.539   8.439  0.0000  0.0000  0.0000
 9963OM     OM1 9963   8.669   1.310   8.397  0.0000  0.0000  0.0000
 9964OM     OM1 9964   7.630   3.243   8.529  0.0000  0.0000  0.0000
 9965OM     OM1 9965   4.529   5.220   1.090  0.0000  0.0000  0.0000
 9966OM     OM1 9966   4.267   5.173   1.079  0.0000  0.0000  0.0000
 9967OM     OM1 9967   6.468   4.310   8.951  0.0000  0.0000  0.0000
 9968OM     OM1 9968   4.752   8.230   0.074  0.0000  0.0000  0.0000
 9969OM     OM1 9969   4.955   8.072   0.095  0.0000  0.0000  0.0000
 9970OM     OM1 9970   1.474   6.657   9.192  0.0000  0.0000  0.0000
 9971OM     OM1 9971   6.195   4.453   1.237  0.0000  0.0000  0.0000
 9972OM     OM1 9972   6.197   4.607   1.015  0.0000  0.0000  0.0000
 9973OM     OM1 9973   0.158   4.258   0.901  0.0000  0.0000  0.0000
 9974OM     OM1 9974   0.145   3.840   8.711  0.0000  0.0000  0.0000
 9975OM     OM1 9975   0.173   3.784   8.949  0.0000  0.0000  0.0000
 9976OM     OM1 9976   2.344   7.564   0.475  0.0000  0.0000  0.0000
 9977OM     OM1 9977   7.999   8.502   8.604  0.0000  0.0000  0.0000
 9978OM     OM1 9978   8.375   8.752   8.420  0.0000  0.0000  0.0000
 9979OM     OM1 9979   3.360   5.746   0.704  0.0000  0.0000  0.0000
 9980OM     OM1 9980   3.482   5.963   0.696  0.0000  0.0000  0.0000
 9981OM     OM1 9981   3.525   3.275   0.247  0.0000  0.0000  0.0000
 9982OM     OM1 9982   5.454   4.403   8.717  0.0000  0.0000  0.0000
 9983OM     OM1 9983   1.027   5.078   8.902  0.0000  0.0000  0.0000
 9984OM     OM1 9984   1.138   0.442   0.746  0.0000  0.0000  0.0000
 9985OM     OM1 9985   1.319   0.324   0.886  0.0000  0.0000  0.0000
 9986OM     OM1 9986   0.202   7.488   9.517  0.0000  0.0000  0.0000
 9987OM     OM1 9987   0.078   0.657   0.337  0.0000  0.0000  0.0000
 9988OM     OM1 9988   6.488   4.908   9.093  0.0000  0.0000  0.0000
 9989OM     OM1 9989   6.433   4.676   9.200  0.0000  0.0000  0.0000
 9990OM     OM1 9990   1.400   0.891   1.290  0.0000  0.0000  0.0000
 9991OM     OM1 9991   0.778   6.100   1.342  0.0000  0.0000  0.0000
 9992OM     OM1 9992   0.647   6.282   1.201  0.0000  0.0000  0.0000
 9993OM     OM1 9993   3.754   9.353   1.179  0.0000  0.0000  0.0000
 9994OM     OM1 9994   4.143   9.460   1.047  0.0000  0.0000  0.0000
 9995OM     OM1 9995   4.010   9.381   1.253  0.0000  0.0000  0.0000
 9996OM     OM1 9996   5.494   1.097   0.007  0.0000  0.0000  0.0000
 9997OM     OM1 9997   8.697   7.138   8.559  0.0000  0.0000  0.0000
 9998OM     OM1 9998   8.647   7.396   8.510  0.0000  0.0000  0.0000
 9999OM     OM1 9999   8.726   7.259   0.275  0.0000  0.0000  0.0000
10000OM     OM110000   8.778   7.432   0.456  0.0000  0.0000  0.0000
10001OM     OM110001   8.956   7.252   0.380  0.0000  0.0000  0.0000
10002OM     OM110002   1.153   4.299   8.681  0.0000  0.0000  0.0000
10003OM     OM110003   1.331   4.165   8.781  0.0000  0.0000  0.0000
10004OM     OM110004   1.380   4.301   8.559  0.0000  0.0000  0.0000
10005OM     OM110005   2.155   6.196   9.592  0.0000  0.0000  0.0000
10006OM     OM110006   1.960   6.284   0.118  0.0000  0.0000  0.0000
10007OM     OM110007   5.593   5.727   0.362  0.0000  0.0000  0.0000
10008OM     OM110008   6.542   6.008   1.066  0.0000  0.0000  0.0000
10009OM     OM110009   3.800   9.321   8.855  0.0000  0.0000  0.0000
10010OM     OM110010   2.052   1.952   0.258  0.0000  0.0000  0.0000
10011OM     OM110011   2.285   1.844   0.280  0.0000  0.0000  0.0000
10012OM     OM110012   8.075   4.448   8.235  0.0000  0.0000  0.0000
10013OM     OM110013   0.781   8.314   9.211  0.0000  0.0000  0.0000
10014OM     OM110014   0.721   8.083   9.109  0.0000  0.0000  0.0000
10015OM     OM110015   8.042   4.203   8.776  0.0000  0.0000  0.0000
10016OM     OM110016   6.863   0.566   0.463  0.0000  0.0000  0.0000
10017OM     OM110017   6.969   0.616   0.224  0.0000  0.0000  0.0000
10018OM     OM110018   1.947   4.669   0.496  0.0000  0.0000  0.0000
10019OM     OM110019   1.895   4.455   0.354  0.0000  0.0000  0.0000
10020OM     OM110020   2.036   4.649   0.245  0.0000  0.0000  0.0000
10021OM     OM110021   2.228   1.532   1.083  0.0000  0.0000  0.0000
10022OM     OM110022   8.343   8.751   8.882  0.0000  0.0000  0.0000
10023OM     OM110023   8.444   8.812   8.662  0.0000  0.0000  0.0000
10024OM     OM110024   8.102   8.809   8.906  0.0000  0.0000  0.0000
10025OM     OM110025   1.440   2.477   9.169  0.0000  0.0000  0.0000
10026OM     OM110026   1.469   0.305   0.180  0.0000  0.0000  0.0000
10027OM     OM110027   4.313   3.023   0.308  0.0000  0.0000  0.0000
10028OM     OM110028   4.374   3.271   0.363  0.0000  0.0000  0.0000
10029OM     OM110029   9.319   7.879   8.733  0.0000  0.0000  0.0000
10030OM     OM110030   6.948   2.629   1.342  0.0000  0.0000  0.0000
10031OM     OM110031   7.463   9.359   8.621  0.0000  0.0000  0.0000
10032OM     OM110032   7.517   0.108   8.554  0.0000  0.0000  0.0000
10033OM     OM110033   0.471   2.372   1.267  0.0000  0.0000  0.0000
10034OM     OM110034   6.444   4.055   1.343  0.0000  0.0000  0.0000
10035OM     OM110035   6.607   4.244   1.266  0.0000  0.0000  0.0000
10036OM     OM110036   6.368   4.298   1.357  0.0000  0.0000  0.0000
10037OM     OM110037   0.790   6.113   8.768  0.0000  0.0000  0.0000
10038OM     OM110038   0.771   6.364   8.697  0.0000  0.0000  0.0000
10039OM     OM110039   6.750   5.322   0.127  0.0000  0.0000  0.0000
10040OM     OM110040   0.715   6.299   9.096  0.0000  0.0000  0.0000
10041OM     OM110041   0.913   7.759   9.482  0.0000  0.0000  0.0000
10042OM     OM110042   6.107   0.829   8.543  0.0000  0.0000  0.0000
10043OM     OM110043   6.084   1.068   8.438  0.0000  0.0000  0.0000
10044OM     OM110044   2.294   0.705   8.915  0.0000  0.0000  0.0000
10045OM     OM110045   2.429   0.908   9.016  0.0000  0.0000  0.0000
10046OM     OM110046   4.038   4.764   8.470  0.0000  0.0000  0.0000
10047OM     OM110047   3.878   4.938   8.372  0.0000  0.0000  0.0000
10048OM     OM110048   1.503   9.137   1.290  0.0000  0.0000  0.0000
10049OM     OM110049   1.912   1.842   8.432  0.0000  0.0000  0.0000
10050OM     OM110050   2.086   1.947   8.602  0.0000  0.0000  0.0000
10051OM     OM110051   2.973   3.052   0.712  0.0000  0.0000  0.0000
10052OM     OM110052   8.234   1.821   0.458  0.0000  0.0000  0.0000
10053OM     OM110053   7.443   0.445   8.203  0.0000  0.0000  0.0000
10054OM     OM110054   2.154   2.665   0.490  0.0000  0.0000  0.0000
10055OM     OM110055   6.673   8.858   8.593  0.0000  0.0000  0.0000
10056OM     OM110056   7.451   8.024   0.644  0.0000  0.0000  0.0000
10057OM     OM110057   0.240   8.022   0.642  0.0000  0.0000  0.0000
10058OM     OM110058   0.274   8.049   0.387  0.0000  0.0000  0.0000
10059OM     OM110059   8.652   4.008   0.347  0.0000  0.0000  0.0000
10060OM     OM110060   8.663   3.746   0.405  0.0000  0.0000  0.0000
10061OM     OM110061   8.837   3.867   0.244  0.0000  0.0000  0.0000
10062OM     OM110062   3.088   1.288   0.591  0.0000  0.0000  0.0000
10063OM     OM110063   0.070   8.071   8.470  0.0000  0.0000  0.0000
10064OM     OM110064   0.188   8.318   8.664  0.0000  0.0000  0.0000
10065OM     OM110065   5.057   7.562   0.395  0.0000  0.0000  0.0000
10066OM     OM110066   4.889   7.675   0.546  0.0000  0.0000  0.0000
10067OM     OM110067   2.383   3.449   8.561  0.0000  0.0000  0.0000
10068OM     OM110068   2.950   3.311   8.472  0.0000  0.0000  0.0000
10069OM     OM110069   2.923   3.566   8.371  0.0000  0.0000  0.0000
10070OM     OM110070   1.437   8.530   9.563  0.0000  0.0000  0.0000
10071OM     OM110071   1.281   4.642   9.037  0.0000  0.0000  0.0000
10072OM     OM110072   6.791   0.950   0.950  0.0000  0.0000  0.0000
10073OM     OM110073   6.530   0.974   0.939  0.0000  0.0000  0.0000
10074OM     OM110074   5.260   0.675   8.795  0.0000  0.0000  0.0000
10075OM     OM110075   5.153   0.804   8.349  0.0000  0.0000  0.0000
10076OM     OM110076   8.146   2.731   1.118  0.0000  0.0000  0.0000
10077OM     OM110077   4.963   5.150   0.643  0.0000  0.0000  0.0000
10078OM     OM110078   5.184   5.068   0.522  0.0000  0.0000  0.0000
10079OM     OM110079   5.177   5.310   0.591  0.0000  0.0000  0.0000
10080OM     OM110080   1.214   7.307   8.341  0.0000  0.0000  0.0000
10081OM     OM110081   1.393   7.564   8.482  0.0000  0.0000  0.0000
10082OM     OM110082   2.170   0.127   1.113  0.0000  0.0000  0.0000
10083OM     OM110083   5.156   6.973   8.297  0.0000  0.0000  0.0000
10084OM     OM110084   4.923   7.343   8.541  0.0000  0.0000  0.0000
10085OM     OM110085   0.955   1.361   8.319  0.0000  0.0000  0.0000
10086OM     OM110086   1.027   1.124   8.239  0.0000  0.0000  0.0000
10087OM     OM110087   8.563   4.900   1.198  0.0000  0.0000  0.0000
10088OM     OM110088   5.031   1.164   9.187  0.0000  0.0000  0.0000
10089OM     OM110089   3.473   5.053   0.677  0.0000  0.0000  0.0000
10090OM     OM110090   6.154   6.428   0.375  0.0000  0.0000  0.0000
10091OM     OM110091   7.807   5.074   9.190  0.0000  0.0000  0.0000
10092OM     OM110092   7.764   4.966   9.434  0.0000  0.0000  0.0000
10093OM     OM110093   6.088   3.824   8.922  0.0000  0.0000  0.0000
10094OM     OM110094   5.827   3.826   9.002  0.0000  0.0000  0.0000
10095OM     OM110095   1.949   0.699   9.212  0.0000  0.0000  0.0000
10096OM     OM110096   1.775   0.893   9.194  0.0000  0.0000  0.0000
10097OM     OM110097   5.386   7.119   8.739  0.0000  0.0000  0.0000
10098OM     OM110098   3.602   7.630   0.424  0.0000  0.0000  0.0000
10099OM     OM110099   3.733   7.394   0.467  0.0000  0.0000  0.0000
10100OM     OM110100   3.483   7.399   0.441  0.0000  0.0000  0.0000
10101OM     OM110101   5.392   4.679   0.326  0.0000  0.0000  0.0000
10102OM     OM110102   1.638   1.912   9.437  0.0000  0.0000  0.0000
10103OM     OM110103   1.573   1.674   9.471  0.0000  0.0000  0.0000
10104OM     OM110104   3.918   2.525   1.237  0.0000  0.0000  0.0000
10105OM     OM110105   1.034   5.338   8.454  0.0000  0.0000  0.0000
10106OM     OM110106   3.389   5.238   8.986  0.0000  0.0000  0.0000
10107OM     OM110107   3.619   8.131   9.445  0.0000  0.0000  0.0000
10108OM     OM110108   2.136   5.030   0.634  0.0000  0.0000  0.0000
10109OM     OM110109   1.987   4.835   0.701  0.0000  0.0000  0.0000
10110OM     OM110110   2.993   8.682   8.896  0.0000  0.0000  0.0000
10111OM     OM110111   2.989   8.739   8.649  0.0000  0.0000  0.0000
10112OM     OM110112   1.437   2.134   8.865  0.0000  0.0000  0.0000
10113OM     OM110113   1.428   2.196   8.617  0.0000  0.0000  0.0000
10114OM     OM110114   3.833   3.431   8.580  0.0000  0.0000  0.0000
10115OM     OM110115   8.768   7.678   0.363  0.0000  0.0000  0.0000
10116OM     OM110116   8.653   7.629   0.590  0.0000  0.0000  0.0000
10117OM     OM110117   1.547   1.129   0.663  0.0000  0.0000  0.0000
10118OM     OM110118   1.370   0.964   0.568  0.0000  0.0000  0.0000
10119OM     OM110119   5.337   2.269   1.088  0.0000  0.0000  0.0000
10120OM     OM110120   3.420   3.158   0.461  0.0000  0.0000  0.0000
10121OM     OM110121   8.380   3.259   1.242  0.0000  0.0000  0.0000
10122OM     OM110122   2.320   7.307   9.012  0.0000  0.0000  0.0000
10123OM     OM110123   7.540   1.845   9.239  0.0000  0.0000  0.0000
10124OM     OM110124   3.194   4.682   8.279  0.0000  0.0000  0.0000
10125OM     OM110125   2.095   2.204   0.308  0.0000  0.0000  0.0000
10126OM     OM110126   2.090   2.037   0.506  0.0000  0.0000  0.0000
10127OM     OM110127   7.658   2.611   0.248  0.0000  0.0000  0.0000
10128OM     OM110128   0.661   3.530   0.528  0.0000  0.0000  0.0000
10129OM     OM110129   8.680   7.841   0.738  0.0000  0.0000  0.0000
10130OM     OM110130   8.820   7.966   0.931  0.0000  0.0000  0.0000
10131OM     OM110131   7.192   4.459   8.931  0.0000  0.0000  0.0000
10132OM     OM110132   2.575   8.381   0.038  0.0000  0.0000  0.0000
10133OM     OM110133   2.781   8.287   9.536  0.0000  0.0000  0.0000
10134OM     OM110134   2.539   8.161   9.518  0.0000  0.0000  0.0000
10135OM     OM110135   2.667   8.134   0.120  0.0000  0.0000  0.0000
10136OM     OM110136   2.529   0.789   9.558  0.0000  0.0000  0.0000
10137OM     OM110137   2.956   8.715   9.154  0.0000  0.0000  0.0000
10138OM     OM110138   1.247   0.988   0.336  0.0000  0.0000  0.0000
10139OM     OM110139   7.929   2.828   0.993  0.0000  0.0000  0.0000
10140OM     OM110140   9.508   1.675   8.292  0.0000  0.0000  0.0000
10141OM     OM110141   8.509   7.584   8.363  0.0000  0.0000  0.0000
10142OM     OM110142   8.152   7.482   0.150  0.0000  0.0000  0.0000
10143OM     OM110143   5.858   6.492   8.398  0.0000  0.0000  0.0000
10144OM     OM110144   8.713   6.503   8.464  0.0000  0.0000  0.0000
10145OM     OM110145   0.807   1.306   1.088  0.0000  0.0000  0.0000
10146OM     OM110146   0.775   1.060   1.202  0.0000  0.0000  0.0000
10147OM     OM110147   0.671   1.117   0.973  0.0000  0.0000  0.0000
10148OM     OM110148   7.272   6.542   1.313  0.0000  0.0000  0.0000
10149OM     OM110149   7.154   6.338   1.196  0.0000  0.0000  0.0000
10150OM     OM110150   8.975   9.548   0.166  0.0000  0.0000  0.0000
10151OM     OM110151   8.833   9.352   0.041  0.0000  0.0000  0.0000
10152OM     OM110152   8.842   4.821   0.273  0.0000  0.0000  0.0000
10153OM     OM110153   3.949   1.253   1.010  0.0000  0.0000  0.0000
10154OM     OM110154   4.154   1.394   1.011  0.0000  0.0000  0.0000
10155OM     OM110155   8.593   1.215   9.343  0.0000  0.0000  0.0000
10156OM     OM110156   8.265   1.288   9.156  0.0000  0.0000  0.0000
10157OM     OM110157   2.639   1.118   0.663  0.0000  0.0000  0.0000
10158OM     OM110158   3.305   3.775   1.219  0.0000  0.0000  0.0000
10159OM     OM110159   1.116   0.984   8.441  0.0000  0.0000  0.0000
10160OM     OM110160   0.897   5.556   0.112  0.0000  0.0000  0.0000
10161OM     OM110161   0.891   0.483   0.699  0.0000  0.0000  0.0000
10162OM     OM110162   0.662   0.509   0.820  0.0000  0.0000  0.0000
10163OM     OM110163   6.365   0.279   9.269  0.0000  0.0000  0.0000
10164OM     OM110164   6.374   0.496   9.143  0.0000  0.0000  0.0000
10165OM     OM110165   7.838   4.346   8.260  0.0000  0.0000  0.0000
10166OM     OM110166   4.792   3.101   0.991  0.0000  0.0000  0.0000
10167OM     OM110167   1.067   2.293   9.400  0.0000  0.0000  0.0000
10168OM     OM110168   0.169   1.924   9.279  0.0000  0.0000  0.0000
10169OM     OM110169   0.147   2.097   9.074  0.0000  0.0000  0.0000
10170OM     OM110170   1.430   3.660   0.851  0.0000  0.0000  0.0000
10171OM     OM110171   3.221   3.042   0.596  0.0000  0.0000  0.0000
10172OM     OM110172   2.775   9.420   0.661  0.0000  0.0000  0.0000
10173OM     OM110173   3.017   9.296   0.616  0.0000  0.0000  0.0000
10174OM     OM110174   6.012   0.257   8.923  0.0000  0.0000  0.0000
10175OM     OM110175   5.080   3.189   9.285  0.0000  0.0000  0.0000
10176OM     OM110176   5.132   2.974   9.140  0.0000  0.0000  0.0000
10177OM     OM110177   1.459   4.811   8.960  0.0000  0.0000  0.0000
10178OM     OM110178   4.903   3.620   9.161  0.0000  0.0000  0.0000
10179OM     OM110179   5.051   3.445   9.265  0.0000  0.0000  0.0000
10180OM     OM110180   5.160   3.665   9.171  0.0000  0.0000  0.0000
10181OM     OM110181   8.539   7.848   0.517  0.0000  0.0000  0.0000
10182OM     OM110182   8.451   7.724   0.734  0.0000  0.0000  0.0000
10183OM     OM110183   0.177   1.975   9.543  0.0000  0.0000  0.0000
10184OM     OM110184   0.392   2.099   0.043  0.0000  0.0000  0.0000
10185OM     OM110185   7.335   5.206   1.234  0.0000  0.0000  0.0000
10186OM     OM110186   7.589   1.939   8.997  0.0000  0.0000  0.0000
10187OM     OM110187   6.523   3.266   8.741  0.0000  0.0000  0.0000
10188OM     OM110188   6.717   3.162   8.883  0.0000  0.0000  0.0000
10189OM     OM110189   6.662   9.082   8.746  0.0000  0.0000  0.0000
10190OM     OM110190   1.769   5.650   8.641  0.0000  0.0000  0.0000
10191OM     OM110191   1.931   5.555   8.819  0.0000  0.0000  0.0000
10192OM     OM110192   4.563   9.572   9.144  0.0000  0.0000  0.0000
10193OM     OM110193   4.404   0.028   8.960  0.0000  0.0000  0.0000
10194OM     OM110194   4.627   8.671   1.077  0.0000  0.0000  0.0000
10195OM     OM110195   4.793   8.537   1.281  0.0000  0.0000  0.0000
10196OM     OM110196   0.047   2.375   8.659  0.0000  0.0000  0.0000
10197OM     OM110197   0.193   2.247   8.486  0.0000  0.0000  0.0000
10198OM     OM110198   2.124   6.143   0.719  0.0000  0.0000  0.0000
10199OM     OM110199   5.543   7.112   1.247  0.0000  0.0000  0.0000
10200OM     OM110200   2.909   1.985   8.894  0.0000  0.0000  0.0000
10201OM     OM110201   4.294   1.067   9.300  0.0000  0.0000  0.0000
10202OM     OM110202   4.272   1.171   9.060  0.0000  0.0000  0.0000
10203OM     OM110203   6.292   5.733   9.546  0.0000  0.0000  0.0000
10204OM     OM110204   7.331   1.991   0.216  0.0000  0.0000  0.0000
10205OM     OM110205   3.700   5.893   0.564  0.0000  0.0000  0.0000
10206OM     OM110206   9.296   0.342   0.240  0.0000  0.0000  0.0000
10207OM     OM110207   9.139   0.124   0.259  0.0000  0.0000  0.0000
10208OM     OM110208   9.354   0.147   0.083  0.0000  0.0000  0.0000
10209OM     OM110209   1.005   8.750   9.461  0.0000  0.0000  0.0000
10210OM     OM110210   1.264   8.691   9.459  0.0000  0.0000  0.0000
10211OM     OM110211   9.201   1.452   8.790  0.0000  0.0000  0.0000
10212OM     OM110212   9.429   1.339   8.878  0.0000  0.0000  0.0000
10213OM     OM110213   1.102   7.527   8.258  0.0000  0.0000  0.0000
10214OM     OM110214   0.520   2.356   8.973  0.0000  0.0000  0.0000
10215OM     OM110215   0.645   2.577   8.876  0.0000  0.0000  0.0000
10216OM     OM110216   0.817   6.519   0.732  0.0000  0.0000  0.0000
10217OM     OM110217   0.496   7.917   0.345  0.0000  0.0000  0.0000
10218OM     OM110218   2.794   4.805   0.237  0.0000  0.0000  0.0000
10219OM     OM110219   2.725   5.044   0.165  0.0000  0.0000  0.0000
10220OM     OM110220   4.019   5.630   1.023  0.0000  0.0000  0.0000
10221OM     OM110221   4.124   5.842   1.138  0.0000  0.0000  0.0000
10222OM     OM110222   3.966   5.687   1.278  0.0000  0.0000  0.0000
10223OM     OM110223   0.222   2.029   0.952  0.0000  0.0000  0.0000
10224OM     OM110224   9.565   4.558   0.028  0.0000  0.0000  0.0000
10225OM     OM110225   3.557   7.815   8.928  0.0000  0.0000  0.0000
10226OM     OM110226   3.532   7.568   8.858  0.0000  0.0000  0.0000
10227OM     OM110227   3.343   7.738   8.796  0.0000  0.0000  0.0000
10228OM     OM110228   2.358   3.537   9.001  0.0000  0.0000  0.0000
10229OM     OM110229   0.441   2.307   8.490  0.0000  0.0000  0.0000
10230OM     OM110230   9.518   4.364   8.451  0.0000  0.0000  0.0000
10231OM     OM110231   1.353   8.439   8.680  0.0000  0.0000  0.0000
10232OM     OM110232   2.372   4.080   9.023  0.0000  0.0000  0.0000
10233OM     OM110233   2.571   3.977   9.153  0.0000  0.0000  0.0000
10234OM     OM110234   1.871   8.897   0.025  0.0000  0.0000  0.0000
10235OM     OM110235   1.658   9.039   0.063  0.0000  0.0000  0.0000
10236OM     OM110236   6.265   6.955   0.559  0.0000  0.0000  0.0000
10237OM     OM110237   6.219   7.204   0.503  0.0000  0.0000  0.0000
10238OM     OM110238   0.478   4.820   8.360  0.0000  0.0000  0.0000
10239OM     OM110239   0.402   5.056   8.403  0.0000  0.0000  0.0000
10240OM     OM110240   9.354   7.102   9.025  0.0000  0.0000  0.0000
10241OM     OM110241   9.297   7.251   8.817  0.0000  0.0000  0.0000
10242OM     OM110242   7.819   3.923   9.577  0.0000  0.0000  0.0000
10243OM     OM110243   7.794   4.098   9.381  0.0000  0.0000  0.0000
10244OM     OM110244   8.584   3.004   0.438  0.0000  0.0000  0.0000
10245OM     OM110245   4.142   2.686   9.318  0.0000  0.0000  0.0000
10246OM     OM110246   7.837   7.873   9.347  0.0000  0.0000  0.0000
10247OM     OM110247   3.196   6.378   9.007  0.0000  0.0000  0.0000
10248OM     OM110248   4.710   6.310   9.220  0.0000  0.0000  0.0000
10249OM     OM110249   4.882   6.104   9.157  0.0000  0.0000  0.0000
10250OM     OM110250   3.963   0.850   0.690  0.0000  0.0000  0.0000
10251OM     OM110251   7.406   4.133   9.540  0.0000  0.0000  0.0000
10252OM     OM110252   7.546   4.156   9.319  0.0000  0.0000  0.0000
10253OM     OM110253   1.520   4.027   9.000  0.0000  0.0000  0.0000
10254OM     OM110254   1.642   4.200   9.145  0.0000  0.0000  0.0000
10255OM     OM110255   1.252   1.962   8.952  0.0000  0.0000  0.0000
10256OM     OM110256   5.974   2.922   0.623  0.0000  0.0000  0.0000
10257OM     OM110257   6.128   2.958   0.413  0.0000  0.0000  0.0000
10258OM     OM110258   8.751   0.760   8.607  0.0000  0.0000  0.0000
10259OM     OM110259   8.353   0.604   8.591  0.0000  0.0000  0.0000
10260OM     OM110260   4.819   8.214   9.289  0.0000  0.0000  0.0000
10261OM     OM110261   4.639   8.406   9.354  0.0000  0.0000  0.0000
10262OM     OM110262   9.540   0.629   0.845  0.0000  0.0000  0.0000
10263OM     OM110263   8.289   2.383   0.457  0.0000  0.0000  0.0000
10264OM     OM110264   8.045   2.481   0.510  0.0000  0.0000  0.0000
10265OM     OM110265   4.243   7.766   8.649  0.0000  0.0000  0.0000
10266OM     OM110266   1.937   3.519   0.332  0.0000  0.0000  0.0000
10267OM     OM110267   1.976   3.762   0.423  0.0000  0.0000  0.0000
10268OM     OM110268   6.262   4.380   8.812  0.0000  0.0000  0.0000
10269OM     OM110269   6.329   4.513   9.026  0.0000  0.0000  0.0000
10270OM     OM110270   4.138   2.634   1.269  0.0000  0.0000  0.0000
10271OM     OM110271   4.102   2.652   1.011  0.0000  0.0000  0.0000
10272OM     OM110272   8.086   9.070   8.861  0.0000  0.0000  0.0000
10273OM     OM110273   7.737   9.182   8.969  0.0000  0.0000  0.0000
10274OM     OM110274   8.023   5.286   1.221  0.0000  0.0000  0.0000
10275OM     OM110275   8.276   5.295   0.842  0.0000  0.0000  0.0000
10276OM     OM110276   2.120   2.773   8.393  0.0000  0.0000  0.0000
10277OM     OM110277   2.332   2.541   0.627  0.0000  0.0000  0.0000
10278OM     OM110278   2.212   2.412   0.423  0.0000  0.0000  0.0000
10279OM     OM110279   3.209   8.341   9.530  0.0000  0.0000  0.0000
10280OM     OM110280   3.132   8.578   9.584  0.0000  0.0000  0.0000
10281OM     OM110281   4.416   8.790   9.158  0.0000  0.0000  0.0000
10282OM     OM110282   9.457   5.627   8.628  0.0000  0.0000  0.0000
10283OM     OM110283   9.545   5.567   8.863  0.0000  0.0000  0.0000
10284OM     OM110284   2.440   6.768   0.917  0.0000  0.0000  0.0000
10285OM     OM110285   1.405   3.401   0.845  0.0000  0.0000  0.0000
10286OM     OM110286   0.800   3.442   8.366  0.0000  0.0000  0.0000
10287OM     OM110287   0.578   6.074   9.125  0.0000  0.0000  0.0000
10288OM     OM110288   4.336   3.587   8.988  0.0000  0.0000  0.0000
10289OM     OM110289   5.789   2.640   9.124  0.0000  0.0000  0.0000
10290OM     OM110290   5.751   2.982   8.747  0.0000  0.0000  0.0000
10291OM     OM110291   1.464   8.733   8.556  0.0000  0.0000  0.0000
10292OM     OM110292   9.533   5.987   0.543  0.0000  0.0000  0.0000
10293OM     OM110293   8.941   4.725   9.258  0.0000  0.0000  0.0000
10294OM     OM110294   8.740   4.859   9.161  0.0000  0.0000  0.0000
10295OM     OM110295   1.492   4.661   0.108  0.0000  0.0000  0.0000
10296OM     OM110296   1.683   8.943   1.302  0.0000  0.0000  0.0000
10297OM     OM110297   3.082   8.918   9.281  0.0000  0.0000  0.0000
10298OM     OM110298   2.994   8.717   9.416  0.0000  0.0000  0.0000
10299OM     OM110299   8.042   4.610   8.948  0.0000  0.0000  0.0000
10300OM     OM110300   2.503   4.779   9.446  0.0000  0.0000  0.0000
10301OM     OM110301   2.635   4.871   9.239  0.0000  0.0000  0.0000
10302OM     OM110302   2.717   4.762   9.601  0.0000  0.0000  0.0000
10303OM     OM110303   0.878   1.293   8.561  0.0000  0.0000  0.0000
10304OM     OM110304   1.553   2.886   9.373  0.0000  0.0000  0.0000
10305OM     OM110305   0.746   0.480   9.476  0.0000  0.0000  0.0000
10306OM     OM110306   5.414   2.130   1.288  0.0000  0.0000  0.0000
10307OM     OM110307   5.201   1.998   1.335  0.0000  0.0000  0.0000
10308OM     OM110308   2.045   5.582   0.733  0.0000  0.0000  0.0000
10309OM     OM110309   2.878   8.529   9.542  0.0000  0.0000  0.0000
10310OM     OM110310   2.990   8.360   9.390  0.0000  0.0000  0.0000
10311OM     OM110311   0.644   7.108   0.943  0.0000  0.0000  0.0000
10312OM     OM110312   0.638   7.020   1.204  0.0000  0.0000  0.0000
10313OM     OM110313   7.665   7.080   0.036  0.0000  0.0000  0.0000
10314OM     OM110314   9.419   2.031   1.264  0.0000  0.0000  0.0000
10315OM     OM110315   5.758   6.774   0.866  0.0000  0.0000  0.0000
10316OM     OM110316   5.890   6.578   0.928  0.0000  0.0000  0.0000
10317OM     OM110317   7.018   5.607   1.087  0.0000  0.0000  0.0000
10318OM     OM110318   4.386   8.669   0.555  0.0000  0.0000  0.0000
10319OM     OM110319   4.255   8.595   0.760  0.0000  0.0000  0.0000
10320OM     OM110320   4.195   8.495   0.530  0.0000  0.0000  0.0000
10321OM     OM110321   4.805   3.588   0.548  0.0000  0.0000  0.0000
10322OM     OM110322   4.839   3.337   0.629  0.0000  0.0000  0.0000
10323OM     OM110323   4.663   8.837   9.157  0.0000  0.0000  0.0000
10324OM     OM110324   1.409   8.321   0.514  0.0000  0.0000  0.0000
10325OM     OM110325   1.364   3.861   9.138  0.0000  0.0000  0.0000
10326OM     OM110326   1.302   3.942   8.905  0.0000  0.0000  0.0000
10327OM     OM110327   0.063   5.606   9.084  0.0000  0.0000  0.0000
10328OM     OM110328   4.531   2.674   9.006  0.0000  0.0000  0.0000
10329OM     OM110329   2.585   4.172   8.146  0.0000  0.0000  0.0000
10330OM     OM110330   4.106   3.643   1.278  0.0000  0.0000  0.0000
10331OM     OM110331   3.747   4.061   9.537  0.0000  0.0000  0.0000
10332OM     OM110332   3.970   4.129   0.049  0.0000  0.0000  0.0000
10333OM     OM110333   2.278   2.514   8.938  0.0000  0.0000  0.0000
10334OM     OM110334   8.813   6.521   0.537  0.0000  0.0000  0.0000
10335OM     OM110335   9.019   6.422   0.411  0.0000  0.0000  0.0000
10336OM     OM110336   0.682   8.363   0.557  0.0000  0.0000  0.0000
10337OM     OM110337   0.651   8.655   1.032  0.0000  0.0000  0.0000
10338OM     OM110338   0.451   8.795   0.952  0.0000  0.0000  0.0000
10339OM     OM110339   8.931   8.926   0.371  0.0000  0.0000  0.0000
10340OM     OM110340   8.697   8.943   0.495  0.0000  0.0000  0.0000
10341OM     OM110341   2.116   7.391   8.875  0.0000  0.0000  0.0000
10342OM     OM110342   0.450   0.660   0.849  0.0000  0.0000  0.0000
10343OM     OM110343   0.439   0.435   0.717  0.0000  0.0000  0.0000
10344OM     OM110344   8.847   8.210   8.919  0.0000  0.0000  0.0000
10345OM     OM110345   9.032   8.186   9.099  0.0000  0.0000  0.0000
10346OM     OM110346   7.974   0.652   0.742  0.0000  0.0000  0.0000
10347OM     OM110347   4.097   7.621   8.815  0.0000  0.0000  0.0000
10348OM     OM110348   2.088   7.570   0.496  0.0000  0.0000  0.0000
10349OM     OM110349   7.941   8.354   8.821  0.0000  0.0000  0.0000
10350OM     OM110350   6.028   4.503   0.849  0.0000  0.0000  0.0000
10351OM     OM110351   4.535   8.311   9.558  0.0000  0.0000  0.0000
10352OM     OM110352   4.525   8.224   0.189  0.0000  0.0000  0.0000
10353OM     OM110353   4.578   8.051   9.601  0.0000  0.0000  0.0000
10354OM     OM110354   1.730   7.238   0.038  0.0000  0.0000  0.0000
10355OM     OM110355   1.502   4.782   1.250  0.0000  0.0000  0.0000
10356OM     OM110356   2.950   8.598   8.410  0.0000  0.0000  0.0000
10357OM     OM110357   0.887   0.924   8.336  0.0000  0.0000  0.0000
10358OM     OM110358   5.067   1.490   8.688  0.0000  0.0000  0.0000
10359OM     OM110359   4.858   1.459   8.533  0.0000  0.0000  0.0000
10360OM     OM110360   3.437   0.426   8.762  0.0000  0.0000  0.0000
10361OM     OM110361   3.397   0.634   8.931  0.0000  0.0000  0.0000
10362OM     OM110362   3.487   0.389   9.007  0.0000  0.0000  0.0000
10363OM     OM110363   5.521   6.722   0.656  0.0000  0.0000  0.0000
10364OM     OM110364   5.304   6.632   0.760  0.0000  0.0000  0.0000
10365OM     OM110365   5.388   6.867   0.827  0.0000  0.0000  0.0000
10366OM     OM110366   3.211   5.315   0.649  0.0000  0.0000  0.0000
10367OM     OM110367   3.046   5.474   0.775  0.0000  0.0000  0.0000
10368OM     OM110368   4.311   3.035   8.826  0.0000  0.0000  0.0000
10369OM     OM110369   4.130   3.054   8.647  0.0000  0.0000  0.0000
10370OM     OM110370   5.345   6.910   8.552  0.0000  0.0000  0.0000
10371OM     OM110371   5.506   7.110   8.505  0.0000  0.0000  0.0000
10372OM     OM110372   0.962   2.364   0.358  0.0000  0.0000  0.0000
10373OM     OM110373   0.824   2.530   0.510  0.0000  0.0000  0.0000
10374OM     OM110374   0.722   2.441   0.287  0.0000  0.0000  0.0000
10375OM     OM110375   0.927   2.610   0.283  0.0000  0.0000  0.0000
10376OM     OM110376   0.020   2.947   8.563  0.0000  0.0000  0.0000
10377OM     OM110377   5.299   7.810   0.324  0.0000  0.0000  0.0000
10378OM     OM110378   0.647   7.596   9.056  0.0000  0.0000  0.0000
10379OM     OM110379   0.800   7.633   9.268  0.0000  0.0000  0.0000
10380OM     OM110380   0.550   7.682   9.293  0.0000  0.0000  0.0000
10381OM     OM110381   6.378   0.734   9.057  0.0000  0.0000  0.0000
10382OM     OM110382   6.590   0.589   9.030  0.0000  0.0000  0.0000
10383OM     OM110383   6.661   5.948   0.239  0.0000  0.0000  0.0000
10384OM     OM110384   4.315   1.214   9.511  0.0000  0.0000  0.0000
10385OM     OM110385   2.738   4.229   8.338  0.0000  0.0000  0.0000
10386OM     OM110386   2.801   4.098   8.558  0.0000  0.0000  0.0000
10387OM     OM110387   5.503   7.243   0.552  0.0000  0.0000  0.0000
10388OM     OM110388   5.536   7.049   0.726  0.0000  0.0000  0.0000
10389OM     OM110389   2.949   2.860   0.016  0.0000  0.0000  0.0000
10390OM     OM110390   3.072   2.777   0.219  0.0000  0.0000  0.0000
10391OM     OM110391   5.347   3.656   9.355  0.0000  0.0000  0.0000
10392OM     OM110392   1.688   5.591   9.234  0.0000  0.0000  0.0000
10393OM     OM110393   1.869   5.572   9.063  0.0000  0.0000  0.0000
10394OM     OM110394   1.627   5.481   9.007  0.0000  0.0000  0.0000
10395OM     OM110395   6.411   5.861   9.345  0.0000  0.0000  0.0000
10396OM     OM110396   4.113   2.853   0.334  0.0000  0.0000  0.0000
10397OM     OM110397   4.793   9.297   8.126  0.0000  0.0000  0.0000
10398OM     OM110398   2.762   6.180   9.173  0.0000  0.0000  0.0000
10399OM     OM110399   1.565   6.175   0.454  0.0000  0.0000  0.0000
10400OM     OM110400   4.636   6.280   8.632  0.0000  0.0000  0.0000
10401OM     OM110401   6.437   2.538   0.154  0.0000  0.0000  0.0000
10402OM     OM110402   0.505   2.296   8.735  0.0000  0.0000  0.0000
10403OM     OM110403   6.109   5.995   8.953  0.0000  0.0000  0.0000
10404OM     OM110404   5.930   5.810   8.927  0.0000  0.0000  0.0000
10405OM     OM110405   0.356   7.332   0.761  0.0000  0.0000  0.0000
10406OM     OM110406   0.517   7.396   0.560  0.0000  0.0000  0.0000
10407OM     OM110407   7.285   7.254   0.934  0.0000  0.0000  0.0000
10408OM     OM110408   7.900   4.327   8.598  0.0000  0.0000  0.0000
10409OM     OM110409   5.431   6.248   8.428  0.0000  0.0000  0.0000
10410OM     OM110410   3.985   1.085   0.809  0.0000  0.0000  0.0000
10411OM     OM110411   4.084   0.572   8.545  0.0000  0.0000  0.0000
10412OM     OM110412   3.523   4.066   0.662  0.0000  0.0000  0.0000
10413OM     OM110413   3.208   3.554   1.283  0.0000  0.0000  0.0000
10414OM     OM110414   3.152   3.315   1.297  0.0000  0.0000  0.0000
10415OM     OM110415   3.870   1.020   1.036  0.0000  0.0000  0.0000
10416OM     OM110416   1.558   6.348   8.630  0.0000  0.0000  0.0000
10417OM     OM110417   1.364   6.530   8.628  0.0000  0.0000  0.0000
10418OM     OM110418   3.981   2.547   0.794  0.0000  0.0000  0.0000
10419OM     OM110419   7.874   4.584   8.553  0.0000  0.0000  0.0000
10420OM     OM110420   7.872   4.483   8.803  0.0000  0.0000  0.0000
10421OM     OM110421   3.262   4.437   9.202  0.0000  0.0000  0.0000
10422OM     OM110422   4.868   6.429   0.835  0.0000  0.0000  0.0000
10423OM     OM110423   0.668   6.981   0.736  0.0000  0.0000  0.0000
10424OM     OM110424   2.239   9.074   8.518  0.0000  0.0000  0.0000
10425OM     OM110425   4.985   3.693   8.409  0.0000  0.0000  0.0000
10426OM     OM110426   2.876   5.766   0.284  0.0000  0.0000  0.0000
10427OM     OM110427   1.200   8.664   8.493  0.0000  0.0000  0.0000
10428OM     OM110428   3.471   1.134   0.161  0.0000  0.0000  0.0000
10429OM     OM110429   3.452   1.026   9.526  0.0000  0.0000  0.0000
10430OM     OM110430   9.258   8.325   9.116  0.0000  0.0000  0.0000
10431OM     OM110431   9.263   8.076   9.033  0.0000  0.0000  0.0000
10432OM     OM110432   3.090   6.615   1.009  0.0000  0.0000  0.0000
10433OM     OM110433   8.230   0.740   8.276  0.0000  0.0000  0.0000
10434OM     OM110434   5.361   3.875   0.198  0.0000  0.0000  0.0000
10435OM     OM110435   6.326   3.279   8.565  0.0000  0.0000  0.0000
10436OM     OM110436   6.185   3.481   8.535  0.0000  0.0000  0.0000
10437OM     OM110437   8.504   5.913   1.302  0.0000  0.0000  0.0000
10438OM     OM110438   8.409   5.875   1.059  0.0000  0.0000  0.0000
10439OM     OM110439   8.268   6.005   1.237  0.0000  0.0000  0.0000
10440OM     OM110440   8.319   5.739   1.264  0.0000  0.0000  0.0000
10441OM     OM110441   5.913   7.978   8.369  0.0000  0.0000  0.0000
10442OM     OM110442   5.716   8.153   8.444  0.0000  0.0000  0.0000
10443OM     OM110443   3.927   6.467   0.858  0.0000  0.0000  0.0000
10444OM     OM110444   2.327   2.715   9.094  0.0000  0.0000  0.0000
10445OM     OM110445   2.501   2.876   9.195  0.0000  0.0000  0.0000
10446OM     OM110446   7.670   9.398   0.855  0.0000  0.0000  0.0000
10447OM     OM110447   2.202   1.571   9.316  0.0000  0.0000  0.0000
10448OM     OM110448   1.038   2.751   8.610  0.0000  0.0000  0.0000
10449OM     OM110449   3.483   0.020   0.885  0.0000  0.0000  0.0000
10450OM     OM110450   3.544   9.415   1.037  0.0000  0.0000  0.0000
10451OM     OM110451   6.851   4.715   0.490  0.0000  0.0000  0.0000
10452OM     OM110452   7.089   4.806   0.586  0.0000  0.0000  0.0000
10453OM     OM110453   7.004   4.554   0.607  0.0000  0.0000  0.0000
10454OM     OM110454   6.773   3.261   0.348  0.0000  0.0000  0.0000
10455OM     OM110455   6.632   3.317   0.129  0.0000  0.0000  0.0000
10456OM     OM110456   0.474   8.134   0.211  0.0000  0.0000  0.0000
10457OM     OM110457   2.154   6.528   8.381  0.0000  0.0000  0.0000
10458OM     OM110458   5.471   2.740   0.148  0.0000  0.0000  0.0000
10459OM     OM110459   5.318   2.780   9.394  0.0000  0.0000  0.0000
10460OM     OM110460   4.214   1.749   0.593  0.0000  0.0000  0.0000
10461OM     OM110461   8.191   6.413   8.472  0.0000  0.0000  0.0000
10462OM     OM110462   8.450   6.463   8.432  0.0000  0.0000  0.0000
10463OM     OM110463   6.308   3.824   1.354  0.0000  0.0000  0.0000
10464OM     OM110464   3.069   1.739   0.630  0.0000  0.0000  0.0000
10465OM     OM110465   4.270   1.559   9.102  0.0000  0.0000  0.0000
10466OM     OM110466   2.861   6.352   8.737  0.0000  0.0000  0.0000
10467OM     OM110467   2.902   6.582   8.622  0.0000  0.0000  0.0000
10468OM     OM110468   8.447   5.678   0.896  0.0000  0.0000  0.0000
10469OM     OM110469   2.864   3.834   0.140  0.0000  0.0000  0.0000
10470OM     OM110470   1.559   7.046   8.604  0.0000  0.0000  0.0000
10471OM     OM110471   4.769   2.621   0.512  0.0000  0.0000  0.0000
10472OM     OM110472   4.526   2.659   0.452  0.0000  0.0000  0.0000
10473OM     OM110473   7.672   0.941   8.820  0.0000  0.0000  0.0000
10474OM     OM110474   7.878   1.100   8.800  0.0000  0.0000  0.0000
10475OM     OM110475   0.942   4.295   1.331  0.0000  0.0000  0.0000
10476OM     OM110476   3.534   2.483   0.333  0.0000  0.0000  0.0000
10477OM     OM110477   4.410   1.841   0.995  0.0000  0.0000  0.0000
10478OM     OM110478   8.812   5.303   0.245  0.0000  0.0000  0.0000
10479OM     OM110479   5.574   0.376   8.571  0.0000  0.0000  0.0000
10480OM     OM110480   5.212   0.223   9.402  0.0000  0.0000  0.0000
10481OM     OM110481   5.295   0.298   9.156  0.0000  0.0000  0.0000
10482OM     OM110482   6.229   8.365   9.481  0.0000  0.0000  0.0000
10483OM     OM110483   2.820   0.048   0.235  0.0000  0.0000  0.0000
10484OM     OM110484   8.522   8.002   9.411  0.0000  0.0000  0.0000
10485OM     OM110485   7.352   7.045   0.796  0.0000  0.0000  0.0000
10486OM     OM110486   1.485   4.622   0.362  0.0000  0.0000  0.0000
10487OM     OM110487   5.192   4.836   8.704  0.0000  0.0000  0.0000
10488OM     OM110488   5.260   5.009   8.512  0.0000  0.0000  0.0000
10489OM     OM110489   5.850   2.134   9.223  0.0000  0.0000  0.0000
10490OM     OM110490   5.979   1.908   9.218  0.0000  0.0000  0.0000
10491OM     OM110491   7.821   4.424   1.105  0.0000  0.0000  0.0000
10492OM     OM110492   7.360   6.303   1.039  0.0000  0.0000  0.0000
10493OM     OM110493   0.560   4.338   9.286  0.0000  0.0000  0.0000
10494OM     OM110494   8.056   2.199   9.218  0.0000  0.0000  0.0000
10495OM     OM110495   7.334   3.867   1.167  0.0000  0.0000  0.0000
10496OM     OM110496   8.965   1.999   0.449  0.0000  0.0000  0.0000
10497OM     OM110497   7.273   2.006   0.780  0.0000  0.0000  0.0000
10498OM     OM110498   2.762   0.141   0.013  0.0000  0.0000  0.0000
10499OM     OM110499   3.534   1.361   0.055  0.0000  0.0000  0.0000
10500OM     OM110500   0.582   3.341   8.293  0.0000  0.0000  0.0000
10501OM     OM110501   8.874   0.179   0.232  0.0000  0.0000  0.0000
10502OM     OM110502   9.101   2.227   0.938  0.0000  0.0000  0.0000
10503OM     OM110503   8.906   2.178   0.753  0.0000  0.0000  0.0000
10504OM     OM110504   4.552   5.263   0.463  0.0000  0.0000  0.0000
10505OM     OM110505   9.062   2.686   0.748  0.0000  0.0000  0.0000
10506OM     OM110506   9.230   2.581   0.903  0.0000  0.0000  0.0000
10507OM     OM110507   4.762   3.102   0.738  0.0000  0.0000  0.0000
10508OM     OM110508   7.875   4.996   1.163  0.0000  0.0000  0.0000
10509OM     OM110509   1.714   6.253   0.089  0.0000  0.0000  0.0000
10510OM     OM110510   1.874   6.037   0.091  0.0000  0.0000  0.0000
10511OM     OM110511   1.871   6.198   9.490  0.0000  0.0000  0.0000
10512OM     OM110512   4.040   2.108   0.782  0.0000  0.0000  0.0000
10513OM     OM110513   3.179   3.125   1.109  0.0000  0.0000  0.0000
10514OM     OM110514   3.120   2.854   1.088  0.0000  0.0000  0.0000
10515OM     OM110515   6.298   2.759   1.106  0.0000  0.0000  0.0000
10516OM     OM110516   6.560   2.818   1.063  0.0000  0.0000  0.0000
10517OM     OM110517   6.365   7.928   0.964  0.0000  0.0000  0.0000
10518OM     OM110518   6.729   7.760   0.725  0.0000  0.0000  0.0000
10519OM     OM110519   6.716   0.795   9.115  0.0000  0.0000  0.0000
10520OM     OM110520   1.235   4.921   8.877  0.0000  0.0000  0.0000
10521OM     OM110521   7.555   0.501   9.036  0.0000  0.0000  0.0000
10522OM     OM110522   2.573   6.239   8.999  0.0000  0.0000  0.0000
10523OM     OM110523   2.813   6.182   8.919  0.0000  0.0000  0.0000
10524OM     OM110524   2.131   1.421   9.526  0.0000  0.0000  0.0000
10525OM     OM110525   2.376   1.422   9.436  0.0000  0.0000  0.0000
10526OM     OM110526   1.701   7.036   9.033  0.0000  0.0000  0.0000
10527OM     OM110527   0.718   2.407   0.716  0.0000  0.0000  0.0000
10528OM     OM110528   4.424   9.149   0.438  0.0000  0.0000  0.0000
10529OM     OM110529   6.412   8.544   9.515  0.0000  0.0000  0.0000
10530OM     OM110530   3.026   5.032   8.855  0.0000  0.0000  0.0000
10531OM     OM110531   4.282   0.372   0.865  0.0000  0.0000  0.0000
10532OM     OM110532   4.437   0.316   1.058  0.0000  0.0000  0.0000
10533OM     OM110533   5.024   8.539   1.060  0.0000  0.0000  0.0000
10534OM     OM110534   8.004   5.091   8.780  0.0000  0.0000  0.0000
10535OM     OM110535   8.157   5.307   8.789  0.0000  0.0000  0.0000
10536OM     OM110536   4.195   9.379   8.488  0.0000  0.0000  0.0000
10537OM     OM110537   4.668   1.544   8.679  0.0000  0.0000  0.0000
10538OM     OM110538   7.309   6.819   8.640  0.0000  0.0000  0.0000
10539OM     OM110539   6.125   0.810   9.081  0.0000  0.0000  0.0000
10540OM     OM110540   6.595   4.266   1.006  0.0000  0.0000  0.0000
10541OM     OM110541   1.795   2.875   9.272  0.0000  0.0000  0.0000
10542OM     OM110542   1.740   3.071   9.427  0.0000  0.0000  0.0000
10543OM     OM110543   3.335   8.673   0.780  0.0000  0.0000  0.0000
10544OM     OM110544   6.761   2.756   1.214  0.0000  0.0000  0.0000
10545OM     OM110545   7.378   0.269   8.403  0.0000  0.0000  0.0000
10546OM     OM110546   3.797   1.750   8.963  0.0000  0.0000  0.0000
10547OM     OM110547   3.767   2.014   8.976  0.0000  0.0000  0.0000
10548OM     OM110548   8.723   2.051   0.623  0.0000  0.0000  0.0000
10549OM     OM110549   8.021   6.222   8.414  0.0000  0.0000  0.0000
10550OM     OM110550   9.005   8.921   1.265  0.0000  0.0000  0.0000
10551OM     OM110551   9.204   9.107   1.291  0.0000  0.0000  0.0000
10552OM     OM110552   9.008   9.137   1.122  0.0000  0.0000  0.0000
10553OM     OM110553   6.225   4.125   0.392  0.0000  0.0000  0.0000
10554OM     OM110554   5.152   3.129   8.531  0.0000  0.0000  0.0000
10555OM     OM110555   5.360   3.135   8.403  0.0000  0.0000  0.0000
10556OM     OM110556   7.371   0.858   1.141  0.0000  0.0000  0.0000
10557OM     OM110557   7.524   0.794   0.938  0.0000  0.0000  0.0000
10558OM     OM110558   7.409   0.608   1.077  0.0000  0.0000  0.0000
10559OM     OM110559   0.385   7.671   9.503  0.0000  0.0000  0.0000
10560OM     OM110560   1.555   0.159   8.300  0.0000  0.0000  0.0000
10561OM     OM110561   1.702   0.366   8.349  0.0000  0.0000  0.0000
10562OM     OM110562   4.486   4.375   9.119  0.0000  0.0000  0.0000
10563OM     OM110563   4.705   4.423   8.988  0.0000  0.0000  0.0000
10564OM     OM110564   4.711   4.270   9.203  0.0000  0.0000  0.0000
10565OM     OM110565   4.675   2.200   0.253  0.0000  0.0000  0.0000
10566OM     OM110566   1.992   8.398   8.892  0.0000  0.0000  0.0000
10567OM     OM110567   3.205   2.507   1.219  0.0000  0.0000  0.0000
10568OM     OM110568   2.493   3.750   9.061  0.0000  0.0000  0.0000
10569OM     OM110569   4.094   6.653   8.340  0.0000  0.0000  0.0000
10570OM     OM110570   3.832   6.606   8.350  0.0000  0.0000  0.0000
10571OM     OM110571   9.475   4.046   9.305  0.0000  0.0000  0.0000
10572OM     OM110572   4.990   8.769   1.201  0.0000  0.0000  0.0000
10573OM     OM110573   9.435   2.372   8.813  0.0000  0.0000  0.0000
10574OM     OM110574   9.279   2.380   1.045  0.0000  0.0000  0.0000
10575OM     OM110575   5.751   6.996   9.185  0.0000  0.0000  0.0000
10576OM     OM110576   5.659   6.836   9.367  0.0000  0.0000  0.0000
10577OM     OM110577   5.847   7.014   9.423  0.0000  0.0000  0.0000
10578OM     OM110578   0.163   4.507   0.179  0.0000  0.0000  0.0000
10579OM     OM110579   0.720   7.804   1.177  0.0000  0.0000  0.0000
10580OM     OM110580   0.598   7.875   0.949  0.0000  0.0000  0.0000
10581OM     OM110581   2.385   5.985   1.262  0.0000  0.0000  0.0000
10582OM     OM110582   2.191   5.831   1.321  0.0000  0.0000  0.0000
10583OM     OM110583   9.216   2.165   1.178  0.0000  0.0000  0.0000
10584OM     OM110584   9.603   0.575   0.575  0.0000  0.0000  0.0000
10585OM     OM110585   0.096   0.441   0.777  0.0000  0.0000  0.0000
10586OM     OM110586   6.146   6.606   1.013  0.0000  0.0000  0.0000
10587OM     OM110587   0.534   8.914   1.341  0.0000  0.0000  0.0000
10588OM     OM110588   6.097   4.264   8.645  0.0000  0.0000  0.0000
10589OM     OM110589   8.454   6.605   0.062  0.0000  0.0000  0.0000
10590OM     OM110590   9.278   5.274   0.767  0.0000  0.0000  0.0000
10591OM     OM110591   6.031   2.731   1.092  0.0000  0.0000  0.0000
10592OM     OM110592   6.410   1.319   1.294  0.0000  0.0000  0.0000
10593OM     OM110593   6.367   1.565   1.384  0.0000  0.0000  0.0000
10594OM     OM110594   3.181   2.977   9.588  0.0000  0.0000  0.0000
10595OM     OM110595   7.148   0.622   9.238  0.0000  0.0000  0.0000
10596OM     OM110596   3.199   5.213   8.823  0.0000  0.0000  0.0000
10597OM     OM110597   7.695   5.094   0.989  0.0000  0.0000  0.0000
10598OM     OM110598   8.652   5.501   0.289  0.0000  0.0000  0.0000
10599OM     OM110599   2.558   4.699   8.650  0.0000  0.0000  0.0000
10600OM     OM110600   9.051   0.754   0.170  0.0000  0.0000  0.0000
10601OM     OM110601   9.213   0.730   9.582  0.0000  0.0000  0.0000
10602OM     OM110602   2.231   7.561   0.948  0.0000  0.0000  0.0000
10603OM     OM110603   2.895   3.057   8.526  0.0000  0.0000  0.0000
10604OM     OM110604   3.031   3.211   8.700  0.0000  0.0000  0.0000
10605OM     OM110605   1.279   6.763   9.072  0.0000  0.0000  0.0000
10606OM     OM110606   9.052   5.859   0.883  0.0000  0.0000  0.0000
10607OM     OM110607   5.607   8.372   8.372  0.0000  0.0000  0.0000
10608OM     OM110608   5.633   2.590   8.722  0.0000  0.0000  0.0000
10609OM     OM110609   5.402   2.700   8.696  0.0000  0.0000  0.0000
10610OM     OM110610   5.769   2.761   1.042  0.0000  0.0000  0.0000
10611OM     OM110611   5.866   2.559   1.190  0.0000  0.0000  0.0000
10612OM     OM110612   0.039   0.264   0.954  0.0000  0.0000  0.0000
10613OM     OM110613   0.281   0.286   0.854  0.0000  0.0000  0.0000
10614OM     OM110614   6.276   3.023   0.200  0.0000  0.0000  0.0000
10615OM     OM110615   8.276   5.513   9.334  0.0000  0.0000  0.0000
10616OM     OM110616   4.880   8.929   9.068  0.0000  0.0000  0.0000
10617OM     OM110617   6.821   6.455   0.535  0.0000  0.0000  0.0000
10618OM     OM110618   6.721   6.478   0.766  0.0000  0.0000  0.0000
10619OM     OM110619   9.346   8.440   9.329  0.0000  0.0000  0.0000
10620OM     OM110620   3.931   5.565   0.056  0.0000  0.0000  0.0000
10621OM     OM110621   4.057   5.673   0.266  0.0000  0.0000  0.0000
10622OM     OM110622   6.343   6.162   1.063  0.0000  0.0000  0.0000
10623OM     OM110623   6.959   3.238   8.945  0.0000  0.0000  0.0000
10624OM     OM110624   6.761   3.404   8.961  0.0000  0.0000  0.0000
10625OM     OM110625   7.025   5.544   8.574  0.0000  0.0000  0.0000
10626OM     OM110626   7.114   5.698   8.195  0.0000  0.0000  0.0000
10627OM     OM110627   0.549   0.902   0.887  0.0000  0.0000  0.0000
10628OM     OM110628   1.411   1.346   0.621  0.0000  0.0000  0.0000
10629OM     OM110629   1.410   1.719   0.971  0.0000  0.0000  0.0000
10630OM     OM110630   1.542   1.772   0.757  0.0000  0.0000  0.0000
10631OM     OM110631   0.279   4.899   9.511  0.0000  0.0000  0.0000
10632OM     OM110632   3.144   6.638   1.270  0.0000  0.0000  0.0000
10633OM     OM110633   7.905   7.507   0.195  0.0000  0.0000  0.0000
10634OM     OM110634   0.332   0.805   1.004  0.0000  0.0000  0.0000
10635OM     OM110635   7.010   4.573   8.769  0.0000  0.0000  0.0000
10636OM     OM110636   6.945   4.380   8.919  0.0000  0.0000  0.0000
10637OM     OM110637   6.036   4.783   0.306  0.0000  0.0000  0.0000
10638OM     OM110638   0.441   3.240   8.860  0.0000  0.0000  0.0000
10639OM     OM110639   5.363   7.758   0.092  0.0000  0.0000  0.0000
10640OM     OM110640   5.459   7.591   9.524  0.0000  0.0000  0.0000
10641OM     OM110641   5.586   7.818   9.556  0.0000  0.0000  0.0000
10642OM     OM110642   5.359   7.822   9.449  0.0000  0.0000  0.0000
10643OM     OM110643   3.980   9.437   0.842  0.0000  0.0000  0.0000
10644OM     OM110644   2.717   3.714   0.897  0.0000  0.0000  0.0000
10645OM     OM110645   7.515   9.085   9.060  0.0000  0.0000  0.0000
10646OM     OM110646   7.336   8.881   9.060  0.0000  0.0000  0.0000
10647OM     OM110647   6.762   3.215   9.131  0.0000  0.0000  0.0000
10648OM     OM110648   0.371   3.027   0.843  0.0000  0.0000  0.0000
10649OM     OM110649   2.147   2.570   8.554  0.0000  0.0000  0.0000
10650OM     OM110650   7.985   3.475   9.319  0.0000  0.0000  0.0000
10651OM     OM110651   2.258   8.679   0.329  0.0000  0.0000  0.0000
10652OM     OM110652   2.050   8.539   0.218  0.0000  0.0000  0.0000
10653OM     OM110653   8.338   1.604   8.588  0.0000  0.0000  0.0000
10654OM     OM110654   3.112   3.200   8.957  0.0000  0.0000  0.0000
10655OM     OM110655   4.943   5.207   8.769  0.0000  0.0000  0.0000
10656OM     OM110656   4.818   5.088   8.580  0.0000  0.0000  0.0000
10657OM     OM110657   4.964   4.947   8.763  0.0000  0.0000  0.0000
10658OM     OM110658   7.121   6.767   8.472  0.0000  0.0000  0.0000
10659OM     OM110659   4.698   3.357   8.764  0.0000  0.0000  0.0000
10660OM     OM110660   0.903   7.943   8.990  0.0000  0.0000  0.0000
10661OM     OM110661   0.710   7.830   9.146  0.0000  0.0000  0.0000
10662OM     OM110662   6.312   6.435   1.079  0.0000  0.0000  0.0000
10663OM     OM110663   4.365   1.908   0.741  0.0000  0.0000  0.0000
10664OM     OM110664   4.587   2.569   9.227  0.0000  0.0000  0.0000
10665OM     OM110665   2.425   6.064   9.089  0.0000  0.0000  0.0000
10666OM     OM110666   1.310   7.541   8.735  0.0000  0.0000  0.0000
10667OM     OM110667   5.734   5.659   8.867  0.0000  0.0000  0.0000
10668OM     OM110668   4.908   5.655   0.437  0.0000  0.0000  0.0000
10669OM     OM110669   8.634   5.114   0.944  0.0000  0.0000  0.0000
10670OM     OM110670   8.752   5.067   1.182  0.0000  0.0000  0.0000
10671OM     OM110671   8.619   5.274   1.170  0.0000  0.0000  0.0000
10672OM     OM110672   3.181   1.142   0.428  0.0000  0.0000  0.0000
10673OM     OM110673   7.155   9.538   9.235  0.0000  0.0000  0.0000
10674OM     OM110674   1.026   4.138   8.486  0.0000  0.0000  0.0000
10675OM     OM110675   3.294   6.321   8.775  0.0000  0.0000  0.0000
10676OM     OM110676   3.747   2.136   0.128  0.0000  0.0000  0.0000
10677OM     OM110677   1.159   6.642   8.768  0.0000  0.0000  0.0000
10678OM     OM110678   8.111   7.221   1.098  0.0000  0.0000  0.0000
10679OM     OM110679   7.975   7.442   1.072  0.0000  0.0000  0.0000
10680OM     OM110680   5.350   5.463   0.456  0.0000  0.0000  0.0000
10681OM     OM110681   5.510   6.628   9.446  0.0000  0.0000  0.0000
10682OM     OM110682   8.537   1.264   9.079  0.0000  0.0000  0.0000
10683OM     OM110683   1.860   4.225   0.472  0.0000  0.0000  0.0000
10684OM     OM110684   7.148   2.936   8.697  0.0000  0.0000  0.0000
10685OM     OM110685   5.385   6.916   1.194  0.0000  0.0000  0.0000
10686OM     OM110686   5.377   6.682   1.303  0.0000  0.0000  0.0000
10687OM     OM110687   9.404   7.636   8.667  0.0000  0.0000  0.0000
10688OM     OM110688   4.659   7.982   1.014  0.0000  0.0000  0.0000
10689OM     OM110689   4.566   7.870   0.775  0.0000  0.0000  0.0000
10690OM     OM110690   4.652   7.730   0.964  0.0000  0.0000  0.0000
10691OM     OM110691   6.187   0.994   0.238  0.0000  0.0000  0.0000
10692OM     OM110692   6.457   7.186   9.000  0.0000  0.0000  0.0000
10693OM     OM110693   6.646   7.354   8.994  0.0000  0.0000  0.0000
10694OM     OM110694   5.314   6.035   8.326  0.0000  0.0000  0.0000
10695OM     OM110695   4.991   0.189   0.538  0.0000  0.0000  0.0000
10696OM     OM110696   4.473   1.307   0.084  0.0000  0.0000  0.0000
10697OM     OM110697   2.480   5.452   0.176  0.0000  0.0000  0.0000
10698OM     OM110698   5.287   3.030   9.329  0.0000  0.0000  0.0000
10699OM     OM110699   1.380   7.397   0.311  0.0000  0.0000  0.0000
10700OM     OM110700   1.510   7.350   0.090  0.0000  0.0000  0.0000
10701OM     OM110701   4.455   8.580   8.327  0.0000  0.0000  0.0000
10702OM     OM110702   7.719   7.658   9.428  0.0000  0.0000  0.0000
10703OM     OM110703   4.559   3.133   8.824  0.0000  0.0000  0.0000
10704OM     OM110704   0.479   1.597   9.520  0.0000  0.0000  0.0000
10705OM     OM110705   5.327   0.792   1.382  0.0000  0.0000  0.0000
10706OM     OM110706   1.688   3.168   0.048  0.0000  0.0000  0.0000
10707OM     OM110707   6.177   2.167   9.532  0.0000  0.0000  0.0000
10708OM     OM110708   6.132   2.029   0.137  0.0000  0.0000  0.0000
10709OM     OM110709   8.404   6.073   8.931  0.0000  0.0000  0.0000
10710OM     OM110710   3.395   7.445   1.076  0.0000  0.0000  0.0000
10711OM     OM110711   3.368   7.423   1.335  0.0000  0.0000  0.0000
10712OM     OM110712   0.116   8.783   9.590  0.0000  0.0000  0.0000
10713OM     OM110713   0.004   8.559   9.515  0.0000  0.0000  0.0000
10714OM     OM110714   1.113   1.956   0.914  0.0000  0.0000  0.0000
10715OM     OM110715   1.188   2.041   0.668  0.0000  0.0000  0.0000
10716OM     OM110716   7.911   3.625   9.108  0.0000  0.0000  0.0000
10717OM     OM110717   8.572   3.603   9.237  0.0000  0.0000  0.0000
10718OM     OM110718   3.533   1.308   8.719  0.0000  0.0000  0.0000
10719OM     OM110719   1.110   7.051   0.380  0.0000  0.0000  0.0000
10720OM     OM110720   4.498   2.332   9.327  0.0000  0.0000  0.0000
10721OM     OM110721   7.598   7.084   0.285  0.0000  0.0000  0.0000
10722OM     OM110722   4.019   5.436   0.669  0.0000  0.0000  0.0000
10723OM     OM110723   4.099   5.643   0.520  0.0000  0.0000  0.0000
10724OM     OM110724   2.122   2.729   8.939  0.0000  0.0000  0.0000
10725OM     OM110725   2.007   2.772   9.168  0.0000  0.0000  0.0000
10726OM     OM110726   8.435   9.405   9.299  0.0000  0.0000  0.0000
10727OM     OM110727   6.589   9.053   0.515  0.0000  0.0000  0.0000
10728OM     OM110728   6.265   8.820   0.494  0.0000  0.0000  0.0000
10729OM     OM110729   3.342   4.027   0.483  0.0000  0.0000  0.0000
10730OM     OM110730   3.017   3.085   9.165  0.0000  0.0000  0.0000
10731OM     OM110731   1.156   5.551   0.852  0.0000  0.0000  0.0000
10732OM     OM110732   2.069   7.275   9.097  0.0000  0.0000  0.0000
10733OM     OM110733   7.906   9.407   0.962  0.0000  0.0000  0.0000
10734OM     OM110734   7.981   9.545   0.752  0.0000  0.0000  0.0000
10735OM     OM110735   0.525   7.228   9.318  0.0000  0.0000  0.0000
10736OM     OM110736   4.725   0.791   8.391  0.0000  0.0000  0.0000
10737OM     OM110737   2.210   2.422   0.817  0.0000  0.0000  0.0000
10738OM     OM110738   2.288   1.963   0.663  0.0000  0.0000  0.0000
10739OM     OM110739   2.387   8.536   9.542  0.0000  0.0000  0.0000
10740OM     OM110740   2.170   5.876   8.679  0.0000  0.0000  0.0000
10741OM     OM110741   3.071   6.477   8.799  0.0000  0.0000  0.0000
10742OM     OM110742   9.068   5.659   1.060  0.0000  0.0000  0.0000
10743OM     OM110743   8.857   5.563   1.175  0.0000  0.0000  0.0000
10744OM     OM110744   6.515   3.538   1.021  0.0000  0.0000  0.0000
10745OM     OM110745   7.737   7.468   9.601  0.0000  0.0000  0.0000
10746OM     OM110746   7.710   7.301   0.183  0.0000  0.0000  0.0000
10747OM     OM110747   7.014   7.064   1.213  0.0000  0.0000  0.0000
10748OM     OM110748   2.950   8.744   0.072  0.0000  0.0000  0.0000
10749OM     OM110749   5.433   2.964   9.535  0.0000  0.0000  0.0000
10750OM     OM110750   5.689   4.640   9.394  0.0000  0.0000  0.0000
10751OM     OM110751   8.839   8.225   0.291  0.0000  0.0000  0.0000
10752OM     OM110752   5.526   3.505   1.063  0.0000  0.0000  0.0000
10753OM     OM110753   9.570   1.124   8.963  0.0000  0.0000  0.0000
10754OM     OM110754   9.569   1.018   9.189  0.0000  0.0000  0.0000
10755OM     OM110755   7.174   7.893   0.998  0.0000  0.0000  0.0000
10756OM     OM110756   2.877   8.151   1.219  0.0000  0.0000  0.0000
10757OM     OM110757   2.633   8.199   1.142  0.0000  0.0000  0.0000
10758OM     OM110758   5.140   4.255   1.202  0.0000  0.0000  0.0000
10759OM     OM110759   7.375   3.162   8.497  0.0000  0.0000  0.0000
10760OM     OM110760   5.006   6.234   0.719  0.0000  0.0000  0.0000
10761OM     OM110761   5.948   4.529   9.375  0.0000  0.0000  0.0000
10762OM     OM110762   8.213   2.166   8.910  0.0000  0.0000  0.0000
10763OM     OM110763   3.920   5.815   0.435  0.0000  0.0000  0.0000
10764OM     OM110764   0.562   9.604   8.432  0.0000  0.0000  0.0000
10765OM     OM110765   0.607   0.086   8.684  0.0000  0.0000  0.0000
10766OM     OM110766   0.698   0.216   8.468  0.0000  0.0000  0.0000
10767OM     OM110767   3.370   0.369   0.263  0.0000  0.0000  0.0000
10768OM     OM110768   6.530   8.127   0.938  0.0000  0.0000  0.0000
10769OM     OM110769   3.560   0.519   0.363  0.0000  0.0000  0.0000
10770OM     OM110770   5.030   5.453   8.754  0.0000  0.0000  0.0000
10771OM     OM110771   7.228   1.329   0.437  0.0000  0.0000  0.0000
10772OM     OM110772   2.294   4.869   0.516  0.0000  0.0000  0.0000
10773OM     OM110773   0.111   7.380   0.814  0.0000  0.0000  0.0000
10774OM     OM110774   9.057   7.272   0.956  0.0000  0.0000  0.0000
10775OM     OM110775   2.941   1.538   0.416  0.0000  0.0000  0.0000
10776OM     OM110776   4.478   7.624   1.144  0.0000  0.0000  0.0000
10777OM     OM110777   4.695   7.498   1.076  0.0000  0.0000  0.0000
10778OM     OM110778   6.616   8.621   9.368  0.0000  0.0000  0.0000
10779OM     OM110779   6.304   6.160   8.956  0.0000  0.0000  0.0000
10780OM     OM110780   6.389   6.083   9.190  0.0000  0.0000  0.0000
10781OM     OM110781   0.164   2.653   0.689  0.0000  0.0000  0.0000
10782OM     OM110782   0.144   5.814   9.218  0.0000  0.0000  0.0000
10783OM     OM110783   0.254   5.763   8.989  0.0000  0.0000  0.0000
10784OM     OM110784   8.737   6.884   1.173  0.0000  0.0000  0.0000
10785OM     OM110785   5.776   3.480   0.969  0.0000  0.0000  0.0000
10786OM     OM110786   5.697   3.390   1.207  0.0000  0.0000  0.0000
10787OM     OM110787   0.158   5.791   9.477  0.0000  0.0000  0.0000
10788OM     OM110788   3.899   7.206   0.553  0.0000  0.0000  0.0000
10789OM     OM110789   0.485   5.882   8.961  0.0000  0.0000  0.0000
10790OM     OM110790   9.582   0.768   1.360  0.0000  0.0000  0.0000
10791OM     OM110791   4.337   3.746   9.197  0.0000  0.0000  0.0000
10792OM     OM110792   5.588   5.854   0.582  0.0000  0.0000  0.0000
10793OM     OM110793   5.480   6.081   0.613  0.0000  0.0000  0.0000
10794OM     OM110794   6.028   7.346   0.418  0.0000  0.0000  0.0000
10795OM     OM110795   1.368   7.100   1.296  0.0000  0.0000  0.0000
10796OM     OM110796   1.741   6.317   0.333  0.0000  0.0000  0.0000
10797OM     OM110797   2.246   0.301   9.346  0.0000  0.0000  0.0000
10798OM     OM110798   2.109   0.538   9.348  0.0000  0.0000  0.0000
10799OM     OM110799   7.388   6.215   0.217  0.0000  0.0000  0.0000
10800OM     OM110800   0.458   2.530   8.630  0.0000  0.0000  0.0000
10801OM     OM110801   0.354   2.702   8.472  0.0000  0.0000  0.0000
10802OM     OM110802   2.872   5.555   8.309  0.0000  0.0000  0.0000
10803OM     OM110803   4.099   9.234   0.074  0.0000  0.0000  0.0000
10804OM     OM110804   0.331   9.475   1.101  0.0000  0.0000  0.0000
10805OM     OM110805   9.200   5.599   9.551  0.0000  0.0000  0.0000
10806OM     OM110806   9.340   4.635   0.865  0.0000  0.0000  0.0000
10807OM     OM110807   7.095   5.496   8.818  0.0000  0.0000  0.0000
10808OM     OM110808   4.777   6.381   8.434  0.0000  0.0000  0.0000
10809OM     OM110809   7.399   0.503   8.827  0.0000  0.0000  0.0000
10810OM     OM110810   7.560   0.704   8.875  0.0000  0.0000  0.0000
10811OM     OM110811   1.333   2.625   0.998  0.0000  0.0000  0.0000
10812OM     OM110812   0.887   2.662   8.805  0.0000  0.0000  0.0000
10813OM     OM110813   0.947   5.571   8.545  0.0000  0.0000  0.0000
10814OM     OM110814   6.150   7.953   8.472  0.0000  0.0000  0.0000
10815OM     OM110815   8.280   0.502   8.372  0.0000  0.0000  0.0000
10816OM     OM110816   1.336   3.315   8.725  0.0000  0.0000  0.0000
10817OM     OM110817   8.269   2.634   8.766  0.0000  0.0000  0.0000
10818OM     OM110818   8.194   2.395   8.796  0.0000  0.0000  0.0000
10819OM     OM110819   8.154   6.685   8.730  0.0000  0.0000  0.0000
10820OM     OM110820   1.132   8.560   8.712  0.0000  0.0000  0.0000
10821OM     OM110821   2.030   8.703   8.212  0.0000  0.0000  0.0000
10822OM     OM110822   2.129   8.865   8.404  0.0000  0.0000  0.0000
10823OM     OM110823   6.554   3.943   0.725  0.0000  0.0000  0.0000
10824OM     OM110824   6.551   3.685   0.808  0.0000  0.0000  0.0000
10825OM     OM110825   5.374   0.456   8.721  0.0000  0.0000  0.0000
10826OM     OM110826   4.664   0.943   0.807  0.0000  0.0000  0.0000
10827OM     OM110827   0.714   5.698   8.540  0.0000  0.0000  0.0000
10828OM     OM110828   3.128   5.526   8.311  0.0000  0.0000  0.0000
10829OM     OM110829   4.148   7.107   1.172  0.0000  0.0000  0.0000
10830OM     OM110830   8.159   2.776   9.602  0.0000  0.0000  0.0000
10831OM     OM110831   8.546   6.465   8.669  0.0000  0.0000  0.0000
10832OM     OM110832   5.938   3.655   0.866  0.0000  0.0000  0.0000
10833OM     OM110833   8.058   4.360   1.032  0.0000  0.0000  0.0000
10834OM     OM110834   3.755   5.823   8.713  0.0000  0.0000  0.0000
10835OM     OM110835   3.838   5.809   8.959  0.0000  0.0000  0.0000
10836OM     OM110836   6.070   3.254   8.503  0.0000  0.0000  0.0000
10837OM     OM110837   5.820   3.180   8.529  0.0000  0.0000  0.0000
10838OM     OM110838   4.692   9.520   8.565  0.0000  0.0000  0.0000
10839OM     OM110839   4.617   9.506   8.916  0.0000  0.0000  0.0000
10840OM     OM110840   8.350   8.635   1.182  0.0000  0.0000  0.0000
10841OM     OM110841   8.200   8.769   1.347  0.0000  0.0000  0.0000
10842OM     OM110842   4.557   2.197   0.482  0.0000  0.0000  0.0000
10843OM     OM110843   4.724   2.368   0.594  0.0000  0.0000  0.0000
10844OM     OM110844   6.261   2.207   9.287  0.0000  0.0000  0.0000
10845OM     OM110845   5.156   1.394   0.242  0.0000  0.0000  0.0000
10846OM     OM110846   5.334   1.507   0.399  0.0000  0.0000  0.0000
10847OM     OM110847   2.543   9.399   9.449  0.0000  0.0000  0.0000
10848OM     OM110848   3.375   7.604   0.880  0.0000  0.0000  0.0000
10849OM     OM110849   4.944   0.101   0.787  0.0000  0.0000  0.0000
10850OM     OM110850   3.779   5.216   9.403  0.0000  0.0000  0.0000
10851OM     OM110851   3.740   5.402   9.583  0.0000  0.0000  0.0000
10852OM     OM110852   6.986   6.576   8.349  0.0000  0.0000  0.0000
10853OM     OM110853   4.642   7.743   0.561  0.0000  0.0000  0.0000
10854OM     OM110854   3.911   6.212   9.207  0.0000  0.0000  0.0000
10855OM     OM110855   8.751   3.893   0.966  0.0000  0.0000  0.0000
10856OM     OM110856   0.717   4.536   0.933  0.0000  0.0000  0.0000
10857OM     OM110857   0.790   4.421   1.154  0.0000  0.0000  0.0000
10858OM     OM110858   4.223   0.509   8.343  0.0000  0.0000  0.0000
10859OM     OM110859   9.366   1.111   0.280  0.0000  0.0000  0.0000
10860OM     OM110860   2.596   4.987   9.561  0.0000  0.0000  0.0000
10861OM     OM110861   2.495   4.791   0.107  0.0000  0.0000  0.0000
10862OM     OM110862   5.426   3.435   8.749  0.0000  0.0000  0.0000
10863OM     OM110863   5.270   6.563   9.371  0.0000  0.0000  0.0000
10864OM     OM110864   3.008   0.357   1.224  0.0000  0.0000  0.0000
10865OM     OM110865   0.799   8.775   9.298  0.0000  0.0000  0.0000
10866OM     OM110866   0.381   6.282   1.257  0.0000  0.0000  0.0000
10867OM     OM110867   3.135   0.128   1.183  0.0000  0.0000  0.0000
10868OM     OM110868   4.264   9.439   1.281  0.0000  0.0000  0.0000
10869OM     OM110869   4.511   9.348   1.341  0.0000  0.0000  0.0000
10870OM     OM110870   7.840   8.306   8.584  0.0000  0.0000  0.0000
10871OM     OM110871   7.794   5.118   8.931  0.0000  0.0000  0.0000
10872OM     OM110872   7.790   4.695   8.912  0.0000  0.0000  0.0000
10873OM     OM110873   8.709   5.761   1.267  0.0000  0.0000  0.0000
10874OM     OM110874   8.693   5.995   1.154  0.0000  0.0000  0.0000
10875OM     OM110875   9.072   7.457   0.758  0.0000  0.0000  0.0000
10876OM     OM110876   9.432   7.376   8.651  0.0000  0.0000  0.0000
10877OM     OM110877   5.598   3.076   0.108  0.0000  0.0000  0.0000
10878OM     OM110878   7.173   5.017   0.248  0.0000  0.0000  0.0000
10879OM     OM110879   7.265   4.966   0.493  0.0000  0.0000  0.0000
10880OM     OM110880   0.559   2.281   0.142  0.0000  0.0000  0.0000
10881OM     OM110881   8.801   3.561   0.515  0.0000  0.0000  0.0000
10882OM     OM110882   8.032   5.655   0.361  0.0000  0.0000  0.0000
10883OM     OM110883   5.291   6.899   0.323  0.0000  0.0000  0.0000
10884OM     OM110884   4.887   7.048   0.328  0.0000  0.0000  0.0000
10885OM     OM110885   5.311   7.078   0.508  0.0000  0.0000  0.0000
10886OM     OM110886   3.483   1.547   8.631  0.0000  0.0000  0.0000
10887OM     OM110887   0.935   7.662   1.182  0.0000  0.0000  0.0000
10888OM     OM110888   2.564   3.760   1.115  0.0000  0.0000  0.0000
10889OM     OM110889   9.362   6.996   9.268  0.0000  0.0000  0.0000
10890OM     OM110890   3.409   4.968   0.445  0.0000  0.0000  0.0000
10891OM     OM110891   9.281   6.503   8.453  0.0000  0.0000  0.0000
10892OM     OM110892   1.494   5.268   9.018  0.0000  0.0000  0.0000
10893OM     OM110893   1.381   5.040   9.059  0.0000  0.0000  0.0000
10894OM     OM110894   1.530   5.144   9.249  0.0000  0.0000  0.0000
10895OM     OM110895   2.479   4.753   0.375  0.0000  0.0000  0.0000
10896OM     OM110896   3.416   7.474   8.652  0.0000  0.0000  0.0000
10897OM     OM110897   1.436   2.006   9.575  0.0000  0.0000  0.0000
10898OM     OM110898   7.771   8.082   8.499  0.0000  0.0000  0.0000
10899OM     OM110899   8.042   8.161   8.554  0.0000  0.0000  0.0000
10900OM     OM110900   0.817   8.566   9.147  0.0000  0.0000  0.0000
10901OM     OM110901   3.943   6.429   9.097  0.0000  0.0000  0.0000
10902OM     OM110902   4.250   6.772   8.178  0.0000  0.0000  0.0000
10903OM     OM110903   8.806   4.148   0.964  0.0000  0.0000  0.0000
10904OM     OM110904   6.769   9.244   0.652  0.0000  0.0000  0.0000
10905OM     OM110905   6.709   9.211   0.902  0.0000  0.0000  0.0000
10906OM     OM110906   7.088   3.797   8.411  0.0000  0.0000  0.0000
10907OM     OM110907   3.002   3.954   8.478  0.0000  0.0000  0.0000
10908OM     OM110908   6.923   4.399   0.403  0.0000  0.0000  0.0000
10909OM     OM110909   7.461   6.341   9.127  0.0000  0.0000  0.0000
10910OM     OM110910   7.516   6.292   8.873  0.0000  0.0000  0.0000
10911OM     OM110911   8.402   6.219   1.276  0.0000  0.0000  0.0000
10912OM     OM110912   3.283   9.582   1.038  0.0000  0.0000  0.0000
10913OM     OM110913   9.501   4.052   1.069  0.0000  0.0000  0.0000
10914OM     OM110914   9.535   6.810   9.338  0.0000  0.0000  0.0000
10915OM     OM110915   9.044   1.256   8.739  0.0000  0.0000  0.0000
10916OM     OM110916   5.943   3.794   1.097  0.0000  0.0000  0.0000
10917OM     OM110917   1.433   1.125   0.231  0.0000  0.0000  0.0000
10918OM     OM110918   7.484   4.975   0.881  0.0000  0.0000  0.0000
10919OM     OM110919   1.762   6.770   0.062  0.0000  0.0000  0.0000
10920OM     OM110920   9.297   4.217   1.062  0.0000  0.0000  0.0000
10921OM     OM110921   5.323   8.394   9.082  0.0000  0.0000  0.0000
10922OM     OM110922   5.369   8.592   9.251  0.0000  0.0000  0.0000
10923OM     OM110923   5.488   0.998   1.353  0.0000  0.0000  0.0000
10924OM     OM110924   6.195   4.551   9.254  0.0000  0.0000  0.0000
10925OM     OM110925   0.145   3.078   8.747  0.0000  0.0000  0.0000
10926OM     OM110926   3.627   6.705   8.456  0.0000  0.0000  0.0000
10927OM     OM110927   7.052   4.292   0.597  0.0000  0.0000  0.0000
10928OM     OM110928   3.617   6.865   8.664  0.0000  0.0000  0.0000
10929OM     OM110929   3.752   7.069   8.594  0.0000  0.0000  0.0000
10930OM     OM110930   2.387   8.641   9.304  0.0000  0.0000  0.0000
10931OM     OM110931   8.657   6.726   0.593  0.0000  0.0000  0.0000
10932OM     OM110932   7.440   9.303   1.132  0.0000  0.0000  0.0000
10933OM     OM110933   4.680   5.136   0.272  0.0000  0.0000  0.0000
10934OM     OM110934   8.017   1.392   0.576  0.0000  0.0000  0.0000
10935OM     OM110935   5.451   6.389   9.398  0.0000  0.0000  0.0000
10936OM     OM110936   1.105   2.167   0.451  0.0000  0.0000  0.0000
10937OM     OM110937   8.332   9.548   9.493  0.0000  0.0000  0.0000
10938OM     OM110938   6.434   1.375   0.718  0.0000  0.0000  0.0000
10939OM     OM110939   7.277   2.997   0.912  0.0000  0.0000  0.0000
10940OM     OM110940   9.447   7.725   1.242  0.0000  0.0000  0.0000
10941OM     OM110941   8.979   8.883   8.865  0.0000  0.0000  0.0000
10942OM     OM110942   2.078   6.284   8.427  0.0000  0.0000  0.0000
10943OM     OM110943   5.896   2.589   8.690  0.0000  0.0000  0.0000
10944OM     OM110944   5.890   2.720   8.464  0.0000  0.0000  0.0000
10945OM     OM110945   1.398   2.771   1.202  0.0000  0.0000  0.0000
10946OM     OM110946   1.571   7.973   0.886  0.0000  0.0000  0.0000
10947OM     OM110947   1.776   2.415   0.947  0.0000  0.0000  0.0000
10948OM     OM110948   5.745   2.409   8.584  0.0000  0.0000  0.0000
10949OM     OM110949   1.885   1.992   8.217  0.0000  0.0000  0.0000
10950OM     OM110950   1.681   1.853   8.289  0.0000  0.0000  0.0000
10951OM     OM110951   2.807   5.148   9.550  0.0000  0.0000  0.0000
10952OM     OM110952   2.584   5.235   0.051  0.0000  0.0000  0.0000
10953OM     OM110953   2.230   7.492   0.697  0.0000  0.0000  0.0000
10954OM     OM110954   5.925   1.246   8.549  0.0000  0.0000  0.0000
10955OM     OM110955   8.412   8.098   9.196  0.0000  0.0000  0.0000
10956OM     OM110956   6.862   1.571   0.640  0.0000  0.0000  0.0000
10957OM     OM110957   4.200   7.004   1.414  0.0000  0.0000  0.0000
10958OM     OM110958   2.731   8.591   0.824  0.0000  0.0000  0.0000
10959OM     OM110959   3.908   7.479   8.699  0.0000  0.0000  0.0000
10960OM     OM110960   3.827   7.307   8.524  0.0000  0.0000  0.0000
10961OM     OM110961   3.659   7.398   8.706  0.0000  0.0000  0.0000
10962OM     OM110962   2.803   7.857   8.702  0.0000  0.0000  0.0000
10963OM     OM110963   6.181   4.480   9.495  0.0000  0.0000  0.0000
10964OM     OM110964   8.238   7.020   1.004  0.0000  0.0000  0.0000
10965OM     OM110965   8.336   7.251   0.963  0.0000  0.0000  0.0000
10966OM     OM110966   8.954   1.074   8.903  0.0000  0.0000  0.0000
10967OM     OM110967   3.144   3.854   0.419  0.0000  0.0000  0.0000
10968OM     OM110968   9.533   4.752   0.728  0.0000  0.0000  0.0000
10969OM     OM110969   6.748   3.545   0.901  0.0000  0.0000  0.0000
10970OM     OM110970   5.685   6.009   0.967  0.0000  0.0000  0.0000
10971OM     OM110971   5.490   7.045   0.991  0.0000  0.0000  0.0000
10972OM     OM110972   8.970   8.140   0.811  0.0000  0.0000  0.0000
10973OM     OM110973   5.545   1.229   8.865  0.0000  0.0000  0.0000
10974OM     OM110974   5.338   0.928   8.487  0.0000  0.0000  0.0000
10975OM     OM110975   2.275   4.733   0.225  0.0000  0.0000  0.0000
10976OM     OM110976   6.420   1.143   1.103  0.0000  0.0000  0.0000
10977OM     OM110977   1.873   6.699   0.287  0.0000  0.0000  0.0000
10978OM     OM110978   1.747   6.514   0.150  0.0000  0.0000  0.0000
10979OM     OM110979   8.050   2.344   9.015  0.0000  0.0000  0.0000
10980OM     OM110980   7.796   6.865   0.912  0.0000  0.0000  0.0000
10981OM     OM110981   8.038   6.930   0.855  0.0000  0.0000  0.0000
10982OM     OM110982   2.961   5.541   1.006  0.0000  0.0000  0.0000
10983OM     OM110983   8.386   6.789   0.231  0.0000  0.0000  0.0000
10984OM     OM110984   8.532   7.000   0.201  0.0000  0.0000  0.0000
10985OM     OM110985   8.506   6.894   0.440  0.0000  0.0000  0.0000
10986OM     OM110986   7.497   8.390   0.149  0.0000  0.0000  0.0000
10987OM     OM110987   6.620   6.004   9.287  0.0000  0.0000  0.0000
10988OM     OM110988   8.619   5.511   1.270  0.0000  0.0000  0.0000
10989OM     OM110989   6.679   1.439   0.782  0.0000  0.0000  0.0000
10990OM     OM110990   4.719   5.165   9.455  0.0000  0.0000  0.0000
10991OM     OM110991   6.391   1.818   1.331  0.0000  0.0000  0.0000
10992OM     OM110992   4.169   2.003   0.588  0.0000  0.0000  0.0000
10993OM     OM110993   2.447   1.871   0.483  0.0000  0.0000  0.0000
10994OM     OM110994   6.737   9.207   0.388  0.0000  0.0000  0.0000
10995OM     OM110995   4.189   4.607   8.335  0.0000  0.0000  0.0000
10996OM     OM110996   2.330   3.233   8.688  0.0000  0.0000  0.0000
10997OM     OM110997   2.946   3.695   0.334  0.0000  0.0000  0.0000
10998OM     OM110998   0.703   7.115   9.462  0.0000  0.0000  0.0000
10999OM     OM110999   6.995   7.016   0.019  0.0000  0.0000  0.0000
11000OM     OM111000   6.829   6.846   0.164  0.0000  0.0000  0.0000
11001OM     OM111001   5.937   3.366   9.498  0.0000  0.0000  0.0000
11002OM     OM111002   5.798   3.142   9.547  0.0000  0.0000  0.0000
11003OM     OM111003   3.026   1.545   1.246  0.0000  0.0000  0.0000
11004OM     OM111004   2.890   1.634   1.037  0.0000  0.0000  0.0000
11005OM     OM111005   8.380   5.442   8.785  0.0000  0.0000  0.0000
11006OM     OM111006   3.228   7.966   8.780  0.0000  0.0000  0.0000
11007OM     OM111007   5.063   8.979   8.374  0.0000  0.0000  0.0000
11008OM     OM111008   5.275   8.825   8.340  0.0000  0.0000  0.0000
11009OM     OM111009   5.839   2.295   1.220  0.0000  0.0000  0.0000
11010OM     OM111010   2.926   6.091   8.700  0.0000  0.0000  0.0000
11011OM     OM111011   4.939   5.150   0.002  0.0000  0.0000  0.0000
11012OM     OM111012   8.235   3.963   0.522  0.0000  0.0000  0.0000
11013OM     OM111013   7.064   4.370   0.834  0.0000  0.0000  0.0000
11014OM     OM111014   7.715   6.879   1.158  0.0000  0.0000  0.0000
11015OM     OM111015   0.052   2.279   8.909  0.0000  0.0000  0.0000
11016OM     OM111016   4.394   7.806   0.582  0.0000  0.0000  0.0000
11017OM     OM111017   2.299   8.871   9.373  0.0000  0.0000  0.0000
11018OM     OM111018   6.382   0.210   9.017  0.0000  0.0000  0.0000
11019OM     OM111019   6.151   0.207   9.142  0.0000  0.0000  0.0000
11020OM     OM111020   3.021   2.976   9.397  0.0000  0.0000  0.0000
11021OM     OM111021   3.130   2.747   9.466  0.0000  0.0000  0.0000
11022OM     OM111022   4.369   8.670   0.972  0.0000  0.0000  0.0000
11023OM     OM111023   5.130   6.444   0.798  0.0000  0.0000  0.0000
11024OM     OM111024   0.803   1.805   8.919  0.0000  0.0000  0.0000
11025OM     OM111025   0.766   1.652   8.706  0.0000  0.0000  0.0000
11026OM     OM111026   7.736   8.291   0.180  0.0000  0.0000  0.0000
11027OM     OM111027   6.191   1.967   9.363  0.0000  0.0000  0.0000
11028OM     OM111028   4.462   8.899   0.437  0.0000  0.0000  0.0000
11029OM     OM111029   2.200   6.585   1.163  0.0000  0.0000  0.0000
11030OM     OM111030   2.205   6.800   1.013  0.0000  0.0000  0.0000
11031OM     OM111031   2.667   9.511   0.053  0.0000  0.0000  0.0000
11032OM     OM111032   3.905   5.476   1.413  0.0000  0.0000  0.0000
11033OM     OM111033   8.438   4.120   0.430  0.0000  0.0000  0.0000
11034OM     OM111034   3.802   4.635   9.508  0.0000  0.0000  0.0000
11035OM     OM111035   7.289   4.867   0.744  0.0000  0.0000  0.0000
11036OM     OM111036   4.345   6.047   0.691  0.0000  0.0000  0.0000
11037OM     OM111037   6.407   6.932   0.782  0.0000  0.0000  0.0000
11038OM     OM111038   7.697   9.599   9.531  0.0000  0.0000  0.0000
11039OM     OM111039   2.675   8.398   0.991  0.0000  0.0000  0.0000
11040OM     OM111040   7.646   5.943   0.869  0.0000  0.0000  0.0000
11041OM     OM111041   4.139   4.947   1.031  0.0000  0.0000  0.0000
11042OM     OM111042   4.116   4.794   1.234  0.0000  0.0000  0.0000
11043OM     OM111043   6.797   5.453   1.141  0.0000  0.0000  0.0000
11044OM     OM111044   3.559   7.254   1.286  0.0000  0.0000  0.0000
11045OM     OM111045   0.862   1.545   8.489  0.0000  0.0000  0.0000
11046OM     OM111046   9.180   8.623   9.406  0.0000  0.0000  0.0000
11047OM     OM111047   9.359   8.527   9.574  0.0000  0.0000  0.0000
11048OM     OM111048   7.668   7.411   9.347  0.0000  0.0000  0.0000
11049OM     OM111049   2.687   4.374   1.164  0.0000  0.0000  0.0000
11050OM     OM111050   7.237   6.027   0.121  0.0000  0.0000  0.0000
11051OM     OM111051   6.466   4.055   0.494  0.0000  0.0000  0.0000
11052OM     OM111052   5.579   2.297   1.197  0.0000  0.0000  0.0000
11053OM     OM111053   5.290   5.507   0.710  0.0000  0.0000  0.0000
11054OM     OM111054   5.162   7.919   0.117  0.0000  0.0000  0.0000
11055OM     OM111055   4.959   7.842   9.573  0.0000  0.0000  0.0000
11056OM     OM111056   0.236   2.860   0.543  0.0000  0.0000  0.0000
11057OM     OM111057   1.698   1.762   0.559  0.0000  0.0000  0.0000
11058OM     OM111058   6.397   2.804   0.123  0.0000  0.0000  0.0000
11059OM     OM111059   7.894   5.398   1.018  0.0000  0.0000  0.0000
11060OM     OM111060   5.916   6.385   9.458  0.0000  0.0000  0.0000
11061OM     OM111061   5.790   6.170   9.549  0.0000  0.0000  0.0000
11062OM     OM111062   3.198   4.908   8.398  0.0000  0.0000  0.0000
11063OM     OM111063   4.077   7.116   0.376  0.0000  0.0000  0.0000
11064OM     OM111064   8.353   1.769   0.697  0.0000  0.0000  0.0000
11065OM     OM111065   9.142   0.695   9.339  0.0000  0.0000  0.0000
11066OM     OM111066   6.554   1.233   0.898  0.0000  0.0000  0.0000
11067OM     OM111067   1.745   3.334   9.456  0.0000  0.0000  0.0000
11068OM     OM111068   1.046   7.727   9.268  0.0000  0.0000  0.0000
11069OM     OM111069   6.715   2.522   1.305  0.0000  0.0000  0.0000
11070OM     OM111070   1.916   0.796   1.051  0.0000  0.0000  0.0000
11071OM     OM111071   1.064   5.373   0.208  0.0000  0.0000  0.0000
11072OM     OM111072   4.944   5.093   0.251  0.0000  0.0000  0.0000
11073OM     OM111073   4.806   5.044   0.472  0.0000  0.0000  0.0000
11074OM     OM111074   8.487   8.592   9.054  0.0000  0.0000  0.0000
11075OM     OM111075   3.962   0.496   8.328  0.0000  0.0000  0.0000
11076OM     OM111076   8.169   9.534   0.566  0.0000  0.0000  0.0000
11077OM     OM111077   5.603   4.094   0.804  0.0000  0.0000  0.0000
11078OM     OM111078   4.003   5.132   8.476  0.0000  0.0000  0.0000
11079OM     OM111079   1.100   5.369   0.461  0.0000  0.0000  0.0000
11080OM     OM111080   1.312   5.418   0.327  0.0000  0.0000  0.0000
11081OM     OM111081   0.777   0.388   8.300  0.0000  0.0000  0.0000
11082OM     OM111082   7.230   0.506   9.021  0.0000  0.0000  0.0000
11083OM     OM111083   3.927   1.924   0.633  0.0000  0.0000  0.0000
11084OM     OM111084   0.818   7.065   8.692  0.0000  0.0000  0.0000
11085OM     OM111085   6.619   1.930   8.715  0.0000  0.0000  0.0000
11086OM     OM111086   0.409   7.858   0.758  0.0000  0.0000  0.0000
11087OM     OM111087   1.650   0.270   9.600  0.0000  0.0000  0.0000
11088OM     OM111088   3.764   5.635   9.458  0.0000  0.0000  0.0000
11089OM     OM111089   0.991   6.892   0.195  0.0000  0.0000  0.0000
11090OM     OM111090   1.240   6.964   0.180  0.0000  0.0000  0.0000
11091OM     OM111091   7.520   1.997   0.870  0.0000  0.0000  0.0000
11092OM     OM111092   7.545   9.522   1.250  0.0000  0.0000  0.0000
11093OM     OM111093   3.827   6.363   9.567  0.0000  0.0000  0.0000
11094OM     OM111094   4.261   4.376   9.249  0.0000  0.0000  0.0000
11095OM     OM111095   0.919   7.895   1.048  0.0000  0.0000  0.0000
11096OM     OM111096   6.828   3.083   0.527  0.0000  0.0000  0.0000
11097OM     OM111097   0.956   7.894   1.298  0.0000  0.0000  0.0000
11098OM     OM111098   3.132   2.499   9.372  0.0000  0.0000  0.0000
11099OM     OM111099   8.474   4.087   0.173  0.0000  0.0000  0.0000
11100OM     OM111100   3.486   7.667   0.653  0.0000  0.0000  0.0000
11101OM     OM111101   5.434   4.901   0.767  0.0000  0.0000  0.0000
11102OM     OM111102   5.425   4.985   0.517  0.0000  0.0000  0.0000
11103OM     OM111103   7.638   3.197   0.319  0.0000  0.0000  0.0000
11104OM     OM111104   8.264   8.677   9.201  0.0000  0.0000  0.0000
11105OM     OM111105   4.576   9.300   1.099  0.0000  0.0000  0.0000
11106OM     OM111106   9.580   4.969   8.718  0.0000  0.0000  0.0000
11107OM     OM111107   7.176   3.183   8.804  0.0000  0.0000  0.0000
11108OM     OM111108   9.518   8.343   0.052  0.0000  0.0000  0.0000
11109OM     OM111109   7.803   2.535   0.460  0.0000  0.0000  0.0000
11110OM     OM111110   3.863   4.827   1.174  0.0000  0.0000  0.0000
11111OM     OM111111   6.417   2.084   9.434  0.0000  0.0000  0.0000
11112OM     OM111112   1.929   3.174   9.582  0.0000  0.0000  0.0000
11113OM     OM111113   7.691   9.367   1.121  0.0000  0.0000  0.0000
11114OM     OM111114   2.548   1.620   9.445  0.0000  0.0000  0.0000
11115OM     OM111115   5.126   7.673   0.176  0.0000  0.0000  0.0000
11116OM     OM111116   2.437   4.282   1.162  0.0000  0.0000  0.0000
11117OM     OM111117   7.677   8.766   9.475  0.0000  0.0000  0.0000
11118OM     OM111118   0.084   1.738   9.449  0.0000  0.0000  0.0000
11119OM     OM111119   8.698   2.765   0.389  0.0000  0.0000  0.0000
11120OM     OM111120   5.270   4.907   0.325  0.0000  0.0000  0.0000
11121OM     OM111121   1.997   1.000   0.905  0.0000  0.0000  0.0000
11122OM     OM111122   4.702   7.820   9.590  0.0000  0.0000  0.0000
11123OM     OM111123   1.447   1.476   9.586  0.0000  0.0000  0.0000
11124OM     OM111124   5.425   4.782   1.004  0.0000  0.0000  0.0000
11125OM     OM111125   9.201   5.888   1.098  0.0000  0.0000  0.0000
11126OM     OM111126   6.160   3.685   8.712  0.0000  0.0000  0.0000
11127OM     OM111127   3.717   8.287   9.262  0.0000  0.0000  0.0000
11128OM     OM111128   2.847   7.807   0.953  0.0000  0.0000  0.0000
11129OM     OM111129   2.048   8.908   9.445  0.0000  0.0000  0.0000
11130OM     OM111130   0.560   7.093   8.679  0.0000  0.0000  0.0000
11131OM     OM111131   0.765   5.858   8.735  0.0000  0.0000  0.0000
11132OM     OM111132   0.735   5.949   8.971  0.0000  0.0000  0.0000
11133OM     OM111133   0.869   2.851   0.354  0.0000  0.0000  0.0000
11134OM     OM111134   8.159   1.617   0.598  0.0000  0.0000  0.0000
11135OM     OM111135   5.914   0.328   9.154  0.0000  0.0000  0.0000
11136OM     OM111136   4.314   1.383   8.916  0.0000  0.0000  0.0000
11137OM     OM111137   1.222   2.321   1.369  0.0000  0.0000  0.0000
11138OM     OM111138   6.238   6.341   8.323  0.0000  0.0000  0.0000
11139OM     OM111139   7.131   3.851   1.429  0.0000  0.0000  0.0000
11140OM     OM111140   2.094   7.236   1.472  0.0000  0.0000  0.0000
11141OM     OM111141   8.455   5.255   8.123  0.0000  0.0000  0.0000
11142OM     OM111142   8.640   0.781   1.315  0.0000  0.0000  0.0000
11143OM     OM111143   7.216   2.093   1.274  0.0000  0.0000  0.0000
11144OM     OM111144   0.601   5.678   1.451  0.0000  0.0000  0.0000
11145OM     OM111145   9.258   5.439   8.322  0.0000  0.0000  0.0000
11146OM     OM111146   8.457   7.053   8.302  0.0000  0.0000  0.0000
11147OM     OM111147   6.773   9.292   8.369  0.0000  0.0000  0.0000
11148OM     OM111148   3.445   4.670   8.126  0.0000  0.0000  0.0000
11149OM     OM111149   1.102   2.215   1.481  0.0000  0.0000  0.0000
11150OM     OM111150   7.806   8.408   8.121  0.0000  0.0000  0.0000
11151OM     OM111151   9.537   4.385   1.425  0.0000  0.0000  0.0000
11152OM     OM111152   3.330   0.731   8.238  0.0000  0.0000  0.0000
11153OM     OM111153   7.074   7.341   8.203  0.0000  0.0000  0.0000
11154OM     OM111154   0.303   7.198   8.334  0.0000  0.0000  0.0000
11155OM     OM111155   2.874   4.003   8.223  0.0000  0.0000  0.0000
11156OM     OM111156   1.226   7.820   1.216  0.0000  0.0000  0.0000
11157OM     OM111157   1.652   4.070   1.415  0.0000  0.0000  0.0000
11158OM     OM111158   2.169   3.524   8.246  0.0000  0.0000  0.0000
11159OM     OM111159   1.582   4.975   1.385  0.0000  0.0000  0.0000
11160OM     OM111160   9.237   8.007   1.331  0.0000  0.0000  0.0000
11161OM     OM111161   4.204   2.517   8.212  0.0000  0.0000  0.0000
11162OM     OM111162   7.586   0.750   8.186  0.0000  0.0000  0.0000
11163OM     OM111163   6.590   1.016   1.395  0.0000  0.0000  0.0000
11164OM     OM111164   8.125   3.713   1.444  0.0000  0.0000  0.0000
11165OM     OM111165   4.061   8.881   1.389  0.0000  0.0000  0.0000
11166OM     OM111166   6.410   0.764   1.277  0.0000  0.0000  0.0000
11167OM     OM111167   0.329   8.239   1.461  0.0000  0.0000  0.0000
11168OM     OM111168   7.280   6.136   8.257  0.0000  0.0000  0.0000
11169OM     OM111169   6.453   7.406   8.266  0.0000  0.0000  0.0000
11170OM     OM111170   0.361   4.221   1.393  0.0000  0.0000  0.0000
11171OM     OM111171   7.326   0.228   1.411  0.0000  0.0000  0.0000
11172OM     OM111172   3.085   2.819   8.358  0.0000  0.0000  0.0000
11173OM     OM111173   4.243   4.658   1.378  0.0000  0.0000  0.0000
11174OM     OM111174   3.093   8.054   8.162  0.0000  0.0000  0.0000
11175OM     OM111175   4.496   8.381   8.180  0.0000  0.0000  0.0000
11176OM     OM111176   7.384   9.001   1.405  0.0000  0.0000  0.0000
11177OM     OM111177   1.627   9.232   1.394  0.0000  0.0000  0.0000
11178OM     OM111178   4.914   7.963   8.366  0.0000  0.0000  0.0000
11179OM     OM111179   4.008   3.921   8.357  0.0000  0.0000  0.0000
11180OM     OM111180   5.555   8.593   1.412  0.0000  0.0000  0.0000
11181OM     OM111181   9.305   7.177   8.288  0.0000  0.0000  0.0000
11182OM     OM111182   3.998   2.419   8.233  0.0000  0.0000  0.0000
11183OM     OM111183   3.698   5.791   1.334  0.0000  0.0000  0.0000
11184OM     OM111184   1.747   4.286   8.331  0.0000  0.0000  0.0000
11185OM     OM111185   5.686   7.709   1.441  0.0000  0.0000  0.0000
11186OM     OM111186   0.764   8.446   1.241  0.0000  0.0000  0.0000
11187OM     OM111187   8.237   2.346   1.135  0.0000  0.0000  0.0000
11188OM     OM111188   4.671   6.330   8.239  0.0000  0.0000  0.0000
11189OM     OM111189   0.926   4.922   1.445  0.0000  0.0000  0.0000
11190OM     OM111190   5.058   6.934   1.238  0.0000  0.0000  0.0000
11191OM     OM111191   4.967   3.434   1.304  0.0000  0.0000  0.0000
11192OM     OM111192   7.157   1.270   1.358  0.0000  0.0000  0.0000
11193OM     OM111193   7.383   7.850   8.223  0.0000  0.0000  0.0000
11194OM     OM111194   2.869   2.307   1.350  0.0000  0.0000  0.0000
11195OM     OM111195   4.139   4.213   8.285  0.0000  0.0000  0.0000
11196OM     OM111196   7.959   1.801   8.338  0.0000  0.0000  0.0000
11197OM     OM111197   6.788   2.649   8.176  0.0000  0.0000  0.0000
11198OM     OM111198   3.007   6.516   1.406  0.0000  0.0000  0.0000
11199OM     OM111199   1.264   5.852   8.333  0.0000  0.0000  0.0000
11200OM     OM111200   7.035   4.438   8.403  0.0000  0.0000  0.0000
11201OM     OM111201   6.946   8.624   8.245  0.0000  0.0000  0.0000
11202OM     OM111202   3.213   2.212   1.373  0.0000  0.0000  0.0000
11203OM     OM111203   6.846   8.289   1.305  0.0000  0.0000  0.0000
11204OM     OM111204   3.036   7.330   1.256  0.0000  0.0000  0.0000
11205OM     OM111205   4.034   7.368   1.380  0.0000  0.0000  0.0000
11206OM     OM111206   1.847   8.747   8.320  0.0000  0.0000  0.0000
11207OM     OM111207   6.200   6.068   1.300  0.0000  0.0000  0.0000
11208OM     OM111208   3.961   7.786   8.474  0.0000  0.0000  0.0000
11209OM     OM111209   5.529   3.214   1.354  0.0000  0.0000  0.0000
11210OM     OM111210   5.214   5.960   1.286  0.0000  0.0000  0.0000
11211OM     OM111211   1.118   3.211   8.223  0.0000  0.0000  0.0000
11212OM     OM111212   1.548   9.037   8.391  0.0000  0.0000  0.0000
11213OM     OM111213   5.366   7.101   8.357  0.0000  0.0000  0.0000
11214OM     OM111214   2.156   4.850   8.192  0.0000  0.0000  0.0000
11215OM     OM111215   5.346   0.753   8.397  0.0000  0.0000  0.0000
11216OM     OM111216   4.925   6.244   8.349  0.0000  0.0000  0.0000
11217OM     OM111217   6.924   2.865   1.416  0.0000  0.0000  0.0000
11218OM     OM111218   3.272   1.359   1.427  0.0000  0.0000  0.0000
11219OM     OM111219   4.194   8.431   8.333  0.0000  0.0000  0.0000
11220OM     OM111220   6.262   1.142   8.343  0.0000  0.0000  0.0000
11221OM     OM111221   2.948   5.827   1.371  0.0000  0.0000  0.0000
11222OM     OM111222   5.591   1.826   1.351  0.0000  0.0000  0.0000
11223OM     OM111223   0.551   1.852   8.312  0.0000  0.0000  0.0000
11224OM     OM111224   1.560   0.557   8.240  0.0000  0.0000  0.0000
11225OM     OM111225   1.893   7.909   1.306  0.0000  0.0000  0.0000
11226OM     OM111226   9.374   0.053   8.232  0.0000  0.0000  0.0000
11227OM     OM111227   8.457   1.543   8.203  0.0000  0.0000  0.0000
11228OM     OM111228   4.533   7.412   1.381  0.0000  0.0000  0.0000
11229OM     OM111229   1.910   2.973   8.158  0.0000  0.0000  0.0000
11230OM     OM111230   3.035   4.971   1.343  0.0000  0.0000  0.0000
11231OM     OM111231   0.278   8.171   8.281  0.0000  0.0000  0.0000
11232OM     OM111232   0.498   8.496   8.261  0.0000  0.0000  0.0000
11233OM     OM111233   9.309   4.695   1.385  0.0000  0.0000  0.0000
11234OM     OM111234   0.206   5.090   8.241  0.0000  0.0000  0.0000
11235OM     OM111235   9.014   5.294   1.284  0.0000  0.0000  0.0000
11236OM     OM111236   0.951   6.379   8.346  0.0000  0.0000  0.0000
11237OM     OM111237   1.462   2.132   8.191  0.0000  0.0000  0.0000
11238OM     OM111238   8.299   4.171   1.304  0.0000  0.0000  0.0000
11239OM     OM111239   7.953   1.846   8.140  0.0000  0.0000  0.0000
11240OM     OM111240   5.517   2.774   1.379  0.0000  0.0000  0.0000
11241OM     OM111241   9.210   7.730   8.405  0.0000  0.0000  0.0000
11242OM     OM111242   1.717   5.593   8.173  0.0000  0.0000  0.0000
11243OM     OM111243   5.566   6.075   8.319  0.0000  0.0000  0.0000
11244OM     OM111244   7.253   5.621   8.343  0.0000  0.0000  0.0000
11245OM     OM111245   1.614   7.140   1.313  0.0000  0.0000  0.0000
11246OM     OM111246   5.445   5.187   8.229  0.0000  0.0000  0.0000
11247OM     OM111247   0.523   2.172   8.283  0.0000  0.0000  0.0000
11248OM     OM111248   8.764   3.437   1.425  0.0000  0.0000  0.0000
11249OM     OM111249   7.882   9.527   8.385  0.0000  0.0000  0.0000
11250OM     OM111250   9.378   7.568   1.381  0.0000  0.0000  0.0000
11251OM     OM111251   5.707   0.601   1.387  0.0000  0.0000  0.0000
11252SI     SI111252   3.828   2.951   0.428  0.0000  0.0000  0.0000
11253SI     SI111253   6.126   5.549   8.914  0.0000  0.0000  0.0000
11254SI     SI111254   4.913   3.675   1.184  0.0000  0.0000  0.0000
11255SI     SI111255   8.881   4.095   9.347  0.0000  0.0000  0.0000
11256SI     SI111256   5.800   6.900   1.166  0.0000  0.0000  0.0000
11257SI     SI111257   1.683   0.810   0.736  0.0000  0.0000  0.0000
11258SI     SI111258   8.774   6.195   0.282  0.0000  0.0000  0.0000
11259SI     SI111259   3.389   6.775   9.440  0.0000  0.0000  0.0000
11260SI     SI111260   1.312   3.075   9.568  0.0000  0.0000  0.0000
11261SI     SI111261   7.965   1.045   8.432  0.0000  0.0000  0.0000
11262SI     SI111262   1.439   8.128   9.127  0.0000  0.0000  0.0000
11263SI     SI111263   6.947   6.527   8.744  0.0000  0.0000  0.0000
11264SI     SI111264   3.847   1.109   0.140  0.0000  0.0000  0.0000
11265SI     SI111265   1.783   1.466   8.425  0.0000  0.0000  0.0000
11266SI     SI111266   1.368   3.200   8.353  0.0000  0.0000  0.0000
11267SI     SI111267   4.137   4.574   0.148  0.0000  0.0000  0.0000
11268SI     SI111268   4.816   9.585   1.158  0.0000  0.0000  0.0000
11269SI     SI111269   3.645   4.078   8.705  0.0000  0.0000  0.0000
11270SI     SI111270   2.910   0.952   0.758  0.0000  0.0000  0.0000
11271SI     SI111271   5.951   1.925   0.442  0.0000  0.0000  0.0000
11272SI     SI111272   0.323   1.479   9.200  0.0000  0.0000  0.0000
11273SI     SI111273   5.765   1.368   9.444  0.0000  0.0000  0.0000
11274SI     SI111274   0.418   3.122   0.269  0.0000  0.0000  0.0000
11275SI     SI111275   0.550   2.146   0.498  0.0000  0.0000  0.0000
11276SI     SI111276   7.549   5.127   0.360  0.0000  0.0000  0.0000
11277SI     SI111277   9.428   0.142   9.284  0.0000  0.0000  0.0000
11278SI     SI111278   4.001   2.392   9.518  0.0000  0.0000  0.0000
11279SI     SI111279   5.426   5.127   9.080  0.0000  0.0000  0.0000
11280SI     SI111280   6.024   8.697   9.095  0.0000  0.0000  0.0000
11281SI     SI111281   5.714   5.045   9.145  0.0000  0.0000  0.0000
11282SI     SI111282   1.435   5.140   1.254  0.0000  0.0000  0.0000
11283SI     SI111283   0.595   3.836   8.655  0.0000  0.0000  0.0000
11284SI     SI111284   6.213   2.270   8.448  0.0000  0.0000  0.0000
11285SI     SI111285   2.325   3.493   0.259  0.0000  0.0000  0.0000
11286SI     SI111286   7.683   1.521   0.272  0.0000  0.0000  0.0000
11287SI     SI111287   9.031   4.333   9.487  0.0000  0.0000  0.0000
11288SI     SI111288   5.092   2.824   8.826  0.0000  0.0000  0.0000
11289SI     SI111289   8.172   7.506   0.708  0.0000  0.0000  0.0000
11290SI     SI111290   1.677   1.228   8.587  0.0000  0.0000  0.0000
11291SI     SI111291   0.859   1.819   0.692  0.0000  0.0000  0.0000
11292SI     SI111292   5.849   0.144   0.944  0.0000  0.0000  0.0000
11293SI     SI111293   5.432   6.300   0.975  0.0000  0.0000  0.0000
11294SI     SI111294   5.539   3.315   0.486  0.0000  0.0000  0.0000
11295SI     SI111295   7.278   6.570   0.208  0.0000  0.0000  0.0000
11296SI     SI111296   8.774   0.787   0.574  0.0000  0.0000  0.0000
11297SI     SI111297   7.206   3.448   9.133  0.0000  0.0000  0.0000
11298SI     SI111298   3.381   3.708   0.816  0.0000  0.0000  0.0000
11299SI     SI111299   2.416   2.616   1.046  0.0000  0.0000  0.0000
11300SI     SI111300   3.393   7.945   0.368  0.0000  0.0000  0.0000
11301SI     SI111301   7.418   5.035   9.481  0.0000  0.0000  0.0000
11302SI     SI111302   8.015   1.468   8.654  0.0000  0.0000  0.0000
11303SI     SI111303   6.294   3.373   0.021  0.0000  0.0000  0.0000
11304SI     SI111304   7.023   0.525   0.795  0.0000  0.0000  0.0000
11305SI     SI111305   6.151   0.620   0.522  0.0000  0.0000  0.0000
11306SI     SI111306   8.664   5.957   9.108  0.0000  0.0000  0.0000
11307SI     SI111307   8.169   5.177   0.867  0.0000  0.0000  0.0000
11308SI     SI111308   6.333   1.534   8.997  0.0000  0.0000  0.0000
11309SI     SI111309   9.174   6.861   8.389  0.0000  0.0000  0.0000
11310SI     SI111310   7.989   2.595   9.269  0.0000  0.0000  0.0000
11311SI     SI111311   9.236   6.066   9.228  0.0000  0.0000  0.0000
11312SI     SI111312   5.358   3.641   0.783  0.0000  0.0000  0.0000
11313SI     SI111313   7.655   1.210   9.094  0.0000  0.0000  0.0000
11314SI     SI111314   6.913   6.111   0.542  0.0000  0.0000  0.0000
11315SI     SI111315   8.816   7.576   9.324  0.0000  0.0000  0.0000
11316SI     SI111316   3.097   1.541   0.034  0.0000  0.0000  0.0000
11317SI     SI111317   1.560   4.297   0.195  0.0000  0.0000  0.0000
11318SI     SI111318   2.265   4.043   0.278  0.0000  0.0000  0.0000
11319SI     SI111319   3.267   1.786   1.182  0.0000  0.0000  0.0000
11320SI     SI111320   5.598   0.120   9.315  0.0000  0.0000  0.0000
11321SI     SI111321   9.430   6.976   8.282  0.0000  0.0000  0.0000
11322SI     SI111322   1.064   1.322   0.801  0.0000  0.0000  0.0000
11323SI     SI111323   6.900   6.230   0.253  0.0000  0.0000  0.0000
11324SI     SI111324   5.979   5.508   0.011  0.0000  0.0000  0.0000
11325SI     SI111325   4.147   7.303   8.955  0.0000  0.0000  0.0000
11326SI     SI111326   4.153   8.892   0.154  0.0000  0.0000  0.0000
11327SI     SI111327   0.160   4.706   8.996  0.0000  0.0000  0.0000
11328SI     SI111328   8.885   2.737   9.297  0.0000  0.0000  0.0000
11329SI     SI111329   0.060   7.192   8.999  0.0000  0.0000  0.0000
11330SI     SI111330   7.349   3.281   0.630  0.0000  0.0000  0.0000
11331SI     SI111331   9.254   0.613   1.163  0.0000  0.0000  0.0000
11332SI     SI111332   4.294   5.097   0.177  0.0000  0.0000  0.0000
11333SI     SI111333   8.328   8.586   0.796  0.0000  0.0000  0.0000
11334SI     SI111334   9.189   7.411   8.440  0.0000  0.0000  0.0000
11335SI     SI111335   4.305   8.788   8.640  0.0000  0.0000  0.0000
11336SI     SI111336   1.373   6.424   0.173  0.0000  0.0000  0.0000
11337SI     SI111337   9.108   2.967   1.007  0.0000  0.0000  0.0000
11338SI     SI111338   8.123   7.835   0.020  0.0000  0.0000  0.0000
11339SI     SI111339   0.496   9.437   9.288  0.0000  0.0000  0.0000
11340SI     SI111340   3.973   8.756   9.057  0.0000  0.0000  0.0000
11341SI     SI111341   8.769   0.995   0.160  0.0000  0.0000  0.0000
11342SI     SI111342   9.575   4.168   0.207  0.0000  0.0000  0.0000
11343SI     SI111343   6.275   9.203   0.069  0.0000  0.0000  0.0000
11344SI     SI111344   6.740   4.354   8.563  0.0000  0.0000  0.0000
11345SI     SI111345   5.076   9.187   0.207  0.0000  0.0000  0.0000
11346SI     SI111346   9.011   6.203   9.409  0.0000  0.0000  0.0000
11347SI     SI111347   1.891   0.153   9.359  0.0000  0.0000  0.0000
11348SI     SI111348   5.078   4.162   9.081  0.0000  0.0000  0.0000
11349SI     SI111349   8.690   7.669   8.889  0.0000  0.0000  0.0000
11350SI     SI111350   1.634   6.691   8.389  0.0000  0.0000  0.0000
11351SI     SI111351   9.182   1.920   9.441  0.0000  0.0000  0.0000
11352SI     SI111352   7.104   5.368   0.346  0.0000  0.0000  0.0000
11353SI     SI111353   2.133   8.193   0.961  0.0000  0.0000  0.0000
11354SI     SI111354   4.714   3.228   9.161  0.0000  0.0000  0.0000
11355SI     SI111355   5.777   6.064   0.341  0.0000  0.0000  0.0000
11356SI     SI111356   8.884   6.759   8.620  0.0000  0.0000  0.0000
11357SI     SI111357   0.671   3.379   9.537  0.0000  0.0000  0.0000
11358SI     SI111358   7.763   1.347   1.166  0.0000  0.0000  0.0000
11359SI     SI111359   1.920   5.263   0.177  0.0000  0.0000  0.0000
11360SI     SI111360   5.160   7.635   9.168  0.0000  0.0000  0.0000
11361SI     SI111361   6.701   3.816   8.465  0.0000  0.0000  0.0000
11362SI     SI111362   0.282   0.872   8.950  0.0000  0.0000  0.0000
11363SI     SI111363   3.599   9.451   9.091  0.0000  0.0000  0.0000
11364SI     SI111364   6.351   5.548   9.248  0.0000  0.0000  0.0000
11365SI     SI111365   9.416   2.982   0.210  0.0000  0.0000  0.0000
11366SI     SI111366   0.733   6.770   8.387  0.0000  0.0000  0.0000
11367SI     SI111367   3.012   5.153   1.161  0.0000  0.0000  0.0000
11368SI     SI111368   6.318   7.646   1.169  0.0000  0.0000  0.0000
11369SI     SI111369   7.565   8.398   0.537  0.0000  0.0000  0.0000
11370SI     SI111370   1.076   4.116   9.284  0.0000  0.0000  0.0000
11371SI     SI111371   3.877   9.602   9.053  0.0000  0.0000  0.0000
11372SI     SI111372   3.566   6.475   1.086  0.0000  0.0000  0.0000
11373SI     SI111373   1.434   8.718   8.929  0.0000  0.0000  0.0000
11374SI     SI111374   5.960   3.533   0.226  0.0000  0.0000  0.0000
11375SI     SI111375   8.756   6.238   9.222  0.0000  0.0000  0.0000
11376SI     SI111376   7.875   4.071   0.664  0.0000  0.0000  0.0000
11377SI     SI111377   5.010   6.294   9.471  0.0000  0.0000  0.0000
11378SI     SI111378   2.773   2.364   8.855  0.0000  0.0000  0.0000
11379SI     SI111379   6.339   6.912   8.556  0.0000  0.0000  0.0000
11380SI     SI111380   9.237   8.035   0.552  0.0000  0.0000  0.0000
11381SI     SI111381   7.290   3.945   0.263  0.0000  0.0000  0.0000
11382SI     SI111382   0.237   7.373   8.838  0.0000  0.0000  0.0000
11383SI     SI111383   8.132   5.794   9.090  0.0000  0.0000  0.0000
11384SI     SI111384   1.559   9.384   0.033  0.0000  0.0000  0.0000
11385SI     SI111385   2.394   5.711   9.194  0.0000  0.0000  0.0000
11386SI     SI111386   9.081   4.999   1.140  0.0000  0.0000  0.0000
11387SI     SI111387   7.670   0.118   9.154  0.0000  0.0000  0.0000
11388SI     SI111388   7.959   0.145   9.062  0.0000  0.0000  0.0000
11389SI     SI111389   6.040   3.252   0.852  0.0000  0.0000  0.0000
11390SI     SI111390   1.649   2.444   9.470  0.0000  0.0000  0.0000
11391SI     SI111391   0.037   6.930   0.268  0.0000  0.0000  0.0000
11392SI     SI111392   4.640   9.085   8.840  0.0000  0.0000  0.0000
11393SI     SI111393   8.514   7.645   9.386  0.0000  0.0000  0.0000
11394SI     SI111394   4.847   0.141   9.160  0.0000  0.0000  0.0000
11395SI     SI111395   8.853   6.594   0.121  0.0000  0.0000  0.0000
11396SI     SI111396   0.450   0.583   0.086  0.0000  0.0000  0.0000
11397SI     SI111397   8.888   1.942   9.342  0.0000  0.0000  0.0000
11398SI     SI111398   7.670   7.691   0.326  0.0000  0.0000  0.0000
11399SI     SI111399   9.593   0.811   8.469  0.0000  0.0000  0.0000
11400SI     SI111400   8.430   7.761   0.066  0.0000  0.0000  0.0000
11401SI     SI111401   8.368   1.595   0.088  0.0000  0.0000  0.0000
11402SI     SI111402   0.203   8.807   0.630  0.0000  0.0000  0.0000
11403SI     SI111403   0.077   1.377   0.333  0.0000  0.0000  0.0000
11404SI     SI111404   5.562   4.146   9.046  0.0000  0.0000  0.0000
11405SI     SI111405   0.581   4.136   1.391  0.0000  0.0000  0.0000
11406SI     SI111406   3.392   3.589   9.560  0.0000  0.0000  0.0000
11407SI     SI111407   9.027   5.541   9.075  0.0000  0.0000  0.0000
11408SI     SI111408   7.438   2.120   8.675  0.0000  0.0000  0.0000
11409SI     SI111409   8.537   0.872   0.001  0.0000  0.0000  0.0000
11410SI     SI111410   0.493   4.276   8.651  0.0000  0.0000  0.0000
11411SI     SI111411   2.687   6.934   8.750  0.0000  0.0000  0.0000
11412SI     SI111412   6.002   0.309   0.730  0.0000  0.0000  0.0000
11413SI     SI111413   3.390   4.445   0.242  0.0000  0.0000  0.0000
11414SI     SI111414   8.134   9.018   1.041  0.0000  0.0000  0.0000
11415SI     SI111415   9.065   3.328   0.352  0.0000  0.0000  0.0000
11416SI     SI111416   3.711   0.650   0.986  0.0000  0.0000  0.0000
11417SI     SI111417   3.613   0.602   8.360  0.0000  0.0000  0.0000
11418SI     SI111418   3.410   6.850   0.785  0.0000  0.0000  0.0000
11419SI     SI111419   2.633   3.529   8.768  0.0000  0.0000  0.0000
11420SI     SI111420   2.073   5.893   9.035  0.0000  0.0000  0.0000
11421SI     SI111421   4.198   3.632   9.578  0.0000  0.0000  0.0000
11422SI     SI111422   9.379   9.003   8.493  0.0000  0.0000  0.0000
11423SI     SI111423   5.221   0.937   0.585  0.0000  0.0000  0.0000
11424SI     SI111424   3.419   9.271   0.705  0.0000  0.0000  0.0000
11425SI     SI111425   7.015   8.132   9.437  0.0000  0.0000  0.0000
11426SI     SI111426   8.900   5.262   9.026  0.0000  0.0000  0.0000
11427SI     SI111427   3.426   5.343   9.390  0.0000  0.0000  0.0000
11428SI     SI111428   1.574   7.819   9.532  0.0000  0.0000  0.0000
11429SI     SI111429   0.068   4.447   8.827  0.0000  0.0000  0.0000
11430SI     SI111430   1.091   3.091   8.427  0.0000  0.0000  0.0000
11431SI     SI111431   4.433   4.903   9.577  0.0000  0.0000  0.0000
11432SI     SI111432   1.770   1.189   1.095  0.0000  0.0000  0.0000
11433SI     SI111433   8.351   8.281   9.529  0.0000  0.0000  0.0000
11434SI     SI111434   9.377   4.980   1.049  0.0000  0.0000  0.0000
11435SI     SI111435   4.282   2.824   0.744  0.0000  0.0000  0.0000
11436SI     SI111436   1.142   3.466   0.036  0.0000  0.0000  0.0000
11437SI     SI111437   6.666   0.812   0.095  0.0000  0.0000  0.0000
11438SI     SI111438   8.403   4.146   1.105  0.0000  0.0000  0.0000
11439SI     SI111439   4.487   0.757   0.476  0.0000  0.0000  0.0000
11440SI     SI111440   8.941   1.027   9.496  0.0000  0.0000  0.0000
11441SI     SI111441   9.317   1.869   0.920  0.0000  0.0000  0.0000
11442SI     SI111442   7.055   1.809   9.597  0.0000  0.0000  0.0000
11443SI     SI111443   1.039   8.316   8.903  0.0000  0.0000  0.0000
11444SI     SI111444   6.406   0.665   0.162  0.0000  0.0000  0.0000
11445SI     SI111445   1.767   0.303   9.116  0.0000  0.0000  0.0000
11446SI     SI111446   3.495   3.824   0.121  0.0000  0.0000  0.0000
11447SI     SI111447   7.338   4.527   8.570  0.0000  0.0000  0.0000
11448SI     SI111448   7.001   9.047   0.888  0.0000  0.0000  0.0000
11449SI     SI111449   6.005   6.709   9.564  0.0000  0.0000  0.0000
11450SI     SI111450   1.155   3.113   1.173  0.0000  0.0000  0.0000
11451SI     SI111451   0.054   8.600   1.081  0.0000  0.0000  0.0000
11452SI     SI111452   7.283   9.399   0.724  0.0000  0.0000  0.0000
11453SI     SI111453   4.700   8.587   0.262  0.0000  0.0000  0.0000
11454SI     SI111454   2.313   0.819   0.257  0.0000  0.0000  0.0000
11455SI     SI111455   2.153   8.863   8.846  0.0000  0.0000  0.0000
11456SI     SI111456   6.049   2.671   0.083  0.0000  0.0000  0.0000
11457SI     SI111457   5.438   5.596   8.761  0.0000  0.0000  0.0000
11458SI     SI111458   2.510   8.125   9.124  0.0000  0.0000  0.0000
11459SI     SI111459   0.423   8.913   8.887  0.0000  0.0000  0.0000
11460SI     SI111460   0.634   7.891   8.751  0.0000  0.0000  0.0000
11461SI     SI111461   6.608   6.744   0.518  0.0000  0.0000  0.0000
11462SI     SI111462   7.435   3.505   8.725  0.0000  0.0000  0.0000
11463SI     SI111463   4.894   7.804   9.225  0.0000  0.0000  0.0000
11464SI     SI111464   2.737   0.103   9.221  0.0000  0.0000  0.0000
11465SI     SI111465   2.402   5.907   0.585  0.0000  0.0000  0.0000
11466SI     SI111466   6.197   1.602   0.125  0.0000  0.0000  0.0000
11467SI     SI111467   2.153   7.862   8.971  0.0000  0.0000  0.0000
11468SI     SI111468   3.325   1.277   1.168  0.0000  0.0000  0.0000
11469SI     SI111469   6.236   6.207   8.612  0.0000  0.0000  0.0000
11470SI     SI111470   0.134   6.288   0.563  0.0000  0.0000  0.0000
11471SI     SI111471   5.036   6.763   8.786  0.0000  0.0000  0.0000
11472SI     SI111472   7.967   3.601   8.671  0.0000  0.0000  0.0000
11473SI     SI111473   7.398   5.857   9.142  0.0000  0.0000  0.0000
11474SI     SI111474   2.262   5.681   0.405  0.0000  0.0000  0.0000
11475SI     SI111475   7.441   8.881   0.661  0.0000  0.0000  0.0000
11476SI     SI111476   9.030   7.138   9.268  0.0000  0.0000  0.0000
11477SI     SI111477   1.704   2.762   0.967  0.0000  0.0000  0.0000
11478SI     SI111478   2.340   7.634   0.138  0.0000  0.0000  0.0000
11479SI     SI111479   1.185   2.996   0.915  0.0000  0.0000  0.0000
11480SI     SI111480   8.696   5.259   8.635  0.0000  0.0000  0.0000
11481SI     SI111481   4.111   7.111   8.733  0.0000  0.0000  0.0000
11482SI     SI111482   3.790   7.574   9.068  0.0000  0.0000  0.0000
11483SI     SI111483   7.301   6.309   9.436  0.0000  0.0000  0.0000
11484SI     SI111484   5.285   8.529   0.288  0.0000  0.0000  0.0000
11485SI     SI111485   3.339   1.901   0.371  0.0000  0.0000  0.0000
11486SI     SI111486   1.889   5.974   0.532  0.0000  0.0000  0.0000
11487SI     SI111487   1.129   4.402   0.970  0.0000  0.0000  0.0000
11488SI     SI111488   8.024   3.505   8.374  0.0000  0.0000  0.0000
11489SI     SI111489   5.997   8.863   0.240  0.0000  0.0000  0.0000
11490SI     SI111490   0.732   8.824   8.885  0.0000  0.0000  0.0000
11491SI     SI111491   4.714   6.471   0.815  0.0000  0.0000  0.0000
11492SI     SI111492   0.330   8.573   1.210  0.0000  0.0000  0.0000
11493SI     SI111493   0.544   8.457   1.374  0.0000  0.0000  0.0000
11494SI     SI111494   3.355   4.078   9.394  0.0000  0.0000  0.0000
11495SI     SI111495   4.116   9.068   9.292  0.0000  0.0000  0.0000
11496SI     SI111496   0.535   6.840   9.354  0.0000  0.0000  0.0000
11497SI     SI111497   6.861   1.990   0.664  0.0000  0.0000  0.0000
11498SI     SI111498   6.887   8.828   0.689  0.0000  0.0000  0.0000
11499SI     SI111499   4.935   7.780   8.680  0.0000  0.0000  0.0000
11500SI     SI111500   9.110   6.643   0.830  0.0000  0.0000  0.0000
11501SI     SI111501   9.008   7.821   0.592  0.0000  0.0000  0.0000
11502SI     SI111502   4.443   6.016   1.088  0.0000  0.0000  0.0000
11503SI     SI111503   5.535   7.410   0.896  0.0000  0.0000  0.0000
11504SI     SI111504   1.913   7.063   8.579  0.0000  0.0000  0.0000
11505SI     SI111505   0.924   7.225   9.112  0.0000  0.0000  0.0000
11506SI     SI111506   0.864   5.158   0.006  0.0000  0.0000  0.0000
11507SI     SI111507   8.144   9.601   9.248  0.0000  0.0000  0.0000
11508SI     SI111508   8.381   0.380   8.970  0.0000  0.0000  0.0000
11509SI     SI111509   3.485   8.524   9.468  0.0000  0.0000  0.0000
11510SI     SI111510   0.728   3.187   0.320  0.0000  0.0000  0.0000
11511SI     SI111511   4.483   7.581   8.933  0.0000  0.0000  0.0000
11512SI     SI111512   8.832   9.581   0.525  0.0000  0.0000  0.0000
11513SI     SI111513   0.259   1.021   1.216  0.0000  0.0000  0.0000
11514SI     SI111514   8.527   0.218   8.527  0.0000  0.0000  0.0000
11515SI     SI111515   3.661   1.897   0.377  0.0000  0.0000  0.0000
11516SI     SI111516   8.929   5.111   8.771  0.0000  0.0000  0.0000
11517SI     SI111517   4.825   6.474   0.046  0.0000  0.0000  0.0000
11518SI     SI111518   2.929   3.417   9.478  0.0000  0.0000  0.0000
11519SI     SI111519   7.395   0.607   9.535  0.0000  0.0000  0.0000
11520SI     SI111520   7.625   4.718   0.107  0.0000  0.0000  0.0000
11521SI     SI111521   4.006   5.669   8.559  0.0000  0.0000  0.0000
11522SI     SI111522   2.456   3.372   0.009  0.0000  0.0000  0.0000
11523SI     SI111523   5.175   5.074   0.933  0.0000  0.0000  0.0000
11524SI     SI111524   6.069   6.439   8.740  0.0000  0.0000  0.0000
11525SI     SI111525   6.990   8.675   9.178  0.0000  0.0000  0.0000
11526SI     SI111526   5.791   4.608   0.136  0.0000  0.0000  0.0000
11527SI     SI111527   0.815   0.403   1.112  0.0000  0.0000  0.0000
11528SI     SI111528   0.673   5.072   9.106  0.0000  0.0000  0.0000
11529SI     SI111529   0.829   4.069   9.477  0.0000  0.0000  0.0000
11530SI     SI111530   2.001   7.040   0.295  0.0000  0.0000  0.0000
11531SI     SI111531   8.956   8.451   0.686  0.0000  0.0000  0.0000
11532SI     SI111532   8.429   6.860   9.476  0.0000  0.0000  0.0000
11533SI     SI111533   2.627   0.262   8.816  0.0000  0.0000  0.0000
11534SI     SI111534   7.704   4.998   9.580  0.0000  0.0000  0.0000
11535SI     SI111535   0.691   9.222   0.575  0.0000  0.0000  0.0000
11536SI     SI111536   7.563   5.842   8.883  0.0000  0.0000  0.0000
11537SI     SI111537   1.275   1.132   0.936  0.0000  0.0000  0.0000
11538SI     SI111538   8.893   7.872   9.246  0.0000  0.0000  0.0000
11539SI     SI111539   7.897   2.120   0.949  0.0000  0.0000  0.0000
11540SI     SI111540   5.458   5.876   8.648  0.0000  0.0000  0.0000
11541SI     SI111541   4.548   6.559   0.369  0.0000  0.0000  0.0000
11542SI     SI111542   0.475   1.688   8.537  0.0000  0.0000  0.0000
11543SI     SI111543   4.810   2.672   0.141  0.0000  0.0000  0.0000
11544SI     SI111544   7.213   1.937   8.576  0.0000  0.0000  0.0000
11545SI     SI111545   8.160   7.814   9.317  0.0000  0.0000  0.0000
11546SI     SI111546   2.180   4.401   9.097  0.0000  0.0000  0.0000
11547SI     SI111547   3.461   0.512   9.336  0.0000  0.0000  0.0000
11548SI     SI111548   8.318   9.240   0.393  0.0000  0.0000  0.0000
11549SI     SI111549   1.314   6.748   1.196  0.0000  0.0000  0.0000
11550SI     SI111550   4.873   3.030   8.748  0.0000  0.0000  0.0000
11551SI     SI111551   6.562   4.658   0.948  0.0000  0.0000  0.0000
11552SI     SI111552   5.427   0.109   0.615  0.0000  0.0000  0.0000
11553SI     SI111553   6.158   7.196   9.458  0.0000  0.0000  0.0000
11554SI     SI111554   3.034   0.535   0.075  0.0000  0.0000  0.0000
11555SI     SI111555   1.176   7.534   0.058  0.0000  0.0000  0.0000
11556SI     SI111556   4.626   6.886   8.607  0.0000  0.0000  0.0000
11557SI     SI111557   4.631   4.207   8.691  0.0000  0.0000  0.0000
11558SI     SI111558   0.343   1.288   0.176  0.0000  0.0000  0.0000
11559SI     SI111559   1.517   3.040   8.884  0.0000  0.0000  0.0000
11560SI     SI111560   0.713   8.730   0.526  0.0000  0.0000  0.0000
11561SI     SI111561   3.370   3.990   9.108  0.0000  0.0000  0.0000
11562SI     SI111562   4.525   6.353   0.610  0.0000  0.0000  0.0000
11563SI     SI111563   9.278   9.561   0.638  0.0000  0.0000  0.0000
11564SI     SI111564   4.305   6.798   0.697  0.0000  0.0000  0.0000
11565SI     SI111565   5.779   0.250   0.266  0.0000  0.0000  0.0000
11566SI     SI111566   9.436   1.955   8.493  0.0000  0.0000  0.0000
11567SI     SI111567   6.222   4.722   0.602  0.0000  0.0000  0.0000
11568SI     SI111568   3.786   2.962   8.578  0.0000  0.0000  0.0000
11569SI     SI111569   5.726   9.514   9.478  0.0000  0.0000  0.0000
11570SI     SI111570   7.979   8.702   0.428  0.0000  0.0000  0.0000
11571SI     SI111571   0.504   4.277   0.699  0.0000  0.0000  0.0000
11572SI     SI111572   6.993   2.835   0.235  0.0000  0.0000  0.0000
11573SI     SI111573   1.955   4.823   8.835  0.0000  0.0000  0.0000
11574SI     SI111574   1.789   7.593   9.059  0.0000  0.0000  0.0000
11575SI     SI111575   5.613   2.498   0.613  0.0000  0.0000  0.0000
11576SI     SI111576   4.491   3.775   8.426  0.0000  0.0000  0.0000
11577SI     SI111577   3.993   3.188   0.557  0.0000  0.0000  0.0000
11578SI     SI111578   6.326   8.884   9.328  0.0000  0.0000  0.0000
11579SI     SI111579   1.735   1.949   8.801  0.0000  0.0000  0.0000
11580SI     SI111580   2.735   6.715   0.743  0.0000  0.0000  0.0000
11581SI     SI111581   4.594   6.491   8.929  0.0000  0.0000  0.0000
11582SI     SI111582   3.723   3.362   8.994  0.0000  0.0000  0.0000
11583SI     SI111583   2.654   8.480   8.982  0.0000  0.0000  0.0000
11584SI     SI111584   3.067   6.311   9.349  0.0000  0.0000  0.0000
11585SI     SI111585   7.783   2.388   0.830  0.0000  0.0000  0.0000
11586SI     SI111586   7.326   2.692   9.092  0.0000  0.0000  0.0000
11587SI     SI111587   5.764   8.321   8.877  0.0000  0.0000  0.0000
11588SI     SI111588   4.023   0.426   9.329  0.0000  0.0000  0.0000
11589SI     SI111589   2.484   7.837   9.560  0.0000  0.0000  0.0000
11590SI     SI111590   0.020   5.090   9.298  0.0000  0.0000  0.0000
11591SI     SI111591   9.494   8.975   0.216  0.0000  0.0000  0.0000
11592SI     SI111592   3.158   3.438   0.333  0.0000  0.0000  0.0000
11593SI     SI111593   3.495   2.561   9.338  0.0000  0.0000  0.0000
11594SI     SI111594   5.218   4.899   9.093  0.0000  0.0000  0.0000
11595SI     SI111595   4.150   2.751   8.339  0.0000  0.0000  0.0000
11596SI     SI111596   8.013   9.223   0.496  0.0000  0.0000  0.0000
11597SI     SI111597   8.358   2.700   0.767  0.0000  0.0000  0.0000
11598SI     SI111598   6.448   0.038   9.507  0.0000  0.0000  0.0000
11599SI     SI111599   9.169   9.058   0.624  0.0000  0.0000  0.0000
11600SI     SI111600   7.634   3.133   0.987  0.0000  0.0000  0.0000
11601SI     SI111601   4.347   6.743   9.518  0.0000  0.0000  0.0000
11602SI     SI111602   2.648   3.763   0.515  0.0000  0.0000  0.0000
11603SI     SI111603   5.308   8.209   0.673  0.0000  0.0000  0.0000
11604SI     SI111604   5.696   1.851   8.522  0.0000  0.0000  0.0000
11605SI     SI111605   8.559   3.375   0.274  0.0000  0.0000  0.0000
11606SI     SI111606   7.098   8.164   0.595  0.0000  0.0000  0.0000
11607SI     SI111607   5.088   7.307   0.602  0.0000  0.0000  0.0000
11608SI     SI111608   0.173   0.856   0.722  0.0000  0.0000  0.0000
11609SI     SI111609   4.391   8.270   0.736  0.0000  0.0000  0.0000
11610SI     SI111610   7.080   5.197   0.742  0.0000  0.0000  0.0000
11611SI     SI111611   2.903   3.842   9.132  0.0000  0.0000  0.0000
11612SI     SI111612   8.894   6.296   1.081  0.0000  0.0000  0.0000
11613SI     SI111613   7.462   1.566   9.042  0.0000  0.0000  0.0000
11614SI     SI111614   0.029   8.366   9.031  0.0000  0.0000  0.0000
11615SI     SI111615   3.389   3.686   9.037  0.0000  0.0000  0.0000
11616SI     SI111616   4.128   5.370   9.344  0.0000  0.0000  0.0000
11617SI     SI111617   2.307   0.289   0.172  0.0000  0.0000  0.0000
11618SI     SI111618   4.731   2.219   9.517  0.0000  0.0000  0.0000
11619SI     SI111619   0.708   0.243   0.391  0.0000  0.0000  0.0000
11620SI     SI111620   8.117   4.177   9.599  0.0000  0.0000  0.0000
11621SI     SI111621   7.892   7.982   0.990  0.0000  0.0000  0.0000
11622SI     SI111622   5.330   2.217   9.003  0.0000  0.0000  0.0000
11623SI     SI111623   5.058   1.407   0.638  0.0000  0.0000  0.0000
11624SI     SI111624   8.552   0.096   0.546  0.0000  0.0000  0.0000
11625SI     SI111625   6.457   5.542   0.641  0.0000  0.0000  0.0000
11626SI     SI111626   2.717   2.686   1.005  0.0000  0.0000  0.0000
11627SI     SI111627   0.792   6.984   9.441  0.0000  0.0000  0.0000
11628SI     SI111628   5.181   5.929   0.524  0.0000  0.0000  0.0000
11629SI     SI111629   6.334   5.761   8.805  0.0000  0.0000  0.0000
11630SI     SI111630   6.182   3.341   0.308  0.0000  0.0000  0.0000
11631SI     SI111631   0.194   6.243   0.250  0.0000  0.0000  0.0000
11632SI     SI111632   0.037   0.314   9.162  0.0000  0.0000  0.0000
11633SI     SI111633   2.550   6.738   9.582  0.0000  0.0000  0.0000
11634SI     SI111634   8.875   0.536   8.910  0.0000  0.0000  0.0000
11635SI     SI111635   9.023   8.513   0.399  0.0000  0.0000  0.0000
11636SI     SI111636   0.077   6.930   8.819  0.0000  0.0000  0.0000
11637SI     SI111637   8.918   1.699   0.230  0.0000  0.0000  0.0000
11638SI     SI111638   4.648   5.447   9.208  0.0000  0.0000  0.0000
11639SI     SI111639   1.477   2.017   0.388  0.0000  0.0000  0.0000
11640SI     SI111640   7.363   7.666   0.802  0.0000  0.0000  0.0000
11641SI     SI111641   3.485   4.189   8.477  0.0000  0.0000  0.0000
11642SI     SI111642   4.344   7.278   8.739  0.0000  0.0000  0.0000
11643SI     SI111643   6.910   7.180   8.342  0.0000  0.0000  0.0000
11644SI     SI111644   1.061   3.832   0.727  0.0000  0.0000  0.0000
11645SI     SI111645   4.346   5.668   0.818  0.0000  0.0000  0.0000
11646SI     SI111646   0.418   5.499   9.220  0.0000  0.0000  0.0000
11647SI     SI111647   5.115   3.863   9.541  0.0000  0.0000  0.0000
11648SI     SI111648   8.693   1.701   9.411  0.0000  0.0000  0.0000
11649SI     SI111649   3.131   2.355   0.179  0.0000  0.0000  0.0000
11650SI     SI111650   7.436   1.451   0.096  0.0000  0.0000  0.0000
11651SI     SI111651   7.563   7.172   8.304  0.0000  0.0000  0.0000
11652SI     SI111652   9.014   4.681   0.669  0.0000  0.0000  0.0000
11653SI     SI111653   1.555   9.347   8.464  0.0000  0.0000  0.0000
11654SI     SI111654   8.112   5.386   8.476  0.0000  0.0000  0.0000
11655SI     SI111655   1.809   4.108   8.754  0.0000  0.0000  0.0000
11656SI     SI111656   6.706   0.459   9.383  0.0000  0.0000  0.0000
11657SI     SI111657   8.067   4.716   1.060  0.0000  0.0000  0.0000
11658SI     SI111658   6.670   0.905   8.437  0.0000  0.0000  0.0000
11659SI     SI111659   0.438   8.241   9.025  0.0000  0.0000  0.0000
11660SI     SI111660   2.643   8.647   0.271  0.0000  0.0000  0.0000
11661SI     SI111661   8.888   6.864   9.317  0.0000  0.0000  0.0000
11662SI     SI111662   7.655   2.298   9.100  0.0000  0.0000  0.0000
11663SI     SI111663   3.863   5.811   9.117  0.0000  0.0000  0.0000
11664SI     SI111664   6.937   4.111   9.304  0.0000  0.0000  0.0000
11665SI     SI111665   8.313   0.852   0.209  0.0000  0.0000  0.0000
11666SI     SI111666   5.463   1.782   1.093  0.0000  0.0000  0.0000
11667SI     SI111667   1.777   2.889   8.844  0.0000  0.0000  0.0000
11668SI     SI111668   4.601   3.970   0.025  0.0000  0.0000  0.0000
11669SI     SI111669   9.359   6.051   0.106  0.0000  0.0000  0.0000
11670SI     SI111670   5.015   2.075   8.414  0.0000  0.0000  0.0000
11671SI     SI111671   0.494   6.323   0.293  0.0000  0.0000  0.0000
11672SI     SI111672   7.204   6.165   8.648  0.0000  0.0000  0.0000
11673SI     SI111673   0.390   0.835   0.276  0.0000  0.0000  0.0000
11674SI     SI111674   5.040   0.903   8.907  0.0000  0.0000  0.0000
11675SI     SI111675   6.631   2.098   0.853  0.0000  0.0000  0.0000
11676SI     SI111676   5.612   1.195   0.406  0.0000  0.0000  0.0000
11677SI     SI111677   3.037   1.399   8.964  0.0000  0.0000  0.0000
11678SI     SI111678   5.871   9.499   0.581  0.0000  0.0000  0.0000
11679SI     SI111679   7.380   0.799   0.160  0.0000  0.0000  0.0000
11680SI     SI111680   5.324   1.914   9.091  0.0000  0.0000  0.0000
11681SI     SI111681   9.580   6.457   8.728  0.0000  0.0000  0.0000
11682SI     SI111682   4.089   1.285   0.216  0.0000  0.0000  0.0000
11683SI     SI111683   3.825   2.280   9.304  0.0000  0.0000  0.0000
11684SI     SI111684   6.095   1.051   8.841  0.0000  0.0000  0.0000
11685SI     SI111685   5.841   8.383   9.364  0.0000  0.0000  0.0000
11686SI     SI111686   9.335   9.537   9.112  0.0000  0.0000  0.0000
11687SI     SI111687   7.569   3.656   0.467  0.0000  0.0000  0.0000
11688SI     SI111688   6.658   4.332   0.632  0.0000  0.0000  0.0000
11689SI     SI111689   8.205   6.217   0.277  0.0000  0.0000  0.0000
11690SI     SI111690   5.261   7.101   9.589  0.0000  0.0000  0.0000
11691SI     SI111691   5.357   5.201   8.795  0.0000  0.0000  0.0000
11692SI     SI111692   0.694   7.519   0.871  0.0000  0.0000  0.0000
11693SI     SI111693   6.841   2.125   9.363  0.0000  0.0000  0.0000
11694SI     SI111694   3.855   7.811   0.566  0.0000  0.0000  0.0000
11695SI     SI111695   8.197   3.694   0.764  0.0000  0.0000  0.0000
11696SI     SI111696   5.377   5.352   9.279  0.0000  0.0000  0.0000
11697SI     SI111697   2.004   4.400   9.359  0.0000  0.0000  0.0000
11698SI     SI111698   1.116   0.281   0.385  0.0000  0.0000  0.0000
11699SI     SI111699   8.343   4.838   9.301  0.0000  0.0000  0.0000
11700SI     SI111700   7.564   1.540   0.566  0.0000  0.0000  0.0000
11701SI     SI111701   6.211   8.486   0.265  0.0000  0.0000  0.0000
11702SI     SI111702   8.201   0.198   0.314  0.0000  0.0000  0.0000
11703SI     SI111703   5.780   7.131   0.191  0.0000  0.0000  0.0000
11704SI     SI111704   7.627   2.599   1.001  0.0000  0.0000  0.0000
11705SI     SI111705   0.999   3.988   1.174  0.0000  0.0000  0.0000
11706SI     SI111706   1.115   7.905   8.430  0.0000  0.0000  0.0000
11707SI     SI111707   4.159   9.040   1.158  0.0000  0.0000  0.0000
11708SI     SI111708   7.310   7.257   0.077  0.0000  0.0000  0.0000
11709SI     SI111709   1.534   7.547   9.200  0.0000  0.0000  0.0000
11710SI     SI111710   2.552   9.536   9.066  0.0000  0.0000  0.0000
11711SI     SI111711   2.464   2.046   1.162  0.0000  0.0000  0.0000
11712SI     SI111712   4.582   8.793   8.769  0.0000  0.0000  0.0000
11713SI     SI111713   0.862   3.802   8.535  0.0000  0.0000  0.0000
11714SI     SI111714   4.235   1.758   0.133  0.0000  0.0000  0.0000
11715SI     SI111715   5.824   8.831   8.639  0.0000  0.0000  0.0000
11716SI     SI111716   7.830   0.222   8.523  0.0000  0.0000  0.0000
11717SI     SI111717   1.477   1.368   9.231  0.0000  0.0000  0.0000
11718SI     SI111718   0.485   3.901   1.216  0.0000  0.0000  0.0000
11719SI     SI111719   0.277   7.188   1.136  0.0000  0.0000  0.0000
11720SI     SI111720   6.850   4.733   9.128  0.0000  0.0000  0.0000
11721SI     SI111721   8.863   1.947   1.014  0.0000  0.0000  0.0000
11722SI     SI111722   6.733   7.333   1.172  0.0000  0.0000  0.0000
11723SI     SI111723   5.482   0.943   8.559  0.0000  0.0000  0.0000
11724SI     SI111724   8.776   8.621   1.094  0.0000  0.0000  0.0000
11725SI     SI111725   6.592   7.029   9.260  0.0000  0.0000  0.0000
11726SI     SI111726   6.437   2.959   8.956  0.0000  0.0000  0.0000
11727SI     SI111727   3.479   0.054   9.256  0.0000  0.0000  0.0000
11728SI     SI111728   4.047   7.611   0.446  0.0000  0.0000  0.0000
11729SI     SI111729   2.004   8.748   0.771  0.0000  0.0000  0.0000
11730SI     SI111730   1.331   3.688   8.531  0.0000  0.0000  0.0000
11731SI     SI111731   7.986   7.439   8.360  0.0000  0.0000  0.0000
11732SI     SI111732   6.120   0.244   8.557  0.0000  0.0000  0.0000
11733SI     SI111733   5.796   7.539   8.519  0.0000  0.0000  0.0000
11734SI     SI111734   1.688   4.528   8.609  0.0000  0.0000  0.0000
11735SI     SI111735   1.398   0.672   0.255  0.0000  0.0000  0.0000
11736SI     SI111736   6.707   5.183   8.919  0.0000  0.0000  0.0000
11737SI     SI111737   8.945   7.450   9.589  0.0000  0.0000  0.0000
11738SI     SI111738   0.167   0.157   0.549  0.0000  0.0000  0.0000
11739SI     SI111739   0.178   9.439   9.241  0.0000  0.0000  0.0000
11740SI     SI111740   0.387   2.392   0.913  0.0000  0.0000  0.0000
11741SI     SI111741   5.599   1.798   9.201  0.0000  0.0000  0.0000
11742SI     SI111742   9.186   7.323   9.442  0.0000  0.0000  0.0000
11743SI     SI111743   1.177   3.618   0.282  0.0000  0.0000  0.0000
11744SI     SI111744   4.335   2.901   9.079  0.0000  0.0000  0.0000
11745SI     SI111745   1.941   8.295   0.766  0.0000  0.0000  0.0000
11746SI     SI111746   8.547   1.939   1.039  0.0000  0.0000  0.0000
11747SI     SI111747   4.708   5.523   8.631  0.0000  0.0000  0.0000
11748SI     SI111748   2.411   1.647   8.880  0.0000  0.0000  0.0000
11749SI     SI111749   3.343   7.190   8.498  0.0000  0.0000  0.0000
11750SI     SI111750   7.564   4.747   8.553  0.0000  0.0000  0.0000
11751SI     SI111751   4.958   7.016   9.541  0.0000  0.0000  0.0000
11752SI     SI111752   0.957   4.274   0.747  0.0000  0.0000  0.0000
11753SI     SI111753   3.222   3.615   8.551  0.0000  0.0000  0.0000
11754SI     SI111754   4.337   6.077   8.722  0.0000  0.0000  0.0000
11755SI     SI111755   5.892   7.766   9.580  0.0000  0.0000  0.0000
11756SI     SI111756   8.025   1.309   9.340  0.0000  0.0000  0.0000
11757SI     SI111757   7.879   8.449   0.601  0.0000  0.0000  0.0000
11758SI     SI111758   6.822   7.845   0.121  0.0000  0.0000  0.0000
11759SI     SI111759   2.660   9.551   8.789  0.0000  0.0000  0.0000
11760SI     SI111760   5.118   6.317   8.607  0.0000  0.0000  0.0000
11761SI     SI111761   1.929   2.279   8.502  0.0000  0.0000  0.0000
11762SI     SI111762   3.667   8.488   0.623  0.0000  0.0000  0.0000
11763SI     SI111763   1.192   9.366   8.917  0.0000  0.0000  0.0000
11764SI     SI111764   3.691   5.124   1.015  0.0000  0.0000  0.0000
11765SI     SI111765   8.229   5.748   9.598  0.0000  0.0000  0.0000
11766SI     SI111766   2.685   6.032   0.526  0.0000  0.0000  0.0000
11767SI     SI111767   9.177   2.680   8.919  0.0000  0.0000  0.0000
11768SI     SI111768   6.408   5.184   9.588  0.0000  0.0000  0.0000
11769SI     SI111769   5.734   4.612   1.096  0.0000  0.0000  0.0000
11770SI     SI111770   8.677   7.946   0.108  0.0000  0.0000  0.0000
11771SI     SI111771   5.021   6.795   9.357  0.0000  0.0000  0.0000
11772SI     SI111772   4.402   7.485   0.770  0.0000  0.0000  0.0000
11773SI     SI111773   7.582   5.935   0.011  0.0000  0.0000  0.0000
11774SI     SI111774   5.606   3.047   8.726  0.0000  0.0000  0.0000
11775SI     SI111775   8.334   5.506   0.533  0.0000  0.0000  0.0000
11776SI     SI111776   7.987   6.134   9.399  0.0000  0.0000  0.0000
11777SI     SI111777   5.610   0.746   8.767  0.0000  0.0000  0.0000
11778SI     SI111778   1.486   9.108   8.666  0.0000  0.0000  0.0000
11779SI     SI111779   9.010   5.516   0.545  0.0000  0.0000  0.0000
11780SI     SI111780   8.041   2.058   8.281  0.0000  0.0000  0.0000
11781SI     SI111781   3.589   2.591   0.663  0.0000  0.0000  0.0000
11782SI     SI111782   4.395   0.833   0.016  0.0000  0.0000  0.0000
11783SI     SI111783   6.822   8.682   0.217  0.0000  0.0000  0.0000
11784SI     SI111784   5.893   0.604   8.724  0.0000  0.0000  0.0000
11785SI     SI111785   0.373   0.007   0.179  0.0000  0.0000  0.0000
11786SI     SI111786   6.651   7.332   8.430  0.0000  0.0000  0.0000
11787SI     SI111787   7.443   4.367   0.714  0.0000  0.0000  0.0000
11788SI     SI111788   6.371   5.320   8.546  0.0000  0.0000  0.0000
11789SI     SI111789   8.668   3.438   9.587  0.0000  0.0000  0.0000
11790SI     SI111790   8.295   6.488   0.941  0.0000  0.0000  0.0000
11791SI     SI111791   7.325   7.357   9.001  0.0000  0.0000  0.0000
11792SI     SI111792   1.880   5.216   0.848  0.0000  0.0000  0.0000
11793SI     SI111793   2.129   9.177   0.566  0.0000  0.0000  0.0000
11794SI     SI111794   1.563   1.212   0.271  0.0000  0.0000  0.0000
11795SI     SI111795   9.456   7.335   9.602  0.0000  0.0000  0.0000
11796SI     SI111796   0.748   3.753   9.124  0.0000  0.0000  0.0000
11797SI     SI111797   1.429   7.260   8.902  0.0000  0.0000  0.0000
11798SI     SI111798   1.375   0.629   0.987  0.0000  0.0000  0.0000
11799SI     SI111799   5.840   6.351   8.928  0.0000  0.0000  0.0000
11800SI     SI111800   0.829   2.870   9.095  0.0000  0.0000  0.0000
11801SI     SI111801   3.867   6.719   0.158  0.0000  0.0000  0.0000
11802SI     SI111802   7.892   5.726   0.755  0.0000  0.0000  0.0000
11803SI     SI111803   0.125   7.399   0.429  0.0000  0.0000  0.0000
11804SI     SI111804   0.233   5.150   0.958  0.0000  0.0000  0.0000
11805SI     SI111805   6.896   5.870   9.552  0.0000  0.0000  0.0000
11806SI     SI111806   2.605   0.391   0.232  0.0000  0.0000  0.0000
11807SI     SI111807   2.822   8.931   1.020  0.0000  0.0000  0.0000
11808SI     SI111808   0.185   7.245   8.566  0.0000  0.0000  0.0000
11809SI     SI111809   2.515   7.165   0.356  0.0000  0.0000  0.0000
11810SI     SI111810   8.939   1.847   0.497  0.0000  0.0000  0.0000
11811SI     SI111811   8.995   4.822   8.868  0.0000  0.0000  0.0000
11812SI     SI111812   1.208   4.580   9.469  0.0000  0.0000  0.0000
11813SI     SI111813   4.985   6.056   8.506  0.0000  0.0000  0.0000
11814SI     SI111814   4.168   9.015   0.671  0.0000  0.0000  0.0000
11815SI     SI111815   6.989   3.673   0.588  0.0000  0.0000  0.0000
11816SI     SI111816   9.595   3.425   9.211  0.0000  0.0000  0.0000
11817SI     SI111817   0.706   5.388   0.908  0.0000  0.0000  0.0000
11818SI     SI111818   0.235   5.597   0.740  0.0000  0.0000  0.0000
11819SI     SI111819   1.238   0.994   9.528  0.0000  0.0000  0.0000
11820SI     SI111820   4.207   0.453   0.257  0.0000  0.0000  0.0000
11821SI     SI111821   4.409   5.914   9.520  0.0000  0.0000  0.0000
11822SI     SI111822   0.435   8.215   0.961  0.0000  0.0000  0.0000
11823SI     SI111823   1.100   6.068   8.895  0.0000  0.0000  0.0000
11824SI     SI111824   0.868   0.820   0.071  0.0000  0.0000  0.0000
11825SI     SI111825   4.462   5.757   0.153  0.0000  0.0000  0.0000
11826SI     SI111826   1.056   8.945   0.480  0.0000  0.0000  0.0000
11827SI     SI111827   3.963   7.716   9.483  0.0000  0.0000  0.0000
11828SI     SI111828   2.962   1.421   0.872  0.0000  0.0000  0.0000
11829SI     SI111829   5.070   7.334   9.205  0.0000  0.0000  0.0000
11830SI     SI111830   6.683   2.971   0.085  0.0000  0.0000  0.0000
11831SI     SI111831   3.056   6.965   1.093  0.0000  0.0000  0.0000
11832SI     SI111832   4.250   4.024   0.986  0.0000  0.0000  0.0000
11833SI     SI111833   0.707   0.412   8.893  0.0000  0.0000  0.0000
11834SI     SI111834   2.506   6.043   0.066  0.0000  0.0000  0.0000
11835SI     SI111835   4.044   3.003   9.599  0.0000  0.0000  0.0000
11836SI     SI111836   2.184   2.798   1.113  0.0000  0.0000  0.0000
11837SI     SI111837   2.516   5.577   0.800  0.0000  0.0000  0.0000
11838SI     SI111838   8.347   0.266   0.998  0.0000  0.0000  0.0000
11839SI     SI111839   4.180   4.584   8.931  0.0000  0.0000  0.0000
11840SI     SI111840   0.077   6.770   0.806  0.0000  0.0000  0.0000
11841SI     SI111841   6.689   5.732   8.555  0.0000  0.0000  0.0000
11842SI     SI111842   4.391   2.480   8.687  0.0000  0.0000  0.0000
11843SI     SI111843   9.310   0.487   0.307  0.0000  0.0000  0.0000
11844SI     SI111844   7.382   1.196   9.245  0.0000  0.0000  0.0000
11845SI     SI111845   0.036   8.868   9.230  0.0000  0.0000  0.0000
11846SI     SI111846   6.378   2.856   8.483  0.0000  0.0000  0.0000
11847SI     SI111847   5.836   0.503   0.112  0.0000  0.0000  0.0000
11848SI     SI111848   6.263   6.448   9.276  0.0000  0.0000  0.0000
11849SI     SI111849   9.420   8.440   0.765  0.0000  0.0000  0.0000
11850SI     SI111850   1.322   1.911   8.460  0.0000  0.0000  0.0000
11851SI     SI111851   8.628   3.256   9.082  0.0000  0.0000  0.0000
11852SI     SI111852   9.023   1.377   0.549  0.0000  0.0000  0.0000
11853SI     SI111853   0.363   8.439   0.288  0.0000  0.0000  0.0000
11854SI     SI111854   3.268   8.500   0.316  0.0000  0.0000  0.0000
11855SI     SI111855   6.853   5.819   8.791  0.0000  0.0000  0.0000
11856SI     SI111856   2.901   8.664   1.169  0.0000  0.0000  0.0000
11857SI     SI111857   7.153   0.796   0.806  0.0000  0.0000  0.0000
11858SI     SI111858   6.577   2.412   9.075  0.0000  0.0000  0.0000
11859SI     SI111859   2.002   3.353   0.611  0.0000  0.0000  0.0000
11860SI     SI111860   2.343   7.214   0.963  0.0000  0.0000  0.0000
11861SI     SI111861   1.234   1.214   9.126  0.0000  0.0000  0.0000
11862SI     SI111862   8.542   0.589   9.453  0.0000  0.0000  0.0000
11863SI     SI111863   3.537   9.016   1.115  0.0000  0.0000  0.0000
11864SI     SI111864   1.217   9.152   0.314  0.0000  0.0000  0.0000
11865SI     SI111865   4.627   4.667   0.013  0.0000  0.0000  0.0000
11866SI     SI111866   8.291   4.600   9.504  0.0000  0.0000  0.0000
11867SI     SI111867   7.864   3.565   1.089  0.0000  0.0000  0.0000
11868SI     SI111868   1.703   0.258   8.821  0.0000  0.0000  0.0000
11869SI     SI111869   4.931   9.091   8.718  0.0000  0.0000  0.0000
11870SI     SI111870   5.079   4.773   0.089  0.0000  0.0000  0.0000
11871SI     SI111871   7.190   1.496   8.406  0.0000  0.0000  0.0000
11872SI     SI111872   3.178   7.916   0.772  0.0000  0.0000  0.0000
11873SI     SI111873   7.362   5.671   0.371  0.0000  0.0000  0.0000
11874SI     SI111874   0.261   1.115   9.533  0.0000  0.0000  0.0000
11875SI     SI111875   9.379   9.376   0.883  0.0000  0.0000  0.0000
11876SI     SI111876   8.546   7.499   1.032  0.0000  0.0000  0.0000
11877SI     SI111877   0.763   9.171   0.152  0.0000  0.0000  0.0000
11878SI     SI111878   6.243   2.661   8.681  0.0000  0.0000  0.0000
11879SI     SI111879   4.758   1.296   0.998  0.0000  0.0000  0.0000
11880SI     SI111880   6.919   1.215   0.661  0.0000  0.0000  0.0000
11881SI     SI111881   3.206   0.590   0.884  0.0000  0.0000  0.0000
11882SI     SI111882   0.129   5.242   9.552  0.0000  0.0000  0.0000
11883SI     SI111883   4.009   5.194   8.622  0.0000  0.0000  0.0000
11884SI     SI111884   4.386   7.743   0.169  0.0000  0.0000  0.0000
11885SI     SI111885   4.995   8.481   0.187  0.0000  0.0000  0.0000
11886SI     SI111886   6.979   9.144   0.101  0.0000  0.0000  0.0000
11887SI     SI111887   7.084   8.409   9.308  0.0000  0.0000  0.0000
11888SI     SI111888   0.242   4.441   8.558  0.0000  0.0000  0.0000
11889SI     SI111889   6.530   6.682   8.990  0.0000  0.0000  0.0000
11890SI     SI111890   0.531   1.444   0.566  0.0000  0.0000  0.0000
11891SI     SI111891   2.580   3.278   9.178  0.0000  0.0000  0.0000
11892SI     SI111892   7.970   0.823   9.307  0.0000  0.0000  0.0000
11893SI     SI111893   5.043   5.677   1.017  0.0000  0.0000  0.0000
11894SI     SI111894   5.756   3.478   8.495  0.0000  0.0000  0.0000
11895SI     SI111895   4.400   5.033   0.729  0.0000  0.0000  0.0000
11896SI     SI111896   8.121   3.129   0.989  0.0000  0.0000  0.0000
11897SI     SI111897   0.343   5.700   0.223  0.0000  0.0000  0.0000
11898SI     SI111898   0.594   0.550   8.640  0.0000  0.0000  0.0000
11899SI     SI111899   7.968   8.485   9.436  0.0000  0.0000  0.0000
11900SI     SI111900   8.537   4.049   8.530  0.0000  0.0000  0.0000
11901SI     SI111901   6.769   5.289   9.325  0.0000  0.0000  0.0000
11902SI     SI111902   8.615   2.099   8.937  0.0000  0.0000  0.0000
11903SI     SI111903   9.175   5.332   0.224  0.0000  0.0000  0.0000
11904SI     SI111904   9.373   1.597   1.073  0.0000  0.0000  0.0000
11905SI     SI111905   2.666   7.718   0.532  0.0000  0.0000  0.0000
11906SI     SI111906   3.135   0.101   8.696  0.0000  0.0000  0.0000
11907SI     SI111907   1.149   1.628   8.859  0.0000  0.0000  0.0000
11908SI     SI111908   7.013   5.194   1.036  0.0000  0.0000  0.0000
11909SI     SI111909   6.255   0.890   9.412  0.0000  0.0000  0.0000
11910SI     SI111910   8.410   6.903   8.669  0.0000  0.0000  0.0000
11911SI     SI111911   9.264   7.861   0.046  0.0000  0.0000  0.0000
11912SI     SI111912   4.094   1.195   0.503  0.0000  0.0000  0.0000
11913SI     SI111913   4.616   4.960   8.876  0.0000  0.0000  0.0000
11914SI     SI111914   0.751   2.022   0.911  0.0000  0.0000  0.0000
11915SI     SI111915   0.436   3.631   0.851  0.0000  0.0000  0.0000
11916SI     SI111916   1.794   5.997   9.127  0.0000  0.0000  0.0000
11917SI     SI111917   9.508   3.627   0.933  0.0000  0.0000  0.0000
11918SI     SI111918   8.880   4.321   0.547  0.0000  0.0000  0.0000
11919SI     SI111919   6.887   6.811   0.604  0.0000  0.0000  0.0000
11920SI     SI111920   1.565   4.008   0.260  0.0000  0.0000  0.0000
11921SI     SI111921   3.607   2.194   0.080  0.0000  0.0000  0.0000
11922SI     SI111922   6.993   6.523   0.261  0.0000  0.0000  0.0000
11923SI     SI111923   2.721   7.208   8.906  0.0000  0.0000  0.0000
11924SI     SI111924   0.228   9.480   0.662  0.0000  0.0000  0.0000
11925SI     SI111925   3.592   5.040   0.111  0.0000  0.0000  0.0000
11926SI     SI111926   5.079   3.482   8.843  0.0000  0.0000  0.0000
11927SI     SI111927   8.455   7.698   8.683  0.0000  0.0000  0.0000
11928SI     SI111928   7.778   5.616   9.387  0.0000  0.0000  0.0000
11929SI     SI111929   5.863   2.059   8.671  0.0000  0.0000  0.0000
11930SI     SI111930   2.588   1.614   0.215  0.0000  0.0000  0.0000
11931SI     SI111931   5.838   9.379   0.309  0.0000  0.0000  0.0000
11932SI     SI111932   8.980   8.681   0.872  0.0000  0.0000  0.0000
11933SI     SI111933   4.697   0.146   9.437  0.0000  0.0000  0.0000
11934SI     SI111934   6.614   6.405   1.167  0.0000  0.0000  0.0000
11935SI     SI111935   8.404   0.564   0.554  0.0000  0.0000  0.0000
11936SI     SI111936   4.449   7.342   0.354  0.0000  0.0000  0.0000
11937SI     SI111937   1.631   4.179   9.532  0.0000  0.0000  0.0000
11938SI     SI111938   1.578   2.673   8.709  0.0000  0.0000  0.0000
11939SI     SI111939   0.269   2.028   0.560  0.0000  0.0000  0.0000
11940SI     SI111940   6.342   2.844   0.724  0.0000  0.0000  0.0000
11941SI     SI111941   9.186   6.783   8.685  0.0000  0.0000  0.0000
11942SI     SI111942   1.706   3.452   0.562  0.0000  0.0000  0.0000
11943SI     SI111943   4.746   2.099   8.811  0.0000  0.0000  0.0000
11944SI     SI111944   7.407   4.676   0.322  0.0000  0.0000  0.0000
11945SI     SI111945   1.840   4.103   1.081  0.0000  0.0000  0.0000
11946SI     SI111946   1.666   0.780   0.162  0.0000  0.0000  0.0000
11947SI     SI111947   1.908   0.275   0.538  0.0000  0.0000  0.0000
11948SI     SI111948   1.331   7.704   9.029  0.0000  0.0000  0.0000
11949SI     SI111949   3.784   7.121   1.009  0.0000  0.0000  0.0000
11950SI     SI111950   6.619   4.814   8.606  0.0000  0.0000  0.0000
11951SI     SI111951   7.695   0.813   0.163  0.0000  0.0000  0.0000
11952SI     SI111952   9.083   4.171   0.139  0.0000  0.0000  0.0000
11953SI     SI111953   0.471   7.490   8.693  0.0000  0.0000  0.0000
11954SI     SI111954   4.177   8.737   9.500  0.0000  0.0000  0.0000
11955SI     SI111955   0.562   2.055   1.140  0.0000  0.0000  0.0000
11956SI     SI111956   6.635   8.280   0.021  0.0000  0.0000  0.0000
11957SI     SI111957   4.391   0.100   9.384  0.0000  0.0000  0.0000
11958SI     SI111958   6.105   6.761   8.425  0.0000  0.0000  0.0000
11959SI     SI111959   4.896   8.199   8.905  0.0000  0.0000  0.0000
11960SI     SI111960   1.860   6.048   8.630  0.0000  0.0000  0.0000
11961SI     SI111961   3.190   0.105   9.162  0.0000  0.0000  0.0000
11962SI     SI111962   4.650   8.698   9.590  0.0000  0.0000  0.0000
11963SI     SI111963   8.496   7.497   0.222  0.0000  0.0000  0.0000
11964SI     SI111964   4.710   6.784   0.810  0.0000  0.0000  0.0000
11965SI     SI111965   7.767   6.858   0.529  0.0000  0.0000  0.0000
11966SI     SI111966   3.200   5.008   8.521  0.0000  0.0000  0.0000
11967SI     SI111967   1.726   1.691   0.167  0.0000  0.0000  0.0000
11968SI     SI111968   2.791   5.852   9.135  0.0000  0.0000  0.0000
11969SI     SI111969   2.280   8.942   1.124  0.0000  0.0000  0.0000
11970SI     SI111970   7.677   6.622   9.044  0.0000  0.0000  0.0000
11971SI     SI111971   5.173   9.401   0.830  0.0000  0.0000  0.0000
11972SI     SI111972   7.209   3.405   0.217  0.0000  0.0000  0.0000
11973SI     SI111973   2.370   8.976   0.106  0.0000  0.0000  0.0000
11974SI     SI111974   6.704   4.742   0.014  0.0000  0.0000  0.0000
11975SI     SI111975   2.856   2.473   1.177  0.0000  0.0000  0.0000
11976SI     SI111976   4.146   2.488   9.004  0.0000  0.0000  0.0000
11977SI     SI111977   9.558   8.823   8.932  0.0000  0.0000  0.0000
11978SI     SI111978   3.940   3.185   0.860  0.0000  0.0000  0.0000
11979SI     SI111979   5.675   3.827   0.471  0.0000  0.0000  0.0000
11980SI     SI111980   1.507   2.362   1.175  0.0000  0.0000  0.0000
11981SI     SI111981   6.028   0.372   9.519  0.0000  0.0000  0.0000
11982SI     SI111982   2.646   0.779   8.717  0.0000  0.0000  0.0000
11983SI     SI111983   6.109   8.089   0.052  0.0000  0.0000  0.0000
11984SI     SI111984   5.554   6.431   0.488  0.0000  0.0000  0.0000
11985SI     SI111985   7.029   3.997   8.775  0.0000  0.0000  0.0000
11986SI     SI111986   6.092   6.286   1.320  0.0000  0.0000  0.0000
11987SI     SI111987   5.150   8.896   8.839  0.0000  0.0000  0.0000
11988SI     SI111988   9.604   4.070   1.191  0.0000  0.0000  0.0000
11989SI     SI111989   1.171   2.373   8.966  0.0000  0.0000  0.0000
11990SI     SI111990   3.355   5.458   0.365  0.0000  0.0000  0.0000
11991SI     SI111991   2.211   3.762   0.194  0.0000  0.0000  0.0000
11992SI     SI111992   4.666   7.812   9.023  0.0000  0.0000  0.0000
11993SI     SI111993   7.524   5.380   0.942  0.0000  0.0000  0.0000
11994SI     SI111994   8.879   6.886   0.011  0.0000  0.0000  0.0000
11995SI     SI111995   9.112   9.474   8.720  0.0000  0.0000  0.0000
11996SI     SI111996   4.041   9.508   9.298  0.0000  0.0000  0.0000
11997SI     SI111997   9.064   6.306   8.557  0.0000  0.0000  0.0000
11998SI     SI111998   5.615   7.386   0.148  0.0000  0.0000  0.0000
11999SI     SI111999   0.628   1.617   0.318  0.0000  0.0000  0.0000
12000SI     SI112000   9.464   0.199   0.620  0.0000  0.0000  0.0000
12001SI     SI112001   4.162   6.809   0.157  0.0000  0.0000  0.0000
12002SI     SI112002   0.194   9.388   8.929  0.0000  0.0000  0.0000
12003SI     SI112003   6.112   8.938   8.706  0.0000  0.0000  0.0000
12004SI     SI112004   1.900   7.956   0.399  0.0000  0.0000  0.0000
12005SI     SI112005   2.960   0.812   0.144  0.0000  0.0000  0.0000
12006SI     SI112006   5.219   3.910   0.691  0.0000  0.0000  0.0000
12007SI     SI112007   1.485   1.556   8.388  0.0000  0.0000  0.0000
12008SI     SI112008   1.693   1.069   0.061  0.0000  0.0000  0.0000
12009SI     SI112009   5.883   2.523   0.754  0.0000  0.0000  0.0000
12010SI     SI112010   6.579   3.687   0.243  0.0000  0.0000  0.0000
12011SI     SI112011   4.963   8.669   9.546  0.0000  0.0000  0.0000
12012SI     SI112012   0.559   8.048   9.470  0.0000  0.0000  0.0000
12013SI     SI112013   8.625   6.999   0.827  0.0000  0.0000  0.0000
12014SI     SI112014   6.399   8.291   0.419  0.0000  0.0000  0.0000
12015SI     SI112015   3.304   1.031   8.814  0.0000  0.0000  0.0000
12016SI     SI112016   2.643   7.850   9.073  0.0000  0.0000  0.0000
12017SI     SI112017   9.273   3.027   9.267  0.0000  0.0000  0.0000
12018SI     SI112018   0.608   3.072   9.200  0.0000  0.0000  0.0000
12019SI     SI112019   2.012   1.618   0.561  0.0000  0.0000  0.0000
12020SI     SI112020   4.323   5.909   0.360  0.0000  0.0000  0.0000
12021SI     SI112021   0.788   2.024   9.535  0.0000  0.0000  0.0000
12022SI     SI112022   3.939   8.018   9.556  0.0000  0.0000  0.0000
12023SI     SI112023   8.461   4.110   9.101  0.0000  0.0000  0.0000
12024SI     SI112024   6.572   8.228   8.747  0.0000  0.0000  0.0000
12025SI     SI112025   9.187   6.515   9.098  0.0000  0.0000  0.0000
12026SI     SI112026   5.656   4.614   8.892  0.0000  0.0000  0.0000
12027SI     SI112027   1.649   8.351   9.072  0.0000  0.0000  0.0000
12028SI     SI112028   2.241   5.472   9.094  0.0000  0.0000  0.0000
12029SI     SI112029   0.770   9.025   1.016  0.0000  0.0000  0.0000
12030SI     SI112030   6.746   6.862   1.022  0.0000  0.0000  0.0000
12031SI     SI112031   3.308   2.070   9.298  0.0000  0.0000  0.0000
12032SI     SI112032   2.963   7.575   9.428  0.0000  0.0000  0.0000
12033SI     SI112033   8.248   7.299   8.422  0.0000  0.0000  0.0000
12034SI     SI112034   5.474   2.875   9.112  0.0000  0.0000  0.0000
12035SI     SI112035   1.699   0.288   0.762  0.0000  0.0000  0.0000
12036SI     SI112036   0.214   0.332   8.918  0.0000  0.0000  0.0000
12037SI     SI112037   0.177   0.330   8.404  0.0000  0.0000  0.0000
12038SI     SI112038   1.186   3.510   9.156  0.0000  0.0000  0.0000
12039SI     SI112039   8.474   3.361   0.852  0.0000  0.0000  0.0000
12040SI     SI112040   2.074   5.077   8.986  0.0000  0.0000  0.0000
12041SI     SI112041   3.462   9.032   9.417  0.0000  0.0000  0.0000
12042SI     SI112042   8.866   5.085   0.593  0.0000  0.0000  0.0000
12043SI     SI112043   1.858   8.156   0.164  0.0000  0.0000  0.0000
12044SI     SI112044   6.151   8.529   8.635  0.0000  0.0000  0.0000
12045SI     SI112045   5.002   8.173   0.633  0.0000  0.0000  0.0000
12046SI     SI112046   1.477   5.399   1.079  0.0000  0.0000  0.0000
12047SI     SI112047   2.435   6.347   9.340  0.0000  0.0000  0.0000
12048SI     SI112048   8.140   2.998   0.526  0.0000  0.0000  0.0000
12049SI     SI112049   0.288   0.483   8.656  0.0000  0.0000  0.0000
12050SI     SI112050   9.444   3.383   0.016  0.0000  0.0000  0.0000
12051SI     SI112051   2.925   9.102   0.237  0.0000  0.0000  0.0000
12052SI     SI112052   3.453   1.664   9.000  0.0000  0.0000  0.0000
12053SI     SI112053   2.487   7.357   0.112  0.0000  0.0000  0.0000
12054SI     SI112054   1.589   3.203   9.119  0.0000  0.0000  0.0000
12055SI     SI112055   4.826   3.786   9.542  0.0000  0.0000  0.0000
12056SI     SI112056   3.341   6.032   9.197  0.0000  0.0000  0.0000
12057SI     SI112057   3.827   6.871   8.967  0.0000  0.0000  0.0000
12058SI     SI112058   8.238   3.926   9.023  0.0000  0.0000  0.0000
12059SI     SI112059   4.876   1.968   1.158  0.0000  0.0000  0.0000
12060SI     SI112060   7.457   3.132   9.291  0.0000  0.0000  0.0000
12061SI     SI112061   8.240   0.864   9.154  0.0000  0.0000  0.0000
12062SI     SI112062   8.615   1.485   0.812  0.0000  0.0000  0.0000
12063SI     SI112063   3.957   8.787   0.370  0.0000  0.0000  0.0000
12064SI     SI112064   1.958   1.841   0.772  0.0000  0.0000  0.0000
12065SI     SI112065   8.844   7.340   9.120  0.0000  0.0000  0.0000
12066SI     SI112066   0.863   0.085   9.528  0.0000  0.0000  0.0000
12067SI     SI112067   1.940   4.522   1.061  0.0000  0.0000  0.0000
12068SI     SI112068   1.790   6.462   8.886  0.0000  0.0000  0.0000
12069SI     SI112069   3.525   2.644   1.170  0.0000  0.0000  0.0000
12070SI     SI112070   6.803   8.174   0.681  0.0000  0.0000  0.0000
12071SI     SI112071   4.378   9.392   9.444  0.0000  0.0000  0.0000
12072SI     SI112072   5.533   9.177   1.060  0.0000  0.0000  0.0000
12073SI     SI112073   5.391   9.108   8.821  0.0000  0.0000  0.0000
12074SI     SI112074   2.218   4.579   8.411  0.0000  0.0000  0.0000
12075SI     SI112075   5.314   1.457   0.786  0.0000  0.0000  0.0000
12076SI     SI112076   9.332   8.884   1.060  0.0000  0.0000  0.0000
12077SI     SI112077   3.732   9.447   0.357  0.0000  0.0000  0.0000
12078SI     SI112078   2.582   1.260   8.928  0.0000  0.0000  0.0000
12079SI     SI112079   8.803   5.625   9.521  0.0000  0.0000  0.0000
12080SI     SI112080   0.774   6.769   8.686  0.0000  0.0000  0.0000
12081SI     SI112081   8.056   5.698   8.813  0.0000  0.0000  0.0000
12082SI     SI112082   2.139   2.450   0.011  0.0000  0.0000  0.0000
12083SI     SI112083   1.663   0.561   0.912  0.0000  0.0000  0.0000
12084SI     SI112084   6.070   7.820   1.156  0.0000  0.0000  0.0000
12085SI     SI112085   5.584   5.254   0.643  0.0000  0.0000  0.0000
12086SI     SI112086   1.166   7.487   0.585  0.0000  0.0000  0.0000
12087SI     SI112087   7.906   1.922   8.937  0.0000  0.0000  0.0000
12088SI     SI112088   7.290   8.722   0.280  0.0000  0.0000  0.0000
12089SI     SI112089   6.392   8.150   0.158  0.0000  0.0000  0.0000
12090SI     SI112090   7.318   7.793   0.101  0.0000  0.0000  0.0000
12091SI     SI112091   8.574   5.515   9.096  0.0000  0.0000  0.0000
12092SI     SI112092   9.251   8.583   1.000  0.0000  0.0000  0.0000
12093SI     SI112093   7.411   0.389   0.503  0.0000  0.0000  0.0000
12094SI     SI112094   1.802   0.048   0.935  0.0000  0.0000  0.0000
12095SI     SI112095   6.721   6.744   8.758  0.0000  0.0000  0.0000
12096SI     SI112096   4.852   1.208   0.542  0.0000  0.0000  0.0000
12097SI     SI112097   9.297   8.858   0.424  0.0000  0.0000  0.0000
12098SI     SI112098   3.075   9.130   8.550  0.0000  0.0000  0.0000
12099SI     SI112099   3.704   0.581   0.676  0.0000  0.0000  0.0000
12100SI     SI112100   4.330   4.596   8.651  0.0000  0.0000  0.0000
12101SI     SI112101   5.439   0.758   0.109  0.0000  0.0000  0.0000
12102SI     SI112102   0.872   5.561   1.109  0.0000  0.0000  0.0000
12103SI     SI112103   4.555   6.930   9.128  0.0000  0.0000  0.0000
12104SI     SI112104   3.425   0.015   8.649  0.0000  0.0000  0.0000
12105SI     SI112105   2.670   3.720   8.524  0.0000  0.0000  0.0000
12106SI     SI112106   3.568   6.261   0.684  0.0000  0.0000  0.0000
12107SI     SI112107   7.613   1.721   1.040  0.0000  0.0000  0.0000
12108SI     SI112108   8.178   7.868   1.006  0.0000  0.0000  0.0000
12109SI     SI112109   5.285   2.211   0.036  0.0000  0.0000  0.0000
12110SI     SI112110   7.644   2.879   0.461  0.0000  0.0000  0.0000
12111SI     SI112111   1.456   0.269   0.586  0.0000  0.0000  0.0000
12112SI     SI112112   7.772   2.819   9.258  0.0000  0.0000  0.0000
12113SI     SI112113   0.101   8.733   8.469  0.0000  0.0000  0.0000
12114SI     SI112114   2.456   7.820   8.575  0.0000  0.0000  0.0000
12115SI     SI112115   8.191   1.286   8.826  0.0000  0.0000  0.0000
12116SI     SI112116   7.999   0.547   8.820  0.0000  0.0000  0.0000
12117SI     SI112117   3.341   0.456   8.425  0.0000  0.0000  0.0000
12118SI     SI112118   2.307   0.973   1.055  0.0000  0.0000  0.0000
12119SI     SI112119   7.823   0.174   1.068  0.0000  0.0000  0.0000
12120SI     SI112120   6.852   3.938   9.554  0.0000  0.0000  0.0000
12121SI     SI112121   8.614   9.189   1.122  0.0000  0.0000  0.0000
12122SI     SI112122   1.925   4.127   9.462  0.0000  0.0000  0.0000
12123SI     SI112123   0.870   5.898   0.212  0.0000  0.0000  0.0000
12124SI     SI112124   4.105   4.073   0.114  0.0000  0.0000  0.0000
12125SI     SI112125   6.030   9.434   8.797  0.0000  0.0000  0.0000
12126SI     SI112126   5.054   1.068   0.351  0.0000  0.0000  0.0000
12127SI     SI112127   4.631   7.331   8.982  0.0000  0.0000  0.0000
12128SI     SI112128   9.286   8.678   8.983  0.0000  0.0000  0.0000
12129SI     SI112129   7.089   8.006   0.110  0.0000  0.0000  0.0000
12130SI     SI112130   6.823   5.809   0.516  0.0000  0.0000  0.0000
12131SI     SI112131   6.020   0.957   1.044  0.0000  0.0000  0.0000
12132SI     SI112132   4.133   4.416   0.700  0.0000  0.0000  0.0000
12133SI     SI112133   2.598   5.387   1.028  0.0000  0.0000  0.0000
12134SI     SI112134   8.817   2.203   9.511  0.0000  0.0000  0.0000
12135SI     SI112135   6.050   3.264   1.173  0.0000  0.0000  0.0000
12136SI     SI112136   8.661   8.520   0.077  0.0000  0.0000  0.0000
12137SI     SI112137   7.170   6.771   9.401  0.0000  0.0000  0.0000
12138SI     SI112138   3.654   7.416   0.080  0.0000  0.0000  0.0000
12139SI     SI112139   8.292   3.307   0.146  0.0000  0.0000  0.0000
12140SI     SI112140   7.552   4.424   8.760  0.0000  0.0000  0.0000
12141SI     SI112141   3.619   4.564   0.993  0.0000  0.0000  0.0000
12142SI     SI112142   5.425   3.524   0.115  0.0000  0.0000  0.0000
12143SI     SI112143   0.272   5.325   8.533  0.0000  0.0000  0.0000
12144SI     SI112144   0.460   0.411   0.330  0.0000  0.0000  0.0000
12145SI     SI112145   9.457   4.320   0.745  0.0000  0.0000  0.0000
12146SI     SI112146   4.794   4.207   0.095  0.0000  0.0000  0.0000
12147SI     SI112147   2.685   6.240   9.495  0.0000  0.0000  0.0000
12148SI     SI112148   4.537   7.036   0.333  0.0000  0.0000  0.0000
12149SI     SI112149   5.883   7.473   9.099  0.0000  0.0000  0.0000
12150SI     SI112150   7.161   4.329   9.325  0.0000  0.0000  0.0000
12151SI     SI112151   7.299   4.073   8.934  0.0000  0.0000  0.0000
12152SI     SI112152   3.370   7.261   9.273  0.0000  0.0000  0.0000
12153SI     SI112153   9.232   1.141   0.958  0.0000  0.0000  0.0000
12154SI     SI112154   2.708   4.169   0.444  0.0000  0.0000  0.0000
12155SI     SI112155   8.194   1.966   8.540  0.0000  0.0000  0.0000
12156SI     SI112156   3.328   1.415   9.069  0.0000  0.0000  0.0000
12157SI     SI112157   8.787   0.971   9.222  0.0000  0.0000  0.0000
12158SI     SI112158   8.404   2.215   1.040  0.0000  0.0000  0.0000
12159SI     SI112159   2.645   1.772   8.736  0.0000  0.0000  0.0000
12160SI     SI112160   6.565   4.484   0.366  0.0000  0.0000  0.0000
12161SI     SI112161   9.556   1.618   0.161  0.0000  0.0000  0.0000
12162SI     SI112162   9.439   5.673   0.539  0.0000  0.0000  0.0000
12163SI     SI112163   4.884   6.556   8.974  0.0000  0.0000  0.0000
12164SI     SI112164   0.347   4.098   9.401  0.0000  0.0000  0.0000
12165SI     SI112165   8.564   5.572   0.922  0.0000  0.0000  0.0000
12166SI     SI112166   2.402   0.280   0.635  0.0000  0.0000  0.0000
12167SI     SI112167   1.599   2.099   0.810  0.0000  0.0000  0.0000
12168SI     SI112168   5.456   8.310   0.133  0.0000  0.0000  0.0000
12169SI     SI112169   5.841   4.191   9.476  0.0000  0.0000  0.0000
12170SI     SI112170   0.424   2.673   1.063  0.0000  0.0000  0.0000
12171SI     SI112171   6.454   6.155   0.007  0.0000  0.0000  0.0000
12172SI     SI112172   6.429   1.627   0.990  0.0000  0.0000  0.0000
12173SI     SI112173   5.288   9.044   1.164  0.0000  0.0000  0.0000
12174SI     SI112174   8.133   4.340   0.487  0.0000  0.0000  0.0000
12175SI     SI112175   6.453   3.952   8.830  0.0000  0.0000  0.0000
12176SI     SI112176   4.637   2.844   8.652  0.0000  0.0000  0.0000
12177SI     SI112177   5.059   4.172   8.526  0.0000  0.0000  0.0000
12178SI     SI112178   9.319   2.501   0.481  0.0000  0.0000  0.0000
12179SI     SI112179   1.283   8.956   0.098  0.0000  0.0000  0.0000
12180SI     SI112180   8.928   1.498   0.823  0.0000  0.0000  0.0000
12181SI     SI112181   2.707   3.566   0.030  0.0000  0.0000  0.0000
12182SI     SI112182   4.170   3.890   8.784  0.0000  0.0000  0.0000
12183SI     SI112183   7.622   5.861   9.334  0.0000  0.0000  0.0000
12184SI     SI112184   9.251   6.777   1.075  0.0000  0.0000  0.0000
12185SI     SI112185   7.451   5.806   8.453  0.0000  0.0000  0.0000
12186SI     SI112186   8.518   5.868   0.300  0.0000  0.0000  0.0000
12187SI     SI112187   5.042   8.894   0.853  0.0000  0.0000  0.0000
12188SI     SI112188   6.806   7.332   0.611  0.0000  0.0000  0.0000
12189SI     SI112189   2.222   9.412   0.403  0.0000  0.0000  0.0000
12190SI     SI112190   2.765   8.262   8.801  0.0000  0.0000  0.0000
12191SI     SI112191   2.704   6.458   0.310  0.0000  0.0000  0.0000
12192SI     SI112192   1.613   4.385   0.747  0.0000  0.0000  0.0000
12193SI     SI112193   6.562   7.184   0.601  0.0000  0.0000  0.0000
12194SI     SI112194   9.335   1.718   9.025  0.0000  0.0000  0.0000
12195SI     SI112195   1.163   1.697   9.519  0.0000  0.0000  0.0000
12196SI     SI112196   4.630   5.730   9.102  0.0000  0.0000  0.0000
12197SI     SI112197   7.808   1.648   9.400  0.0000  0.0000  0.0000
12198SI     SI112198   9.327   0.734   0.660  0.0000  0.0000  0.0000
12199SI     SI112199   1.619   9.536   0.298  0.0000  0.0000  0.0000
12200SI     SI112200   7.342   3.126   0.163  0.0000  0.0000  0.0000
12201SI     SI112201   8.184   7.839   8.398  0.0000  0.0000  0.0000
12202SI     SI112202   8.424   1.850   8.951  0.0000  0.0000  0.0000
12203SI     SI112203   6.890   9.535   0.514  0.0000  0.0000  0.0000
12204SI     SI112204   9.151   9.189   8.837  0.0000  0.0000  0.0000
12205SI     SI112205   0.766   8.155   8.444  0.0000  0.0000  0.0000
12206SI     SI112206   1.048   6.593   9.522  0.0000  0.0000  0.0000
12207SI     SI112207   1.076   3.530   0.776  0.0000  0.0000  0.0000
12208SI     SI112208   7.998   3.726   0.280  0.0000  0.0000  0.0000
12209SI     SI112209   6.162   4.836   9.518  0.0000  0.0000  0.0000
12210SI     SI112210   2.275   8.308   0.168  0.0000  0.0000  0.0000
12211SI     SI112211   2.512   6.880   0.257  0.0000  0.0000  0.0000
12212SI     SI112212   4.305   3.916   9.533  0.0000  0.0000  0.0000
12213SI     SI112213   6.763   7.590   0.433  0.0000  0.0000  0.0000
12214SI     SI112214   4.925   0.907   9.508  0.0000  0.0000  0.0000
12215SI     SI112215   5.595   9.558   8.566  0.0000  0.0000  0.0000
12216SI     SI112216   7.070   3.715   9.187  0.0000  0.0000  0.0000
12217SI     SI112217   4.387   3.394   9.557  0.0000  0.0000  0.0000
12218SI     SI112218   4.962   7.962   0.862  0.0000  0.0000  0.0000
12219SI     SI112219   4.781   9.254   9.231  0.0000  0.0000  0.0000
12220SI     SI112220   2.322   8.432   1.002  0.0000  0.0000  0.0000
12221SI     SI112221   3.491   8.160   1.049  0.0000  0.0000  0.0000
12222SI     SI112222   2.823   5.346   0.565  0.0000  0.0000  0.0000
12223SI     SI112223   8.686   2.182   0.193  0.0000  0.0000  0.0000
12224SI     SI112224   5.156   4.471   8.549  0.0000  0.0000  0.0000
12225SI     SI112225   8.424   5.044   8.881  0.0000  0.0000  0.0000
12226SI     SI112226   5.095   0.471   0.749  0.0000  0.0000  0.0000
12227SI     SI112227   3.552   6.766   1.031  0.0000  0.0000  0.0000
12228SI     SI112228   0.224   3.863   9.266  0.0000  0.0000  0.0000
12229SI     SI112229   2.614   2.459   8.593  0.0000  0.0000  0.0000
12230SI     SI112230   4.222   8.770   1.249  0.0000  0.0000  0.0000
12231SI     SI112231   8.908   3.014   0.073  0.0000  0.0000  0.0000
12232SI     SI112232   3.720   5.999   9.554  0.0000  0.0000  0.0000
12233SI     SI112233   1.612   9.145   0.898  0.0000  0.0000  0.0000
12234SI     SI112234   1.845   3.312   8.976  0.0000  0.0000  0.0000
12235SI     SI112235   5.837   8.519   8.642  0.0000  0.0000  0.0000
12236SI     SI112236   0.318   3.117   9.583  0.0000  0.0000  0.0000
12237SI     SI112237   7.777   6.062   0.507  0.0000  0.0000  0.0000
12238SI     SI112238   2.855   0.153   0.905  0.0000  0.0000  0.0000
12239SI     SI112239   9.033   1.109   0.715  0.0000  0.0000  0.0000
12240SI     SI112240   2.151   0.567   0.184  0.0000  0.0000  0.0000
12241SI     SI112241   6.412   7.099   0.188  0.0000  0.0000  0.0000
12242SI     SI112242   5.547   2.521   9.381  0.0000  0.0000  0.0000
12243SI     SI112243   5.448   2.259   8.721  0.0000  0.0000  0.0000
12244SI     SI112244   0.548   6.251   8.515  0.0000  0.0000  0.0000
12245SI     SI112245   5.113   0.019   9.145  0.0000  0.0000  0.0000
12246SI     SI112246   8.190   8.664   0.221  0.0000  0.0000  0.0000
12247SI     SI112247   3.623   7.882   0.979  0.0000  0.0000  0.0000
12248SI     SI112248   0.341   4.917   0.265  0.0000  0.0000  0.0000
12249SI     SI112249   7.250   2.035   9.207  0.0000  0.0000  0.0000
12250SI     SI112250   4.019   8.090   8.582  0.0000  0.0000  0.0000
12251SI     SI112251   4.041   2.955   9.066  0.0000  0.0000  0.0000
12252SI     SI112252   1.113   4.685   0.834  0.0000  0.0000  0.0000
12253SI     SI112253   7.440   3.921   0.539  0.0000  0.0000  0.0000
12254SI     SI112254   7.188   6.397   0.740  0.0000  0.0000  0.0000
12255SI     SI112255   5.215   9.490   0.528  0.0000  0.0000  0.0000
12256SI     SI112256   5.260   2.059   8.591  0.0000  0.0000  0.0000
12257SI     SI112257   1.265   0.448   8.326  0.0000  0.0000  0.0000
12258SI     SI112258   0.100   8.290   0.350  0.0000  0.0000  0.0000
12259SI     SI112259   7.520   6.302   1.031  0.0000  0.0000  0.0000
12260SI     SI112260   7.156   3.032   9.318  0.0000  0.0000  0.0000
12261SI     SI112261   5.398   5.371   8.383  0.0000  0.0000  0.0000
12262SI     SI112262   2.752   4.420   0.056  0.0000  0.0000  0.0000
12263SI     SI112263   6.086   5.656   9.196  0.0000  0.0000  0.0000
12264SI     SI112264   6.879   0.406   9.162  0.0000  0.0000  0.0000
12265SI     SI112265   5.255   6.463   0.426  0.0000  0.0000  0.0000
12266SI     SI112266   0.078   2.288   1.232  0.0000  0.0000  0.0000
12267SI     SI112267   1.927   1.565   8.649  0.0000  0.0000  0.0000
12268SI     SI112268   5.747   7.816   8.623  0.0000  0.0000  0.0000
12269SI     SI112269   3.715   3.825   8.533  0.0000  0.0000  0.0000
12270SI     SI112270   8.117   6.179   8.759  0.0000  0.0000  0.0000
12271SI     SI112271   1.005   9.203   0.994  0.0000  0.0000  0.0000
12272SI     SI112272   4.685   7.010   0.614  0.0000  0.0000  0.0000
12273SI     SI112273   4.111   1.936   9.164  0.0000  0.0000  0.0000
12274SI     SI112274   8.827   3.972   8.555  0.0000  0.0000  0.0000
12275SI     SI112275   4.416   0.768   8.689  0.0000  0.0000  0.0000
12276SI     SI112276   1.359   9.587   8.533  0.0000  0.0000  0.0000
12277SI     SI112277   8.702   4.520   8.502  0.0000  0.0000  0.0000
12278SI     SI112278   7.927   4.002   8.431  0.0000  0.0000  0.0000
12279SI     SI112279   5.710   9.012   0.860  0.0000  0.0000  0.0000
12280SI     SI112280   3.327   4.922   9.234  0.0000  0.0000  0.0000
12281SI     SI112281   4.851   1.678   8.970  0.0000  0.0000  0.0000
12282SI     SI112282   6.481   8.996   9.581  0.0000  0.0000  0.0000
12283SI     SI112283   6.756   0.154   9.046  0.0000  0.0000  0.0000
12284SI     SI112284   3.160   0.564   9.409  0.0000  0.0000  0.0000
12285SI     SI112285   0.582   0.094   0.817  0.0000  0.0000  0.0000
12286SI     SI112286   5.888   7.148   8.384  0.0000  0.0000  0.0000
12287SI     SI112287   2.525   1.976   9.450  0.0000  0.0000  0.0000
12288SI     SI112288   3.956   2.306   0.460  0.0000  0.0000  0.0000
12289SI     SI112289   1.041   7.000   9.246  0.0000  0.0000  0.0000
12290SI     SI112290   9.144   8.004   9.399  0.0000  0.0000  0.0000
12291SI     SI112291   7.165   1.018   0.097  0.0000  0.0000  0.0000
12292SI     SI112292   8.647   4.306   8.966  0.0000  0.0000  0.0000
12293SI     SI112293   8.792   0.515   0.730  0.0000  0.0000  0.0000
12294SI     SI112294   9.060   0.377   9.560  0.0000  0.0000  0.0000
12295SI     SI112295   7.537   2.963   8.780  0.0000  0.0000  0.0000
12296SI     SI112296   8.121   0.077   1.107  0.0000  0.0000  0.0000
12297SI     SI112297   1.927   1.403   0.949  0.0000  0.0000  0.0000
12298SI     SI112298   1.043   1.268   0.288  0.0000  0.0000  0.0000
12299SI     SI112299   8.495   3.649   0.749  0.0000  0.0000  0.0000
12300SI     SI112300   0.299   7.642   0.511  0.0000  0.0000  0.0000
12301SI     SI112301   9.444   9.386   0.041  0.0000  0.0000  0.0000
12302SI     SI112302   8.509   6.396   9.327  0.0000  0.0000  0.0000
12303SI     SI112303   2.784   7.206   9.397  0.0000  0.0000  0.0000
12304SI     SI112304   6.569   7.529   8.635  0.0000  0.0000  0.0000
12305SI     SI112305   6.956   7.841   9.095  0.0000  0.0000  0.0000
12306SI     SI112306   4.604   4.368   1.029  0.0000  0.0000  0.0000
12307SI     SI112307   3.525   3.446   1.232  0.0000  0.0000  0.0000
12308SI     SI112308   2.560   7.416   9.304  0.0000  0.0000  0.0000
12309SI     SI112309   2.222   4.726   8.690  0.0000  0.0000  0.0000
12310SI     SI112310   9.098   2.344   9.584  0.0000  0.0000  0.0000
12311SI     SI112311   7.881   6.193   8.937  0.0000  0.0000  0.0000
12312SI     SI112312   5.821   9.102   9.373  0.0000  0.0000  0.0000
12313SI     SI112313   7.158   5.682   0.773  0.0000  0.0000  0.0000
12314SI     SI112314   3.126   6.092   8.395  0.0000  0.0000  0.0000
12315SI     SI112315   8.182   9.481   8.769  0.0000  0.0000  0.0000
12316SI     SI112316   0.115   7.888   0.973  0.0000  0.0000  0.0000
12317SI     SI112317   0.530   7.382   0.095  0.0000  0.0000  0.0000
12318SI     SI112318   0.216   5.989   1.121  0.0000  0.0000  0.0000
12319SI     SI112319   9.123   1.423   9.362  0.0000  0.0000  0.0000
12320SI     SI112320   1.382   0.961   8.741  0.0000  0.0000  0.0000
12321SI     SI112321   2.110   3.523   9.339  0.0000  0.0000  0.0000
12322SI     SI112322   3.525   5.880   8.432  0.0000  0.0000  0.0000
12323SI     SI112323   6.614   0.591   1.073  0.0000  0.0000  0.0000
12324SI     SI112324   7.636   8.702   8.953  0.0000  0.0000  0.0000
12325SI     SI112325   7.582   6.538   8.615  0.0000  0.0000  0.0000
12326SI     SI112326   3.332   4.595   9.573  0.0000  0.0000  0.0000
12327SI     SI112327   5.257   1.280   9.460  0.0000  0.0000  0.0000
12328SI     SI112328   8.195   6.338   0.557  0.0000  0.0000  0.0000
12329SI     SI112329   2.125   2.934   0.266  0.0000  0.0000  0.0000
12330SI     SI112330   3.643   3.513   0.506  0.0000  0.0000  0.0000
12331SI     SI112331   5.035   8.136   1.101  0.0000  0.0000  0.0000
12332SI     SI112332   6.512   6.222   0.508  0.0000  0.0000  0.0000
12333SI     SI112333   8.489   2.266   0.756  0.0000  0.0000  0.0000
12334SI     SI112334   0.023   3.355   8.480  0.0000  0.0000  0.0000
12335SI     SI112335   4.257   5.378   0.030  0.0000  0.0000  0.0000
12336SI     SI112336   0.708   6.484   8.780  0.0000  0.0000  0.0000
12337SI     SI112337   6.350   6.018   0.695  0.0000  0.0000  0.0000
12338SI     SI112338   3.797   0.269   8.637  0.0000  0.0000  0.0000
12339SI     SI112339   8.106   1.629   0.222  0.0000  0.0000  0.0000
12340SI     SI112340   4.061   8.232   9.375  0.0000  0.0000  0.0000
12341SI     SI112341   6.770   1.451   8.516  0.0000  0.0000  0.0000
12342SI     SI112342   1.514   3.607   8.912  0.0000  0.0000  0.0000
12343SI     SI112343   4.698   0.426   9.569  0.0000  0.0000  0.0000
12344SI     SI112344   8.896   4.167   9.040  0.0000  0.0000  0.0000
12345SI     SI112345   4.116   3.560   0.270  0.0000  0.0000  0.0000
12346SI     SI112346   5.052   7.304   1.048  0.0000  0.0000  0.0000
12347SI     SI112347   6.452   5.137   0.703  0.0000  0.0000  0.0000
12348SI     SI112348   2.100   4.958   1.057  0.0000  0.0000  0.0000
12349SI     SI112349   5.687   7.297   8.951  0.0000  0.0000  0.0000
12350SI     SI112350   1.097   5.743   0.364  0.0000  0.0000  0.0000
12351SI     SI112351   4.658   0.362   0.684  0.0000  0.0000  0.0000
12352SI     SI112352   3.514   2.925   9.598  0.0000  0.0000  0.0000
12353SI     SI112353   7.614   7.572   8.597  0.0000  0.0000  0.0000
12354SI     SI112354   2.702   5.491   8.738  0.0000  0.0000  0.0000
12355SI     SI112355   2.144   8.371   9.214  0.0000  0.0000  0.0000
12356SI     SI112356   8.505   0.746   1.029  0.0000  0.0000  0.0000
12357SI     SI112357   5.437   0.736   1.026  0.0000  0.0000  0.0000
12358SI     SI112358   9.108   5.079   9.152  0.0000  0.0000  0.0000
12359SI     SI112359   9.160   0.310   9.273  0.0000  0.0000  0.0000
12360SI     SI112360   6.048   9.145   8.931  0.0000  0.0000  0.0000
12361SI     SI112361   0.436   4.318   1.171  0.0000  0.0000  0.0000
12362SI     SI112362   3.667   7.356   9.227  0.0000  0.0000  0.0000
12363SI     SI112363   5.622   8.802   1.061  0.0000  0.0000  0.0000
12364SI     SI112364   1.858   1.713   9.223  0.0000  0.0000  0.0000
12365SI     SI112365   0.232   8.716   0.352  0.0000  0.0000  0.0000
12366SI     SI112366   3.578   2.762   8.525  0.0000  0.0000  0.0000
12367SI     SI112367   0.368   8.503   9.421  0.0000  0.0000  0.0000
12368SI     SI112368   1.549   6.068   8.942  0.0000  0.0000  0.0000
12369SI     SI112369   7.430   8.550   9.120  0.0000  0.0000  0.0000
12370SI     SI112370   9.496   7.901   0.494  0.0000  0.0000  0.0000
12371SI     SI112371   7.129   6.017   9.111  0.0000  0.0000  0.0000
12372SI     SI112372   6.355   3.497   8.935  0.0000  0.0000  0.0000
12373SI     SI112373   5.974   7.577   1.025  0.0000  0.0000  0.0000
12374SI     SI112374   2.970   6.415   0.447  0.0000  0.0000  0.0000
12375SI     SI112375   4.500   0.364   0.205  0.0000  0.0000  0.0000
12376SI     SI112376   0.808   7.343   1.087  0.0000  0.0000  0.0000
12377SI     SI112377   3.024   9.282   9.359  0.0000  0.0000  0.0000
12378SI     SI112378   3.982   1.952   8.692  0.0000  0.0000  0.0000
12379SI     SI112379   5.710   8.477   0.032  0.0000  0.0000  0.0000
12380SI     SI112380   3.907   8.472   8.939  0.0000  0.0000  0.0000
12381SI     SI112381   4.052   6.132   0.939  0.0000  0.0000  0.0000
12382SI     SI112382   4.211   7.460   1.005  0.0000  0.0000  0.0000
12383SI     SI112383   5.329   2.756   1.188  0.0000  0.0000  0.0000
12384SI     SI112384   1.833   5.928   0.834  0.0000  0.0000  0.0000
12385SI     SI112385   0.466   6.564   9.214  0.0000  0.0000  0.0000
12386SI     SI112386   0.330   8.942   9.193  0.0000  0.0000  0.0000
12387SI     SI112387   6.787   7.890   0.651  0.0000  0.0000  0.0000
12388SI     SI112388   2.701   9.273   0.327  0.0000  0.0000  0.0000
12389SI     SI112389   3.059   8.386   0.825  0.0000  0.0000  0.0000
12390SI     SI112390   5.612   9.551   9.053  0.0000  0.0000  0.0000
12391SI     SI112391   3.360   7.888   9.211  0.0000  0.0000  0.0000
12392SI     SI112392   7.293   9.066   8.792  0.0000  0.0000  0.0000
12393SI     SI112393   9.200   4.455   8.719  0.0000  0.0000  0.0000
12394SI     SI112394   4.571   0.281   8.442  0.0000  0.0000  0.0000
12395SI     SI112395   5.970   2.399   0.213  0.0000  0.0000  0.0000
12396SI     SI112396   7.994   8.496   1.094  0.0000  0.0000  0.0000
12397SI     SI112397   9.579   3.643   0.133  0.0000  0.0000  0.0000
12398SI     SI112398   1.891   0.614   0.010  0.0000  0.0000  0.0000
12399SI     SI112399   0.364   5.870   8.614  0.0000  0.0000  0.0000
12400SI     SI112400   1.264   4.359   9.248  0.0000  0.0000  0.0000
12401SI     SI112401   9.163   5.791   0.494  0.0000  0.0000  0.0000
12402SI     SI112402   8.870   9.309   0.436  0.0000  0.0000  0.0000
12403SI     SI112403   9.267   4.961   8.928  0.0000  0.0000  0.0000
12404SI     SI112404   4.765   3.517   0.958  0.0000  0.0000  0.0000
12405SI     SI112405   8.672   3.192   0.728  0.0000  0.0000  0.0000
12406SI     SI112406   1.411   9.201   0.524  0.0000  0.0000  0.0000
12407SI     SI112407   4.162   6.262   0.020  0.0000  0.0000  0.0000
12408SI     SI112408   5.674   6.185   8.724  0.0000  0.0000  0.0000
12409SI     SI112409   8.616   5.632   8.529  0.0000  0.0000  0.0000
12410SI     SI112410   0.538   1.115   9.368  0.0000  0.0000  0.0000
12411SI     SI112411   6.577   1.611   8.666  0.0000  0.0000  0.0000
12412SI     SI112412   0.505   9.142   9.368  0.0000  0.0000  0.0000
12413SI     SI112413   7.029   4.257   8.612  0.0000  0.0000  0.0000
12414SI     SI112414   6.722   8.020   9.483  0.0000  0.0000  0.0000
12415SI     SI112415   7.573   9.127   9.558  0.0000  0.0000  0.0000
12416SI     SI112416   7.782   2.898   9.563  0.0000  0.0000  0.0000
12417SI     SI112417   5.738   8.049   1.206  0.0000  0.0000  0.0000
12418SI     SI112418   0.699   3.155   8.644  0.0000  0.0000  0.0000
12419SI     SI112419   3.390   2.573   0.904  0.0000  0.0000  0.0000
12420SI     SI112420   8.345   0.541   0.845  0.0000  0.0000  0.0000
12421SI     SI112421   4.363   0.436   0.986  0.0000  0.0000  0.0000
12422SI     SI112422   1.470   3.357   0.707  0.0000  0.0000  0.0000
12423SI     SI112423   3.880   2.602   0.098  0.0000  0.0000  0.0000
12424SI     SI112424   5.870   8.084   0.801  0.0000  0.0000  0.0000
12425SI     SI112425   4.099   8.885   8.848  0.0000  0.0000  0.0000
12426SI     SI112426   4.510   2.419   0.793  0.0000  0.0000  0.0000
12427SI     SI112427   2.124   6.598   0.027  0.0000  0.0000  0.0000
12428SI     SI112428   0.395   3.602   8.667  0.0000  0.0000  0.0000
12429SI     SI112429   7.311   0.925   0.567  0.0000  0.0000  0.0000
12430SI     SI112430   7.166   7.898   9.296  0.0000  0.0000  0.0000
12431SI     SI112431   2.876   6.431   0.738  0.0000  0.0000  0.0000
12432SI     SI112432   3.623   1.192   0.762  0.0000  0.0000  0.0000
12433SI     SI112433   8.257   5.948   0.422  0.0000  0.0000  0.0000
12434SI     SI112434   5.691   3.398   0.238  0.0000  0.0000  0.0000
12435SI     SI112435   0.970   4.786   9.145  0.0000  0.0000  0.0000
12436SI     SI112436   3.107   1.498   8.667  0.0000  0.0000  0.0000
12437SI     SI112437   3.866   4.451   1.154  0.0000  0.0000  0.0000
12438SI     SI112438   5.019   6.619   0.543  0.0000  0.0000  0.0000
12439SI     SI112439   6.444   1.935   0.351  0.0000  0.0000  0.0000
12440SI     SI112440   1.174   1.319   8.842  0.0000  0.0000  0.0000
12441SI     SI112441   2.622   2.362   0.719  0.0000  0.0000  0.0000
12442SI     SI112442   9.501   2.363   0.688  0.0000  0.0000  0.0000
12443SI     SI112443   7.422   8.042   8.730  0.0000  0.0000  0.0000
12444SI     SI112444   3.161   6.206   0.303  0.0000  0.0000  0.0000
12445SI     SI112445   3.568   8.271   8.519  0.0000  0.0000  0.0000
12446SI     SI112446   8.683   3.678   8.848  0.0000  0.0000  0.0000
12447SI     SI112447   0.115   1.328   9.360  0.0000  0.0000  0.0000
12448SI     SI112448   1.285   0.138   9.269  0.0000  0.0000  0.0000
12449SI     SI112449   4.760   5.555   0.958  0.0000  0.0000  0.0000
12450SI     SI112450   4.043   4.601   0.940  0.0000  0.0000  0.0000
12451SI     SI112451   9.440   7.041   0.049  0.0000  0.0000  0.0000
12452SI     SI112452   8.934   8.964   0.772  0.0000  0.0000  0.0000
12453SI     SI112453   1.859   2.825   0.182  0.0000  0.0000  0.0000
12454SI     SI112454   1.863   7.358   8.602  0.0000  0.0000  0.0000
12455SI     SI112455   6.641   2.958   8.555  0.0000  0.0000  0.0000
12456SI     SI112456   5.173   2.923   0.832  0.0000  0.0000  0.0000
12457SI     SI112457   1.434   0.131   8.801  0.0000  0.0000  0.0000
12458SI     SI112458   5.198   8.961   9.324  0.0000  0.0000  0.0000
12459SI     SI112459   8.071   4.829   0.279  0.0000  0.0000  0.0000
12460SI     SI112460   1.100   8.379   9.384  0.0000  0.0000  0.0000
12461SI     SI112461   0.793   1.263   9.470  0.0000  0.0000  0.0000
12462SI     SI112462   6.041   4.191   1.126  0.0000  0.0000  0.0000
12463SI     SI112463   5.421   5.811   0.947  0.0000  0.0000  0.0000
12464SI     SI112464   6.548   3.997   9.489  0.0000  0.0000  0.0000
12465SI     SI112465   8.749   0.370   9.528  0.0000  0.0000  0.0000
12466SI     SI112466   3.084   0.695   9.151  0.0000  0.0000  0.0000
12467SI     SI112467   9.577   6.668   8.964  0.0000  0.0000  0.0000
12468SI     SI112468   8.059   5.135   0.251  0.0000  0.0000  0.0000
12469SI     SI112469   6.766   6.298   8.816  0.0000  0.0000  0.0000
12470SI     SI112470   6.170   6.256   0.737  0.0000  0.0000  0.0000
12471SI     SI112471   5.196   2.822   0.558  0.0000  0.0000  0.0000
12472SI     SI112472   7.391   1.168   9.557  0.0000  0.0000  0.0000
12473SI     SI112473   4.117   9.172   8.769  0.0000  0.0000  0.0000
12474SI     SI112474   0.428   5.314   9.476  0.0000  0.0000  0.0000
12475SI     SI112475   5.837   1.458   1.112  0.0000  0.0000  0.0000
12476SI     SI112476   6.697   0.062   1.123  0.0000  0.0000  0.0000
12477SI     SI112477   4.233   2.205   9.058  0.0000  0.0000  0.0000
12478SI     SI112478   6.543   5.163   0.991  0.0000  0.0000  0.0000
12479SI     SI112479   1.300   6.146   0.044  0.0000  0.0000  0.0000
12480SI     SI112480   5.221   9.111   0.767  0.0000  0.0000  0.0000
12481SI     SI112481   8.704   9.044   9.392  0.0000  0.0000  0.0000
12482SI     SI112482   8.768   9.465   9.371  0.0000  0.0000  0.0000
12483SI     SI112483   1.598   4.005   0.559  0.0000  0.0000  0.0000
12484SI     SI112484   6.080   4.203   0.067  0.0000  0.0000  0.0000
12485SI     SI112485   0.443   3.828   0.440  0.0000  0.0000  0.0000
12486SI     SI112486   6.052   8.186   8.912  0.0000  0.0000  0.0000
12487SI     SI112487   5.952   3.194   8.900  0.0000  0.0000  0.0000
12488SI     SI112488   3.385   6.967   0.071  0.0000  0.0000  0.0000
12489SI     SI112489   7.873   3.327   8.798  0.0000  0.0000  0.0000
12490SI     SI112490   5.745   8.513   0.538  0.0000  0.0000  0.0000
12491SI     SI112491   8.457   1.982   0.139  0.0000  0.0000  0.0000
12492SI     SI112492   8.613   2.723   9.461  0.0000  0.0000  0.0000
12493SI     SI112493   3.924   2.424   8.522  0.0000  0.0000  0.0000
12494SI     SI112494   2.770   5.635   0.669  0.0000  0.0000  0.0000
12495SI     SI112495   1.553   3.265   0.351  0.0000  0.0000  0.0000
12496SI     SI112496   2.440   2.884   8.805  0.0000  0.0000  0.0000
12497SI     SI112497   6.655   5.691   0.036  0.0000  0.0000  0.0000
12498SI     SI112498   6.253   0.590   9.500  0.0000  0.0000  0.0000
12499SI     SI112499   0.026   1.763   8.927  0.0000  0.0000  0.0000
12500SI     SI112500   5.292   4.635   9.258  0.0000  0.0000  0.0000
12501SI     SI112501   6.659   8.015   1.300  0.0000  0.0000  0.0000
12502SI     SI112502   5.103   2.541   8.707  0.0000  0.0000  0.0000
12503SI     SI112503   7.956   4.810   0.576  0.0000  0.0000  0.0000
12504SI     SI112504   3.142   5.877   0.896  0.0000  0.0000  0.0000
12505SI     SI112505   0.972   0.370   9.046  0.0000  0.0000  0.0000
12506SI     SI112506   2.810   3.409   8.992  0.0000  0.0000  0.0000
12507SI     SI112507   2.830   8.998   9.042  0.0000  0.0000  0.0000
12508SI     SI112508   0.166   0.661   9.366  0.0000  0.0000  0.0000
12509SI     SI112509   5.994   3.618   9.231  0.0000  0.0000  0.0000
12510SI     SI112510   7.719   3.393   9.601  0.0000  0.0000  0.0000
12511SI     SI112511   5.792   2.040   9.551  0.0000  0.0000  0.0000
12512SI     SI112512   1.321   2.863   9.043  0.0000  0.0000  0.0000
12513SI     SI112513   1.610   5.722   0.835  0.0000  0.0000  0.0000
12514SI     SI112514   7.762   6.073   9.191  0.0000  0.0000  0.0000
12515SI     SI112515   1.174   8.556   0.774  0.0000  0.0000  0.0000
12516SI     SI112516   5.310   0.640   9.251  0.0000  0.0000  0.0000
12517SI     SI112517   0.974   6.507   9.232  0.0000  0.0000  0.0000
12518SI     SI112518   6.454   3.778   9.283  0.0000  0.0000  0.0000
12519SI     SI112519   3.808   2.292   0.947  0.0000  0.0000  0.0000
12520SI     SI112520   5.632   6.460   1.160  0.0000  0.0000  0.0000
12521SI     SI112521   4.548   4.174   0.595  0.0000  0.0000  0.0000
12522SI     SI112522   2.178   2.166   1.107  0.0000  0.0000  0.0000
12523SI     SI112523   6.491   0.119   0.903  0.0000  0.0000  0.0000
12524SI     SI112524   5.035   1.702   1.076  0.0000  0.0000  0.0000
12525SI     SI112525   8.496   1.929   8.467  0.0000  0.0000  0.0000
12526SI     SI112526   8.775   8.291   9.334  0.0000  0.0000  0.0000
12527SI     SI112527   7.875   8.783   9.101  0.0000  0.0000  0.0000
12528SI     SI112528   8.123   0.395   9.148  0.0000  0.0000  0.0000
12529SI     SI112529   6.026   8.062   0.540  0.0000  0.0000  0.0000
12530SI     SI112530   1.647   3.463   9.464  0.0000  0.0000  0.0000
12531SI     SI112531   3.673   7.595   9.441  0.0000  0.0000  0.0000
12532SI     SI112532   8.210   8.881   0.783  0.0000  0.0000  0.0000
12533SI     SI112533   8.272   3.594   1.282  0.0000  0.0000  0.0000
12534SI     SI112534   7.391   5.243   8.467  0.0000  0.0000  0.0000
12535SI     SI112535   1.910   3.715   9.220  0.0000  0.0000  0.0000
12536SI     SI112536   3.643   9.423   0.057  0.0000  0.0000  0.0000
12537SI     SI112537   7.955   6.224   0.091  0.0000  0.0000  0.0000
12538SI     SI112538   7.600   0.012   0.295  0.0000  0.0000  0.0000
12539SI     SI112539   5.257   1.446   9.036  0.0000  0.0000  0.0000
12540SI     SI112540   3.493   4.471   8.396  0.0000  0.0000  0.0000
12541SI     SI112541   8.254   1.148   9.234  0.0000  0.0000  0.0000
12542SI     SI112542   6.155   5.113   8.998  0.0000  0.0000  0.0000
12543SI     SI112543   2.114   0.248   0.747  0.0000  0.0000  0.0000
12544SI     SI112544   9.281   2.207   9.357  0.0000  0.0000  0.0000
12545SI     SI112545   9.570   7.608   9.208  0.0000  0.0000  0.0000
12546SI     SI112546   5.026   4.034   8.808  0.0000  0.0000  0.0000
12547SI     SI112547   7.037   0.289   8.407  0.0000  0.0000  0.0000
12548SI     SI112548   7.312   9.026   9.425  0.0000  0.0000  0.0000
12549SI     SI112549   1.395   6.991   0.203  0.0000  0.0000  0.0000
12550SI     SI112550   5.026   4.600   9.433  0.0000  0.0000  0.0000
12551SI     SI112551   4.879   4.507   0.999  0.0000  0.0000  0.0000
12552SI     SI112552   4.615   5.571   0.694  0.0000  0.0000  0.0000
12553SI     SI112553   7.216   0.369   0.038  0.0000  0.0000  0.0000
12554SI     SI112554   7.844   7.730   0.557  0.0000  0.0000  0.0000
12555SI     SI112555   3.156   0.686   8.514  0.0000  0.0000  0.0000
12556SI     SI112556   1.243   9.414   0.661  0.0000  0.0000  0.0000
12557SI     SI112557   9.194   7.712   9.023  0.0000  0.0000  0.0000
12558SI     SI112558   3.655   8.785   0.715  0.0000  0.0000  0.0000
12559SI     SI112559   4.716   8.587   8.586  0.0000  0.0000  0.0000
12560SI     SI112560   8.912   6.045   0.058  0.0000  0.0000  0.0000
12561SI     SI112561   0.412   6.076   0.888  0.0000  0.0000  0.0000
12562SI     SI112562   0.450   1.709   0.980  0.0000  0.0000  0.0000
12563SI     SI112563   2.407   0.180   8.426  0.0000  0.0000  0.0000
12564SI     SI112564   2.629   1.149   0.098  0.0000  0.0000  0.0000
12565SI     SI112565   5.310   5.227   0.183  0.0000  0.0000  0.0000
12566SI     SI112566   2.717   2.210   1.148  0.0000  0.0000  0.0000
12567SI     SI112567   8.540   5.104   0.338  0.0000  0.0000  0.0000
12568SI     SI112568   6.885   9.138   9.111  0.0000  0.0000  0.0000
12569SI     SI112569   5.797   4.318   1.014  0.0000  0.0000  0.0000
12570SI     SI112570   8.257   4.426   8.639  0.0000  0.0000  0.0000
12571SI     SI112571   4.033   5.039   0.349  0.0000  0.0000  0.0000
12572SI     SI112572   3.801   4.846   0.248  0.0000  0.0000  0.0000
12573SI     SI112573   7.024   7.125   8.620  0.0000  0.0000  0.0000
12574SI     SI112574   3.492   3.662   8.402  0.0000  0.0000  0.0000
12575SI     SI112575   5.850   4.788   0.871  0.0000  0.0000  0.0000
12576SI     SI112576   5.523   3.155   0.938  0.0000  0.0000  0.0000
12577SI     SI112577   9.312   6.351   0.155  0.0000  0.0000  0.0000
12578SI     SI112578   5.916   4.559   8.716  0.0000  0.0000  0.0000
12579SI     SI112579   2.523   6.699   8.862  0.0000  0.0000  0.0000
12580SI     SI112580   6.137   2.140   0.593  0.0000  0.0000  0.0000
12581SI     SI112581   8.704   7.305   0.120  0.0000  0.0000  0.0000
12582SI     SI112582   8.426   2.461   1.232  0.0000  0.0000  0.0000
12583SI     SI112583   9.119   2.643   9.492  0.0000  0.0000  0.0000
12584SI     SI112584   6.948   4.784   9.421  0.0000  0.0000  0.0000
12585SI     SI112585   7.387   5.646   8.706  0.0000  0.0000  0.0000
12586SI     SI112586   2.461   1.974   8.595  0.0000  0.0000  0.0000
12587SI     SI112587   0.088   4.601   1.063  0.0000  0.0000  0.0000
12588SI     SI112588   3.231   0.935   0.215  0.0000  0.0000  0.0000
12589SI     SI112589   1.423   2.690   8.445  0.0000  0.0000  0.0000
12590SI     SI112590   5.637   1.607   0.149  0.0000  0.0000  0.0000
12591SI     SI112591   7.824   5.959   0.216  0.0000  0.0000  0.0000
12592SI     SI112592   7.929   6.123   0.985  0.0000  0.0000  0.0000
12593SI     SI112593   1.752   0.543   8.708  0.0000  0.0000  0.0000
12594SI     SI112594   0.635   4.063   0.514  0.0000  0.0000  0.0000
12595SI     SI112595   1.078   3.056   0.655  0.0000  0.0000  0.0000
12596SI     SI112596   2.958   6.579   9.423  0.0000  0.0000  0.0000
12597SI     SI112597   4.763   9.438   0.607  0.0000  0.0000  0.0000
12598SI     SI112598   1.912   2.198   9.188  0.0000  0.0000  0.0000
12599SI     SI112599   6.414   0.320   8.641  0.0000  0.0000  0.0000
12600SI     SI112600   1.855   3.142   8.444  0.0000  0.0000  0.0000
12601SI     SI112601   7.485   6.043   8.658  0.0000  0.0000  0.0000
12602SI     SI112602   4.250   9.491   0.356  0.0000  0.0000  0.0000
12603SI     SI112603   1.416   5.857   8.564  0.0000  0.0000  0.0000
12604SI     SI112604   1.303   1.463   0.646  0.0000  0.0000  0.0000
12605SI     SI112605   1.675   1.905   1.052  0.0000  0.0000  0.0000
12606SI     SI112606   2.946   7.538   0.217  0.0000  0.0000  0.0000
12607SI     SI112607   7.608   2.101   9.556  0.0000  0.0000  0.0000
12608SI     SI112608   5.527   1.668   8.700  0.0000  0.0000  0.0000
12609SI     SI112609   7.203   0.073   1.204  0.0000  0.0000  0.0000
12610SI     SI112610   9.225   7.450   0.363  0.0000  0.0000  0.0000
12611SI     SI112611   0.186   5.632   8.540  0.0000  0.0000  0.0000
12612SI     SI112612   7.063   1.162   8.688  0.0000  0.0000  0.0000
12613SI     SI112613   7.273   1.646   8.650  0.0000  0.0000  0.0000
12614SI     SI112614   0.080   6.489   1.243  0.0000  0.0000  0.0000
12615SI     SI112615   3.210   4.185   8.915  0.0000  0.0000  0.0000
12616SI     SI112616   1.575   0.535   9.189  0.0000  0.0000  0.0000
12617SI     SI112617   6.193   9.143   0.576  0.0000  0.0000  0.0000
12618SI     SI112618   0.971   6.443   0.420  0.0000  0.0000  0.0000
12619SI     SI112619   5.321   4.030   9.209  0.0000  0.0000  0.0000
12620SI     SI112620   7.075   6.942   0.415  0.0000  0.0000  0.0000
12621SI     SI112621   5.838   6.631   0.205  0.0000  0.0000  0.0000
12622SI     SI112622   5.930   7.161   1.034  0.0000  0.0000  0.0000
12623SI     SI112623   0.237   4.589   9.274  0.0000  0.0000  0.0000
12624SI     SI112624   0.514   5.317   8.983  0.0000  0.0000  0.0000
12625SI     SI112625   4.442   2.954   0.968  0.0000  0.0000  0.0000
12626SI     SI112626   6.229   7.823   9.193  0.0000  0.0000  0.0000
12627SI     SI112627   7.983   0.087   8.762  0.0000  0.0000  0.0000
12628SI     SI112628   4.023   3.669   0.738  0.0000  0.0000  0.0000
12629SI     SI112629   3.109   4.619   0.832  0.0000  0.0000  0.0000
12630SI     SI112630   2.787   0.371   8.562  0.0000  0.0000  0.0000
12631SI     SI112631   4.348   5.101   8.957  0.0000  0.0000  0.0000
12632SI     SI112632   6.411   2.005   0.655  0.0000  0.0000  0.0000
12633SI     SI112633   4.012   6.838   0.659  0.0000  0.0000  0.0000
12634SI     SI112634   1.827   4.808   1.112  0.0000  0.0000  0.0000
12635SI     SI112635   5.562   6.718   9.322  0.0000  0.0000  0.0000
12636SI     SI112636   6.504   7.662   9.173  0.0000  0.0000  0.0000
12637SI     SI112637   9.422   5.924   9.434  0.0000  0.0000  0.0000
12638SI     SI112638   7.058   5.554   0.110  0.0000  0.0000  0.0000
12639SI     SI112639   2.558   8.348   8.580  0.0000  0.0000  0.0000
12640SI     SI112640   2.468   6.623   8.565  0.0000  0.0000  0.0000
12641SI     SI112641   7.352   1.758   0.605  0.0000  0.0000  0.0000
12642SI     SI112642   4.505   5.330   8.505  0.0000  0.0000  0.0000
12643SI     SI112643   6.086   8.713   9.398  0.0000  0.0000  0.0000
12644SI     SI112644   7.616   6.566   0.880  0.0000  0.0000  0.0000
12645SI     SI112645   1.376   7.254   0.633  0.0000  0.0000  0.0000
12646SI     SI112646   9.314   8.575   0.500  0.0000  0.0000  0.0000
12647SI     SI112647   1.017   7.116   0.789  0.0000  0.0000  0.0000
12648SI     SI112648   1.307   2.623   8.875  0.0000  0.0000  0.0000
12649SI     SI112649   7.296   9.099   0.827  0.0000  0.0000  0.0000
12650SI     SI112650   4.231   5.621   8.760  0.0000  0.0000  0.0000
12651SI     SI112651   3.299   0.822   0.488  0.0000  0.0000  0.0000
12652SI     SI112652   6.447   7.438   0.754  0.0000  0.0000  0.0000
12653SI     SI112653   1.416   5.065   0.698  0.0000  0.0000  0.0000
12654SI     SI112654   3.526   5.467   8.748  0.0000  0.0000  0.0000
12655SI     SI112655   1.350   0.695   9.068  0.0000  0.0000  0.0000
12656SI     SI112656   8.859   3.423   8.770  0.0000  0.0000  0.0000
12657SI     SI112657   9.541   7.048   8.565  0.0000  0.0000  0.0000
12658SI     SI112658   4.177   4.879   0.579  0.0000  0.0000  0.0000
12659SI     SI112659   1.289   7.177   0.910  0.0000  0.0000  0.0000
12660SI     SI112660   0.925   6.047   9.340  0.0000  0.0000  0.0000
12661SI     SI112661   1.110   6.242   8.632  0.0000  0.0000  0.0000
12662SI     SI112662   3.433   6.567   0.436  0.0000  0.0000  0.0000
12663SI     SI112663   1.869   8.082   9.462  0.0000  0.0000  0.0000
12664SI     SI112664   5.128   8.602   8.767  0.0000  0.0000  0.0000
12665SI     SI112665   7.009   8.444   1.041  0.0000  0.0000  0.0000
12666SI     SI112666   9.105   5.126   8.511  0.0000  0.0000  0.0000
12667SI     SI112667   4.264   2.257   8.263  0.0000  0.0000  0.0000
12668SI     SI112668   9.321   1.425   0.551  0.0000  0.0000  0.0000
12669SI     SI112669   2.943   4.677   1.096  0.0000  0.0000  0.0000
12670SI     SI112670   0.574   8.195   8.756  0.0000  0.0000  0.0000
12671SI     SI112671   2.007   4.975   0.244  0.0000  0.0000  0.0000
12672SI     SI112672   2.829   1.908   0.495  0.0000  0.0000  0.0000
12673SI     SI112673   2.284   7.738   1.240  0.0000  0.0000  0.0000
12674SI     SI112674   8.806   5.697   9.218  0.0000  0.0000  0.0000
12675SI     SI112675   1.073   0.638   9.180  0.0000  0.0000  0.0000
12676SI     SI112676   6.615   6.396   9.064  0.0000  0.0000  0.0000
12677SI     SI112677   1.276   8.938   8.789  0.0000  0.0000  0.0000
12678SI     SI112678   0.204   8.720   8.766  0.0000  0.0000  0.0000
12679SI     SI112679   6.791   3.851   0.414  0.0000  0.0000  0.0000
12680SI     SI112680   4.225   8.414   0.203  0.0000  0.0000  0.0000
12681SI     SI112681   8.321   4.543   0.520  0.0000  0.0000  0.0000
12682SI     SI112682   4.839   1.147   8.917  0.0000  0.0000  0.0000
12683SI     SI112683   0.546   6.428   0.581  0.0000  0.0000  0.0000
12684SI     SI112684   0.259   9.321   0.232  0.0000  0.0000  0.0000
12685SI     SI112685   0.167   6.617   9.209  0.0000  0.0000  0.0000
12686SI     SI112686   1.572   0.125   1.136  0.0000  0.0000  0.0000
12687SI     SI112687   7.118   1.728   0.403  0.0000  0.0000  0.0000
12688SI     SI112688   4.865   0.879   0.200  0.0000  0.0000  0.0000
12689SI     SI112689   5.855   4.273   0.534  0.0000  0.0000  0.0000
12690SI     SI112690   2.942   2.370   0.403  0.0000  0.0000  0.0000
12691SI     SI112691   2.742   6.558   9.008  0.0000  0.0000  0.0000
12692SI     SI112692   8.917   6.398   9.007  0.0000  0.0000  0.0000
12693SI     SI112693   7.095   8.435   0.738  0.0000  0.0000  0.0000
12694SI     SI112694   5.218   4.308   0.350  0.0000  0.0000  0.0000
12695SI     SI112695   5.860   1.504   0.797  0.0000  0.0000  0.0000
12696SI     SI112696   7.514   4.647   0.612  0.0000  0.0000  0.0000
12697SI     SI112697   2.175   8.436   0.596  0.0000  0.0000  0.0000
12698SI     SI112698   5.864   0.575   8.415  0.0000  0.0000  0.0000
12699SI     SI112699   8.492   8.282   8.862  0.0000  0.0000  0.0000
12700SI     SI112700   3.722   6.930   9.239  0.0000  0.0000  0.0000
12701SI     SI112701   0.630   9.314   8.786  0.0000  0.0000  0.0000
12702SI     SI112702   3.661   0.568   9.575  0.0000  0.0000  0.0000
12703SI     SI112703   4.649   2.547   8.550  0.0000  0.0000  0.0000
12704SI     SI112704   7.051   7.427   9.131  0.0000  0.0000  0.0000
12705SI     SI112705   4.570   7.429   8.598  0.0000  0.0000  0.0000
12706SI     SI112706   4.295   0.523   9.194  0.0000  0.0000  0.0000
12707SI     SI112707   4.556   4.398   0.125  0.0000  0.0000  0.0000
12708SI     SI112708   0.479   8.177   8.371  0.0000  0.0000  0.0000
12709SI     SI112709   9.103   0.708   8.967  0.0000  0.0000  0.0000
12710SI     SI112710   1.352   5.843   0.947  0.0000  0.0000  0.0000
12711SI     SI112711   2.466   5.377   8.886  0.0000  0.0000  0.0000
12712SI     SI112712   2.535   4.281   9.352  0.0000  0.0000  0.0000
12713SI     SI112713   4.416   1.069   8.695  0.0000  0.0000  0.0000
12714SI     SI112714   0.689   4.684   0.546  0.0000  0.0000  0.0000
12715SI     SI112715   3.825   0.445   9.097  0.0000  0.0000  0.0000
12716SI     SI112716   0.713   4.055   9.050  0.0000  0.0000  0.0000
12717SI     SI112717   8.736   5.971   8.803  0.0000  0.0000  0.0000
12718SI     SI112718   2.060   9.391   9.117  0.0000  0.0000  0.0000
12719SI     SI112719   4.598   8.326   0.934  0.0000  0.0000  0.0000
12720SI     SI112720   7.289   0.286   9.372  0.0000  0.0000  0.0000
12721SI     SI112721   4.467   0.356   8.991  0.0000  0.0000  0.0000
12722SI     SI112722   7.995   7.013   8.852  0.0000  0.0000  0.0000
12723SI     SI112723   7.936   7.115   9.383  0.0000  0.0000  0.0000
12724SI     SI112724   8.595   5.211   9.076  0.0000  0.0000  0.0000
12725SI     SI112725   6.639   1.854   1.044  0.0000  0.0000  0.0000
12726SI     SI112726   3.780   2.692   9.413  0.0000  0.0000  0.0000
12727SI     SI112727   0.211   2.431   9.240  0.0000  0.0000  0.0000
12728SI     SI112728   7.362   0.872   8.624  0.0000  0.0000  0.0000
12729SI     SI112729   5.180   2.986   0.315  0.0000  0.0000  0.0000
12730SI     SI112730   7.759   7.231   0.787  0.0000  0.0000  0.0000
12731SI     SI112731   1.733   9.158   8.800  0.0000  0.0000  0.0000
12732SI     SI112732   3.887   4.336   9.343  0.0000  0.0000  0.0000
12733SI     SI112733   9.238   9.254   9.133  0.0000  0.0000  0.0000
12734SI     SI112734   2.162   1.164   9.224  0.0000  0.0000  0.0000
12735SI     SI112735   1.528   6.155   9.425  0.0000  0.0000  0.0000
12736SI     SI112736   0.261   6.522   8.648  0.0000  0.0000  0.0000
12737SI     SI112737   2.181   7.935   0.544  0.0000  0.0000  0.0000
12738SI     SI112738   4.166   0.140   8.517  0.0000  0.0000  0.0000
12739SI     SI112739   0.055   2.727   9.538  0.0000  0.0000  0.0000
12740SI     SI112740   1.993   1.065   0.058  0.0000  0.0000  0.0000
12741SI     SI112741   1.854   0.133   0.260  0.0000  0.0000  0.0000
12742SI     SI112742   2.116   5.439   9.597  0.0000  0.0000  0.0000
12743SI     SI112743   7.481   1.272   0.714  0.0000  0.0000  0.0000
12744SI     SI112744   2.879   6.763   9.193  0.0000  0.0000  0.0000
12745SI     SI112745   1.541   5.143   0.429  0.0000  0.0000  0.0000
12746SI     SI112746   4.278   9.163   0.916  0.0000  0.0000  0.0000
12747SI     SI112747   1.305   2.309   0.131  0.0000  0.0000  0.0000
12748SI     SI112748   3.114   4.902   0.713  0.0000  0.0000  0.0000
12749SI     SI112749   6.404   0.608   8.725  0.0000  0.0000  0.0000
12750SI     SI112750   5.778   0.518   0.768  0.0000  0.0000  0.0000
12751SI     SI112751   1.698   5.591   1.108  0.0000  0.0000  0.0000
12752SI     SI112752   3.691   3.676   8.986  0.0000  0.0000  0.0000
12753SI     SI112753   2.249   6.319   0.377  0.0000  0.0000  0.0000
12754SI     SI112754   1.890   8.762   0.490  0.0000  0.0000  0.0000
12755SI     SI112755   0.910   2.297   8.874  0.0000  0.0000  0.0000
12756SI     SI112756   9.421   6.314   9.145  0.0000  0.0000  0.0000
12757SI     SI112757   3.149   7.022   0.794  0.0000  0.0000  0.0000
12758SI     SI112758   5.424   1.938   8.377  0.0000  0.0000  0.0000
12759SI     SI112759   2.247   4.486   0.552  0.0000  0.0000  0.0000
12760SI     SI112760   4.827   2.473   0.536  0.0000  0.0000  0.0000
12761SI     SI112761   5.566   1.613   9.445  0.0000  0.0000  0.0000
12762SI     SI112762   4.432   5.813   8.642  0.0000  0.0000  0.0000
12763SI     SI112763   8.505   3.180   9.552  0.0000  0.0000  0.0000
12764SI     SI112764   8.049   8.095   0.169  0.0000  0.0000  0.0000
12765SI     SI112765   9.150   3.446   9.531  0.0000  0.0000  0.0000
12766SI     SI112766   6.569   8.037   8.489  0.0000  0.0000  0.0000
12767SI     SI112767   5.107   0.660   8.402  0.0000  0.0000  0.0000
12768SI     SI112768   6.845   7.429   0.899  0.0000  0.0000  0.0000
12769SI     SI112769   8.141   3.151   9.410  0.0000  0.0000  0.0000
12770SI     SI112770   2.963   9.497   9.134  0.0000  0.0000  0.0000
12771SI     SI112771   2.432   7.380   8.624  0.0000  0.0000  0.0000
12772SI     SI112772   8.146   0.586   0.153  0.0000  0.0000  0.0000
12773SI     SI112773   0.072   2.543   0.179  0.0000  0.0000  0.0000
12774SI     SI112774   3.587   8.146   0.247  0.0000  0.0000  0.0000
12775SI     SI112775   6.270   8.270   8.706  0.0000  0.0000  0.0000
12776SI     SI112776   4.455   3.346   0.697  0.0000  0.0000  0.0000
12777SI     SI112777   3.814   5.961   0.946  0.0000  0.0000  0.0000
12778SI     SI112778   6.952   2.711   0.618  0.0000  0.0000  0.0000
12779SI     SI112779   0.336   4.868   8.784  0.0000  0.0000  0.0000
12780SI     SI112780   8.499   0.835   0.468  0.0000  0.0000  0.0000
12781SI     SI112781   7.343   0.930   9.081  0.0000  0.0000  0.0000
12782SI     SI112782   4.706   3.021   0.378  0.0000  0.0000  0.0000
12783SI     SI112783   9.475   8.565   8.551  0.0000  0.0000  0.0000
12784SI     SI112784   3.946   4.179   0.618  0.0000  0.0000  0.0000
12785SI     SI112785   7.113   8.116   8.679  0.0000  0.0000  0.0000
12786SI     SI112786   5.319   7.329   0.193  0.0000  0.0000  0.0000
12787SI     SI112787   3.970   0.265   8.907  0.0000  0.0000  0.0000
12788SI     SI112788   1.384   4.187   0.691  0.0000  0.0000  0.0000
12789SI     SI112789   6.941   1.096   9.218  0.0000  0.0000  0.0000
12790SI     SI112790   8.124   0.459   0.440  0.0000  0.0000  0.0000
12791SI     SI112791   3.891   7.581   1.258  0.0000  0.0000  0.0000
12792SI     SI112792   5.412   5.807   9.349  0.0000  0.0000  0.0000
12793SI     SI112793   5.557   0.454   0.964  0.0000  0.0000  0.0000
12794SI     SI112794   6.313   3.810   8.357  0.0000  0.0000  0.0000
12795SI     SI112795   7.573   0.691   8.486  0.0000  0.0000  0.0000
12796SI     SI112796   6.431   9.350   0.279  0.0000  0.0000  0.0000
12797SI     SI112797   7.064   5.741   0.344  0.0000  0.0000  0.0000
12798SI     SI112798   8.904   3.549   1.077  0.0000  0.0000  0.0000
12799SI     SI112799   7.351   0.189   0.260  0.0000  0.0000  0.0000
12800SI     SI112800   5.881   2.910   8.806  0.0000  0.0000  0.0000
12801SI     SI112801   1.516   5.048   8.661  0.0000  0.0000  0.0000
12802SI     SI112802   0.924   6.409   0.118  0.0000  0.0000  0.0000
12803SI     SI112803   3.796   2.900   0.887  0.0000  0.0000  0.0000
12804SI     SI112804   6.081   6.077   0.317  0.0000  0.0000  0.0000
12805SI     SI112805   2.065   7.632   0.006  0.0000  0.0000  0.0000
12806SI     SI112806   5.730   7.814   9.053  0.0000  0.0000  0.0000
12807SI     SI112807   2.301   1.566   0.679  0.0000  0.0000  0.0000
12808SI     SI112808   1.984   2.959   8.627  0.0000  0.0000  0.0000
12809SI     SI112809   1.814   3.878   0.129  0.0000  0.0000  0.0000
12810SI     SI112810   5.150   5.503   9.117  0.0000  0.0000  0.0000
12811SI     SI112811   6.594   5.624   0.914  0.0000  0.0000  0.0000
12812SI     SI112812   3.319   5.730   0.200  0.0000  0.0000  0.0000
12813SI     SI112813   9.174   3.830   8.842  0.0000  0.0000  0.0000
12814SI     SI112814   0.316   0.065   8.932  0.0000  0.0000  0.0000
12815SI     SI112815   2.303   5.040   9.198  0.0000  0.0000  0.0000
12816SI     SI112816   2.102   3.993   8.774  0.0000  0.0000  0.0000
12817SI     SI112817   5.642   8.930   8.871  0.0000  0.0000  0.0000
12818SI     SI112818   6.541   0.976   9.465  0.0000  0.0000  0.0000
12819SI     SI112819   3.155   5.387   9.534  0.0000  0.0000  0.0000
12820SI     SI112820   0.875   7.493   0.614  0.0000  0.0000  0.0000
12821SI     SI112821   1.935   6.156   1.033  0.0000  0.0000  0.0000
12822SI     SI112822   9.434   2.108   0.280  0.0000  0.0000  0.0000
12823SI     SI112823   1.583   5.290   0.813  0.0000  0.0000  0.0000
12824SI     SI112824   8.347   7.087   9.272  0.0000  0.0000  0.0000
12825SI     SI112825   9.181   4.280   8.980  0.0000  0.0000  0.0000
12826SI     SI112826   1.619   8.590   0.995  0.0000  0.0000  0.0000
12827SI     SI112827   4.983   2.344   0.305  0.0000  0.0000  0.0000
12828SI     SI112828   0.398   8.448   0.763  0.0000  0.0000  0.0000
12829SI     SI112829   1.464   7.770   0.468  0.0000  0.0000  0.0000
12830SI     SI112830   4.768   9.592   0.345  0.0000  0.0000  0.0000
12831SI     SI112831   7.849   0.367   9.542  0.0000  0.0000  0.0000
12832SI     SI112832   3.357   5.786   1.085  0.0000  0.0000  0.0000
12833SI     SI112833   2.825   7.075   1.257  0.0000  0.0000  0.0000
12834SI     SI112834   4.031   1.585   0.258  0.0000  0.0000  0.0000
12835SI     SI112835   8.121   3.756   1.060  0.0000  0.0000  0.0000
12836SI     SI112836   3.447   4.516   8.686  0.0000  0.0000  0.0000
12837SI     SI112837   3.683   5.521   0.849  0.0000  0.0000  0.0000
12838SI     SI112838   1.853   8.968   0.935  0.0000  0.0000  0.0000
12839SI     SI112839   3.680   4.301   0.495  0.0000  0.0000  0.0000
12840SI     SI112840   6.627   3.803   9.023  0.0000  0.0000  0.0000
12841SI     SI112841   7.009   7.740   0.538  0.0000  0.0000  0.0000
12842SI     SI112842   1.249   5.589   8.974  0.0000  0.0000  0.0000
12843SI     SI112843   4.835   6.668   0.292  0.0000  0.0000  0.0000
12844SI     SI112844   5.695   0.824   9.039  0.0000  0.0000  0.0000
12845SI     SI112845   4.961   3.311   0.004  0.0000  0.0000  0.0000
12846SI     SI112846   9.352   4.069   0.022  0.0000  0.0000  0.0000
12847SI     SI112847   8.524   9.349   8.458  0.0000  0.0000  0.0000
12848SI     SI112848   5.261   4.564   0.701  0.0000  0.0000  0.0000
12849SI     SI112849   6.810   8.901   9.308  0.0000  0.0000  0.0000
12850SI     SI112850   2.650   2.527   9.548  0.0000  0.0000  0.0000
12851SI     SI112851   4.288   0.860   0.887  0.0000  0.0000  0.0000
12852SI     SI112852   2.746   2.642   0.689  0.0000  0.0000  0.0000
12853SI     SI112853   3.451   5.631   9.291  0.0000  0.0000  0.0000
12854SI     SI112854   6.954   9.362   8.755  0.0000  0.0000  0.0000
12855SI     SI112855   4.839   1.338   0.023  0.0000  0.0000  0.0000
12856SI     SI112856   4.718   5.899   0.225  0.0000  0.0000  0.0000
12857SI     SI112857   1.402   9.566   9.046  0.0000  0.0000  0.0000
12858SI     SI112858   6.806   6.119   0.831  0.0000  0.0000  0.0000
12859SI     SI112859   6.648   8.710   8.535  0.0000  0.0000  0.0000
12860SI     SI112860   0.918   7.362   9.390  0.0000  0.0000  0.0000
12861SI     SI112861   2.423   9.257   0.211  0.0000  0.0000  0.0000
12862SI     SI112862   3.897   8.305   0.566  0.0000  0.0000  0.0000
12863SI     SI112863   7.470   7.845   9.244  0.0000  0.0000  0.0000
12864SI     SI112864   7.161   5.211   9.534  0.0000  0.0000  0.0000
12865SI     SI112865   4.510   7.997   8.578  0.0000  0.0000  0.0000
12866SI     SI112866   6.195   2.780   8.964  0.0000  0.0000  0.0000
12867SI     SI112867   6.992   3.296   0.992  0.0000  0.0000  0.0000
12868SI     SI112868   0.507   4.925   0.654  0.0000  0.0000  0.0000
12869SI     SI112869   0.500   2.675   9.599  0.0000  0.0000  0.0000
12870SI     SI112870   0.035   2.852   9.032  0.0000  0.0000  0.0000
12871SI     SI112871   3.332   8.616   9.215  0.0000  0.0000  0.0000
12872SI     SI112872   2.344   1.384   8.760  0.0000  0.0000  0.0000
12873SI     SI112873   5.619   0.600   9.241  0.0000  0.0000  0.0000
12874SI     SI112874   2.736   5.362   9.255  0.0000  0.0000  0.0000
12875SI     SI112875   8.235   1.952   0.364  0.0000  0.0000  0.0000
12876SI     SI112876   8.755   5.612   0.683  0.0000  0.0000  0.0000
12877SI     SI112877   7.636   7.781   8.358  0.0000  0.0000  0.0000
12878SI     SI112878   3.490   4.852   9.499  0.0000  0.0000  0.0000
12879SI     SI112879   3.359   1.677   0.907  0.0000  0.0000  0.0000
12880SI     SI112880   4.019   6.744   1.083  0.0000  0.0000  0.0000
12881SI     SI112881   9.520   3.184   9.390  0.0000  0.0000  0.0000
12882SI     SI112882   4.685   6.794   1.120  0.0000  0.0000  0.0000
12883SI     SI112883   1.033   9.295   9.349  0.0000  0.0000  0.0000
12884SI     SI112884   0.965   9.465   9.093  0.0000  0.0000  0.0000
12885SI     SI112885   5.337   8.706   0.700  0.0000  0.0000  0.0000
12886SI     SI112886   6.053   1.314   0.641  0.0000  0.0000  0.0000
12887SI     SI112887   6.621   5.129   8.619  0.0000  0.0000  0.0000
12888SI     SI112888   4.127   8.304   8.790  0.0000  0.0000  0.0000
12889SI     SI112889   7.381   6.861   1.135  0.0000  0.0000  0.0000
12890SI     SI112890   0.438   6.333   8.798  0.0000  0.0000  0.0000
12891SI     SI112891   8.038   9.319   9.339  0.0000  0.0000  0.0000
12892SI     SI112892   6.726   4.436   0.103  0.0000  0.0000  0.0000
12893SI     SI112893   8.673   0.125   9.342  0.0000  0.0000  0.0000
12894SI     SI112894   0.912   0.893   9.119  0.0000  0.0000  0.0000
12895SI     SI112895   4.364   0.005   0.851  0.0000  0.0000  0.0000
12896SI     SI112896   3.887   9.599   8.572  0.0000  0.0000  0.0000
12897SI     SI112897   4.905   8.255   8.306  0.0000  0.0000  0.0000
12898SI     SI112898   1.374   9.590   9.532  0.0000  0.0000  0.0000
12899SI     SI112899   8.867   7.422   8.823  0.0000  0.0000  0.0000
12900SI     SI112900   4.097   3.401   9.232  0.0000  0.0000  0.0000
12901SI     SI112901   9.251   4.431   1.326  0.0000  0.0000  0.0000
12902SI     SI112902   4.722   4.640   0.528  0.0000  0.0000  0.0000
12903SI     SI112903   7.424   4.865   8.966  0.0000  0.0000  0.0000
12904SI     SI112904   0.050   7.655   8.461  0.0000  0.0000  0.0000
12905SI     SI112905   6.188   2.386   0.416  0.0000  0.0000  0.0000
12906SI     SI112906   7.781   8.237   9.413  0.0000  0.0000  0.0000
12907SI     SI112907   3.656   8.789   9.496  0.0000  0.0000  0.0000
12908SI     SI112908   6.220   4.178   9.246  0.0000  0.0000  0.0000
12909SI     SI112909   3.494   1.402   0.947  0.0000  0.0000  0.0000
12910SI     SI112910   2.760   4.435   0.575  0.0000  0.0000  0.0000
12911SI     SI112911   2.451   3.919   8.441  0.0000  0.0000  0.0000
12912SI     SI112912   0.666   9.484   9.032  0.0000  0.0000  0.0000
12913SI     SI112913   9.079   7.655   0.175  0.0000  0.0000  0.0000
12914SI     SI112914   8.180   2.588   8.395  0.0000  0.0000  0.0000
12915SI     SI112915   1.162   5.108   9.514  0.0000  0.0000  0.0000
12916SI     SI112916   8.327   9.581   8.510  0.0000  0.0000  0.0000
12917SI     SI112917   0.363   1.931   8.657  0.0000  0.0000  0.0000
12918SI     SI112918   7.287   8.592   8.659  0.0000  0.0000  0.0000
12919SI     SI112919   5.507   7.885   1.067  0.0000  0.0000  0.0000
12920SI     SI112920   7.634   5.888   0.721  0.0000  0.0000  0.0000
12921SI     SI112921   6.627   4.565   8.765  0.0000  0.0000  0.0000
12922SI     SI112922   3.671   3.466   9.517  0.0000  0.0000  0.0000
12923SI     SI112923   5.782   1.140   1.139  0.0000  0.0000  0.0000
12924SI     SI112924   4.789   8.655   0.544  0.0000  0.0000  0.0000
12925SI     SI112925   9.503   3.256   0.566  0.0000  0.0000  0.0000
12926SI     SI112926   5.586   8.752   9.536  0.0000  0.0000  0.0000
12927SI     SI112927   9.030   7.601   8.630  0.0000  0.0000  0.0000
12928SI     SI112928   7.522   2.307   0.370  0.0000  0.0000  0.0000
12929SI     SI112929   5.203   0.189   8.638  0.0000  0.0000  0.0000
12930SI     SI112930   1.499   2.131   9.182  0.0000  0.0000  0.0000
12931SI     SI112931   9.376   9.064   0.824  0.0000  0.0000  0.0000
12932SI     SI112932   4.108   4.017   0.418  0.0000  0.0000  0.0000
12933SI     SI112933   6.071   7.245   9.185  0.0000  0.0000  0.0000
12934SI     SI112934   5.653   6.879   0.294  0.0000  0.0000  0.0000
12935SI     SI112935   6.274   7.352   0.091  0.0000  0.0000  0.0000
12936SI     SI112936   6.122   5.763   0.327  0.0000  0.0000  0.0000
12937SI     SI112937   4.842   3.550   0.147  0.0000  0.0000  0.0000
12938SI     SI112938   7.679   4.167   0.231  0.0000  0.0000  0.0000
12939SI     SI112939   5.740   1.923   1.134  0.0000  0.0000  0.0000
12940SI     SI112940   9.028   8.282   9.506  0.0000  0.0000  0.0000
12941SI     SI112941   5.390   1.290   1.044  0.0000  0.0000  0.0000
12942SI     SI112942   2.089   3.338   8.367  0.0000  0.0000  0.0000
12943SI     SI112943   6.677   7.214   9.471  0.0000  0.0000  0.0000
12944SI     SI112944   5.351   6.564   0.146  0.0000  0.0000  0.0000
12945SI     SI112945   4.390   8.267   8.967  0.0000  0.0000  0.0000
12946SI     SI112946   9.417   2.613   9.392  0.0000  0.0000  0.0000
12947SI     SI112947   8.052   8.189   0.623  0.0000  0.0000  0.0000
12948SI     SI112948   2.596   7.633   0.815  0.0000  0.0000  0.0000
12949SI     SI112949   8.195   8.896   9.457  0.0000  0.0000  0.0000
12950SI     SI112950   6.003   1.771   0.693  0.0000  0.0000  0.0000
12951SI     SI112951   5.580   1.568   0.663  0.0000  0.0000  0.0000
12952SI     SI112952   9.568   5.921   0.940  0.0000  0.0000  0.0000
12953SI     SI112953   1.120   3.829   8.709  0.0000  0.0000  0.0000
12954SI     SI112954   2.066   1.193   0.571  0.0000  0.0000  0.0000
12955SI     SI112955   6.868   5.396   9.051  0.0000  0.0000  0.0000
12956SI     SI112956   6.859   9.346   9.329  0.0000  0.0000  0.0000
12957SI     SI112957   5.110   8.941   0.016  0.0000  0.0000  0.0000
12958SI     SI112958   1.744   7.688   0.370  0.0000  0.0000  0.0000
12959SI     SI112959   0.902   4.469   8.925  0.0000  0.0000  0.0000
12960SI     SI112960   5.997   5.022   8.494  0.0000  0.0000  0.0000
12961SI     SI112961   3.736   8.096   8.696  0.0000  0.0000  0.0000
12962SI     SI112962   7.521   6.878   8.983  0.0000  0.0000  0.0000
12963SI     SI112963   6.612   7.525   9.438  0.0000  0.0000  0.0000
12964SI     SI112964   3.196   5.117   0.928  0.0000  0.0000  0.0000
12965SI     SI112965   4.565   0.951   0.252  0.0000  0.0000  0.0000
12966SI     SI112966   4.374   2.415   0.175  0.0000  0.0000  0.0000
12967SI     SI112967   9.417   0.974   9.488  0.0000  0.0000  0.0000
12968SI     SI112968   1.607   5.877   9.524  0.0000  0.0000  0.0000
12969SI     SI112969   8.198   8.687   8.872  0.0000  0.0000  0.0000
12970SI     SI112970   1.745   3.319   8.678  0.0000  0.0000  0.0000
12971SI     SI112971   0.082   0.855   9.577  0.0000  0.0000  0.0000
12972SI     SI112972   5.790   8.812   0.453  0.0000  0.0000  0.0000
12973SI     SI112973   7.532   2.513   8.929  0.0000  0.0000  0.0000
12974SI     SI112974   7.576   2.234   8.428  0.0000  0.0000  0.0000
12975SI     SI112975   2.139   0.498   0.903  0.0000  0.0000  0.0000
12976SI     SI112976   0.886   1.559   9.504  0.0000  0.0000  0.0000
12977SI     SI112977   1.122   3.664   9.403  0.0000  0.0000  0.0000
12978SI     SI112978   2.157   5.040   8.314  0.0000  0.0000  0.0000
12979SI     SI112979   6.168   2.293   1.082  0.0000  0.0000  0.0000
12980SI     SI112980   2.764   9.116   9.330  0.0000  0.0000  0.0000
12981SI     SI112981   8.139   7.715   0.483  0.0000  0.0000  0.0000
12982SI     SI112982   3.449   9.173   0.088  0.0000  0.0000  0.0000
12983SI     SI112983   7.823   8.932   8.637  0.0000  0.0000  0.0000
12984SI     SI112984   5.963   5.235   9.204  0.0000  0.0000  0.0000
12985SI     SI112985   7.047   2.909   8.364  0.0000  0.0000  0.0000
12986SI     SI112986   6.147   8.455   0.850  0.0000  0.0000  0.0000
12987SI     SI112987   1.287   6.433   1.157  0.0000  0.0000  0.0000
12988SI     SI112988   6.443   3.175   1.040  0.0000  0.0000  0.0000
12989SI     SI112989   3.458   5.967   8.924  0.0000  0.0000  0.0000
12990SI     SI112990   1.683   2.443   0.535  0.0000  0.0000  0.0000
12991SI     SI112991   4.044   0.747   8.841  0.0000  0.0000  0.0000
12992SI     SI112992   3.177   2.526   0.531  0.0000  0.0000  0.0000
12993SI     SI112993   7.109   2.873   9.053  0.0000  0.0000  0.0000
12994SI     SI112994   7.091   6.310   9.208  0.0000  0.0000  0.0000
12995SI     SI112995   3.713   7.369   0.855  0.0000  0.0000  0.0000
12996SI     SI112996   4.882   2.860   9.523  0.0000  0.0000  0.0000
12997SI     SI112997   2.738   6.514   0.021  0.0000  0.0000  0.0000
12998SI     SI112998   2.954   9.392   1.021  0.0000  0.0000  0.0000
12999SI     SI112999   1.824   6.497   9.206  0.0000  0.0000  0.0000
13000SI     SI113000   6.599   6.753   8.470  0.0000  0.0000  0.0000
13001SI     SI113001   4.943   2.208   0.952  0.0000  0.0000  0.0000
13002SI     SI113002   7.613   3.684   0.936  0.0000  0.0000  0.0000
13003SI     SI113003   3.459   8.935   8.557  0.0000  0.0000  0.0000
13004SI     SI113004   6.596   0.853   8.726  0.0000  0.0000  0.0000
13005SI     SI113005   5.079   9.048   0.486  0.0000  0.0000  0.0000
13006SI     SI113006   7.441   4.727   9.466  0.0000  0.0000  0.0000
13007SI     SI113007   8.186   0.313   8.748  0.0000  0.0000  0.0000
13008SI     SI113008   0.745   2.467   9.256  0.0000  0.0000  0.0000
13009SI     SI113009   3.850   8.066   0.388  0.0000  0.0000  0.0000
13010SI     SI113010   2.042   9.207   0.872  0.0000  0.0000  0.0000
13011SI     SI113011   5.141   5.957   1.007  0.0000  0.0000  0.0000
13012SI     SI113012   2.076   1.193   8.413  0.0000  0.0000  0.0000
13013SI     SI113013   6.640   6.681   9.579  0.0000  0.0000  0.0000
13014SI     SI113014   7.025   2.249   1.006  0.0000  0.0000  0.0000
13015SI     SI113015   0.675   5.670   9.178  0.0000  0.0000  0.0000
13016SI     SI113016   6.501   5.713   9.038  0.0000  0.0000  0.0000
13017SI     SI113017   6.907   2.292   8.530  0.0000  0.0000  0.0000
13018SI     SI113018   0.222   1.480   0.599  0.0000  0.0000  0.0000
13019SI     SI113019   8.911   4.758   1.222  0.0000  0.0000  0.0000
13020SI     SI113020   8.112   8.398   0.077  0.0000  0.0000  0.0000
13021SI     SI113021   3.350   3.243   9.310  0.0000  0.0000  0.0000
13022SI     SI113022   9.581   3.887   0.606  0.0000  0.0000  0.0000
13023SI     SI113023   5.099   7.640   8.880  0.0000  0.0000  0.0000
13024SI     SI113024   5.165   6.108   0.071  0.0000  0.0000  0.0000
13025SI     SI113025   3.112   5.695   9.567  0.0000  0.0000  0.0000
13026SI     SI113026   0.109   8.560   0.785  0.0000  0.0000  0.0000
13027SI     SI113027   7.501   8.499   0.936  0.0000  0.0000  0.0000
13028SI     SI113028   2.166   2.906   0.819  0.0000  0.0000  0.0000
13029SI     SI113029   6.187   1.065   0.790  0.0000  0.0000  0.0000
13030SI     SI113030   2.605   9.554   0.409  0.0000  0.0000  0.0000
13031SI     SI113031   0.048   5.209   9.010  0.0000  0.0000  0.0000
13032SI     SI113032   8.639   9.036   8.877  0.0000  0.0000  0.0000
13033SI     SI113033   4.394   6.128   0.143  0.0000  0.0000  0.0000
13034SI     SI113034   6.156   5.701   0.922  0.0000  0.0000  0.0000
13035SI     SI113035   2.273   8.868   0.829  0.0000  0.0000  0.0000
13036SI     SI113036   0.164   0.514   1.172  0.0000  0.0000  0.0000
13037SI     SI113037   0.995   4.493   0.069  0.0000  0.0000  0.0000
13038SI     SI113038   3.552   1.694   9.550  0.0000  0.0000  0.0000
13039SI     SI113039   2.902   6.939   0.614  0.0000  0.0000  0.0000
13040SI     SI113040   3.728   0.887   9.110  0.0000  0.0000  0.0000
13041SI     SI113041   0.932   2.582   0.914  0.0000  0.0000  0.0000
13042SI     SI113042   6.269   5.606   1.182  0.0000  0.0000  0.0000
13043SI     SI113043   9.138   6.990   0.114  0.0000  0.0000  0.0000
13044SI     SI113044   0.717   0.814   8.644  0.0000  0.0000  0.0000
13045SI     SI113045   7.100   7.226   0.555  0.0000  0.0000  0.0000
13046SI     SI113046   7.780   4.009   9.000  0.0000  0.0000  0.0000
13047SI     SI113047   3.658   3.274   0.159  0.0000  0.0000  0.0000
13048SI     SI113048   3.361   5.676   8.599  0.0000  0.0000  0.0000
13049SI     SI113049   1.026   1.107   9.323  0.0000  0.0000  0.0000
13050SI     SI113050   2.591   9.100   8.883  0.0000  0.0000  0.0000
13051SI     SI113051   4.285   6.600   1.052  0.0000  0.0000  0.0000
13052SI     SI113052   4.337   3.417   1.124  0.0000  0.0000  0.0000
13053SI     SI113053   1.144   6.129   8.356  0.0000  0.0000  0.0000
13054SI     SI113054   5.022   0.106   8.401  0.0000  0.0000  0.0000
13055SI     SI113055   2.499   2.691   0.332  0.0000  0.0000  0.0000
13056SI     SI113056   3.341   2.842   8.682  0.0000  0.0000  0.0000
13057SI     SI113057   6.610   2.161   0.220  0.0000  0.0000  0.0000
13058SI     SI113058   5.247   3.267   0.412  0.0000  0.0000  0.0000
13059SI     SI113059   7.144   2.428   8.372  0.0000  0.0000  0.0000
13060SI     SI113060   3.416   6.176   8.439  0.0000  0.0000  0.0000
13061SI     SI113061   2.889   1.626   9.127  0.0000  0.0000  0.0000
13062SI     SI113062   1.771   2.741   0.465  0.0000  0.0000  0.0000
13063SI     SI113063   1.157   5.176   0.755  0.0000  0.0000  0.0000
13064SI     SI113064   8.718   4.393   0.284  0.0000  0.0000  0.0000
13065SI     SI113065   3.357   6.667   8.756  0.0000  0.0000  0.0000
13066SI     SI113066   3.622   3.494   0.811  0.0000  0.0000  0.0000
13067SI     SI113067   0.805   9.114   9.455  0.0000  0.0000  0.0000
13068SI     SI113068   7.632   3.466   8.949  0.0000  0.0000  0.0000
13069SI     SI113069   0.239   0.111   9.239  0.0000  0.0000  0.0000
13070SI     SI113070   4.463   7.871   9.266  0.0000  0.0000  0.0000
13071SI     SI113071   8.949   9.478   1.003  0.0000  0.0000  0.0000
13072SI     SI113072   2.430   4.601   0.945  0.0000  0.0000  0.0000
13073SI     SI113073   1.019   0.858   0.552  0.0000  0.0000  0.0000
13074SI     SI113074   3.390   7.269   9.594  0.0000  0.0000  0.0000
13075SI     SI113075   3.304   2.279   0.923  0.0000  0.0000  0.0000
13076SI     SI113076   3.058   4.441   0.589  0.0000  0.0000  0.0000
13077SI     SI113077   0.652   3.039   1.139  0.0000  0.0000  0.0000
13078SI     SI113078   7.441   2.251   9.340  0.0000  0.0000  0.0000
13079SI     SI113079   9.121   2.303   9.097  0.0000  0.0000  0.0000
13080SI     SI113080   7.397   3.650   0.210  0.0000  0.0000  0.0000
13081SI     SI113081   6.631   0.296   0.488  0.0000  0.0000  0.0000
13082SI     SI113082   2.390   8.596   0.760  0.0000  0.0000  0.0000
13083SI     SI113083   4.673   5.919   9.353  0.0000  0.0000  0.0000
13084SI     SI113084   2.739   1.443   0.683  0.0000  0.0000  0.0000
13085SI     SI113085   3.286   0.868   1.001  0.0000  0.0000  0.0000
13086SI     SI113086   4.027   8.820   1.027  0.0000  0.0000  0.0000
13087SI     SI113087   8.381   1.290   0.077  0.0000  0.0000  0.0000
13088SI     SI113088   3.251   7.308   0.732  0.0000  0.0000  0.0000
13089SI     SI113089   7.132   2.543   1.037  0.0000  0.0000  0.0000
13090SI     SI113090   1.691   6.840   0.869  0.0000  0.0000  0.0000
13091SI     SI113091   0.056   5.262   0.435  0.0000  0.0000  0.0000
13092SI     SI113092   6.659   7.662   0.830  0.0000  0.0000  0.0000
13093SI     SI113093   6.906   9.537   0.929  0.0000  0.0000  0.0000
13094SI     SI113094   1.280   7.128   9.413  0.0000  0.0000  0.0000
13095SI     SI113095   2.169   3.704   8.796  0.0000  0.0000  0.0000
13096SI     SI113096   3.577   4.542   0.675  0.0000  0.0000  0.0000
13097SI     SI113097   1.645   6.734   8.850  0.0000  0.0000  0.0000
13098SI     SI113098   2.199   7.015   0.760  0.0000  0.0000  0.0000
13099SI     SI113099   1.407   5.721   0.036  0.0000  0.0000  0.0000
13100SI     SI113100   5.071   6.312   8.915  0.0000  0.0000  0.0000
13101SI     SI113101   0.551   9.280   0.307  0.0000  0.0000  0.0000
13102SI     SI113102   7.642   9.158   0.223  0.0000  0.0000  0.0000
13103SI     SI113103   7.947   6.929   0.278  0.0000  0.0000  0.0000
13104SI     SI113104   2.571   0.247   0.899  0.0000  0.0000  0.0000
13105SI     SI113105   1.345   1.601   0.374  0.0000  0.0000  0.0000
13106SI     SI113106   1.557   6.901   0.447  0.0000  0.0000  0.0000
13107SI     SI113107   4.119   6.777   9.060  0.0000  0.0000  0.0000
13108SI     SI113108   5.529   8.695   9.002  0.0000  0.0000  0.0000
13109SI     SI113109   9.125   4.634   0.379  0.0000  0.0000  0.0000
13110SI     SI113110   5.870   9.411   8.520  0.0000  0.0000  0.0000
13111SI     SI113111   1.829   1.383   0.654  0.0000  0.0000  0.0000
13112SI     SI113112   2.301   4.996   8.567  0.0000  0.0000  0.0000
13113SI     SI113113   2.156   7.748   8.672  0.0000  0.0000  0.0000
13114SI     SI113114   5.183   0.722   9.531  0.0000  0.0000  0.0000
13115SI     SI113115   6.814   0.057   9.341  0.0000  0.0000  0.0000
13116SI     SI113116   5.438   5.946   0.025  0.0000  0.0000  0.0000
13117SI     SI113117   4.558   7.072   8.853  0.0000  0.0000  0.0000
13118SI     SI113118   1.264   5.619   8.427  0.0000  0.0000  0.0000
13119SI     SI113119   6.618   3.534   9.366  0.0000  0.0000  0.0000
13120SI     SI113120   0.741   3.352   9.246  0.0000  0.0000  0.0000
13121SI     SI113121   6.469   1.026   8.959  0.0000  0.0000  0.0000
13122SI     SI113122   3.687   1.609   1.092  0.0000  0.0000  0.0000
13123SI     SI113123   3.399   0.337   0.873  0.0000  0.0000  0.0000
13124SI     SI113124   6.471   4.888   9.486  0.0000  0.0000  0.0000
13125SI     SI113125   4.224   6.831   8.788  0.0000  0.0000  0.0000
13126SI     SI113126   9.023   3.480   8.519  0.0000  0.0000  0.0000
13127SI     SI113127   2.422   5.181   0.430  0.0000  0.0000  0.0000
13128SI     SI113128   6.836   7.409   0.207  0.0000  0.0000  0.0000
13129SI     SI113129   9.033   1.794   0.795  0.0000  0.0000  0.0000
13130SI     SI113130   8.541   3.696   1.244  0.0000  0.0000  0.0000
13131SI     SI113131   4.859   1.830   0.237  0.0000  0.0000  0.0000
13132SI     SI113132   3.474   6.174   9.450  0.0000  0.0000  0.0000
13133SI     SI113133   4.826   4.736   0.244  0.0000  0.0000  0.0000
13134SI     SI113134   9.214   1.218   9.141  0.0000  0.0000  0.0000
13135SI     SI113135   7.826   9.040   1.006  0.0000  0.0000  0.0000
13136SI     SI113136   1.272   3.152   0.449  0.0000  0.0000  0.0000
13137SI     SI113137   9.054   3.337   8.991  0.0000  0.0000  0.0000
13138SI     SI113138   2.216   4.534   9.523  0.0000  0.0000  0.0000
13139SI     SI113139   3.514   1.924   9.156  0.0000  0.0000  0.0000
13140SI     SI113140   6.966   8.619   8.870  0.0000  0.0000  0.0000
13141SI     SI113141   0.159   3.684   0.764  0.0000  0.0000  0.0000
13142SI     SI113142   4.561   3.437   9.305  0.0000  0.0000  0.0000
13143SI     SI113143   2.548   6.673   0.490  0.0000  0.0000  0.0000
13144SI     SI113144   9.185   9.318   0.475  0.0000  0.0000  0.0000
13145SI     SI113145   0.116   6.768   8.388  0.0000  0.0000  0.0000
13146SI     SI113146   2.610   7.256   1.110  0.0000  0.0000  0.0000
13147SI     SI113147   1.387   2.310   0.880  0.0000  0.0000  0.0000
13148SI     SI113148   5.124   0.201   9.535  0.0000  0.0000  0.0000
13149SI     SI113149   6.588   1.272   9.528  0.0000  0.0000  0.0000
13150SI     SI113150   1.856   8.339   9.294  0.0000  0.0000  0.0000
13151SI     SI113151   3.845   1.462   8.695  0.0000  0.0000  0.0000
13152SI     SI113152   2.160   4.450   0.854  0.0000  0.0000  0.0000
13153SI     SI113153   3.569   7.873   8.568  0.0000  0.0000  0.0000
13154SI     SI113154   5.491   7.490   8.484  0.0000  0.0000  0.0000
13155SI     SI113155   5.039   2.652   9.357  0.0000  0.0000  0.0000
13156SI     SI113156   0.110   7.845   8.707  0.0000  0.0000  0.0000
13157SI     SI113157   0.583   0.006   9.538  0.0000  0.0000  0.0000
13158SI     SI113158   4.304   2.332   1.003  0.0000  0.0000  0.0000
13159SI     SI113159   6.934   8.860   9.586  0.0000  0.0000  0.0000
13160SI     SI113160   0.549   3.531   9.061  0.0000  0.0000  0.0000
13161SI     SI113161   1.722   8.257   8.622  0.0000  0.0000  0.0000
13162SI     SI113162   3.280   3.056   8.453  0.0000  0.0000  0.0000
13163SI     SI113163   9.574   5.497   0.060  0.0000  0.0000  0.0000
13164SI     SI113164   2.074   7.852   9.389  0.0000  0.0000  0.0000
13165SI     SI113165   0.891   3.296   0.753  0.0000  0.0000  0.0000
13166SI     SI113166   7.628   0.007   8.494  0.0000  0.0000  0.0000
13167SI     SI113167   9.369   7.230   0.838  0.0000  0.0000  0.0000
13168SI     SI113168   9.467   6.756   0.440  0.0000  0.0000  0.0000
13169SI     SI113169   6.565   8.847   0.217  0.0000  0.0000  0.0000
13170SI     SI113170   0.393   5.424   0.940  0.0000  0.0000  0.0000
13171SI     SI113171   6.772   1.205   0.395  0.0000  0.0000  0.0000
13172SI     SI113172   5.722   3.712   9.301  0.0000  0.0000  0.0000
13173SI     SI113173   8.732   2.519   1.252  0.0000  0.0000  0.0000
13174SI     SI113174   6.429   6.457   9.548  0.0000  0.0000  0.0000
13175SI     SI113175   2.781   8.444   0.455  0.0000  0.0000  0.0000
13176SI     SI113176   3.281   8.407   8.979  0.0000  0.0000  0.0000
13177SI     SI113177   8.385   1.108   0.558  0.0000  0.0000  0.0000
13178SI     SI113178   0.922   5.728   9.357  0.0000  0.0000  0.0000
13179SI     SI113179   9.259   5.141   0.003  0.0000  0.0000  0.0000
13180SI     SI113180   6.899   5.518   8.478  0.0000  0.0000  0.0000
13181SI     SI113181   8.556   4.661   0.346  0.0000  0.0000  0.0000
13182SI     SI113182   0.933   7.396   8.842  0.0000  0.0000  0.0000
13183SI     SI113183   9.227   8.108   0.242  0.0000  0.0000  0.0000
13184SI     SI113184   3.082   4.786   9.566  0.0000  0.0000  0.0000
13185SI     SI113185   9.215   9.465   1.143  0.0000  0.0000  0.0000
13186SI     SI113186   7.233   0.297   0.749  0.0000  0.0000  0.0000
13187SI     SI113187   0.678   1.596   0.807  0.0000  0.0000  0.0000
13188SI     SI113188   9.358   3.263   0.297  0.0000  0.0000  0.0000
13189SI     SI113189   7.063   9.090   0.395  0.0000  0.0000  0.0000
13190SI     SI113190   3.373   1.008   0.729  0.0000  0.0000  0.0000
13191SI     SI113191   2.002   5.531   1.120  0.0000  0.0000  0.0000
13192SI     SI113192   3.796   2.383   9.017  0.0000  0.0000  0.0000
13193SI     SI113193   7.040   2.257   0.268  0.0000  0.0000  0.0000
13194SI     SI113194   6.997   5.787   9.277  0.0000  0.0000  0.0000
13195SI     SI113195   8.250   7.213   0.658  0.0000  0.0000  0.0000
13196SI     SI113196   2.087   4.086   0.691  0.0000  0.0000  0.0000
13197SI     SI113197   2.115   6.554   0.756  0.0000  0.0000  0.0000
13198SI     SI113198   3.171   4.229   0.248  0.0000  0.0000  0.0000
13199SI     SI113199   5.292   3.458   8.388  0.0000  0.0000  0.0000
13200SI     SI113200   8.896   8.561   8.997  0.0000  0.0000  0.0000
13201SI     SI113201   3.318   4.753   8.984  0.0000  0.0000  0.0000
13202SI     SI113202   3.906   4.979   8.830  0.0000  0.0000  0.0000
13203SI     SI113203   6.056   3.157   9.290  0.0000  0.0000  0.0000
13204SI     SI113204   7.808   1.092   9.330  0.0000  0.0000  0.0000
13205SI     SI113205   4.961   4.146   0.346  0.0000  0.0000  0.0000
13206SI     SI113206   0.876   4.014   0.898  0.0000  0.0000  0.0000
13207SI     SI113207   8.810   4.510   0.011  0.0000  0.0000  0.0000
13208SI     SI113208   5.671   2.412   0.179  0.0000  0.0000  0.0000
13209SI     SI113209   3.496   4.008   1.052  0.0000  0.0000  0.0000
13210SI     SI113210   8.193   1.636   8.207  0.0000  0.0000  0.0000
13211SI     SI113211   5.501   3.802   8.783  0.0000  0.0000  0.0000
13212SI     SI113212   9.372   5.279   8.573  0.0000  0.0000  0.0000
13213SI     SI113213   2.208   3.596   0.659  0.0000  0.0000  0.0000
13214SI     SI113214   7.508   7.614   9.054  0.0000  0.0000  0.0000
13215SI     SI113215   0.580   4.619   9.584  0.0000  0.0000  0.0000
13216SI     SI113216   7.783   5.629   8.889  0.0000  0.0000  0.0000
13217SI     SI113217   5.121   0.674   0.990  0.0000  0.0000  0.0000
13218SI     SI113218   2.592   4.050   9.529  0.0000  0.0000  0.0000
13219SI     SI113219   2.722   4.668   8.964  0.0000  0.0000  0.0000
13220SI     SI113220   2.416   1.461   8.459  0.0000  0.0000  0.0000
13221SI     SI113221   3.929   5.126   0.846  0.0000  0.0000  0.0000
13222SI     SI113222   6.361   9.413   8.491  0.0000  0.0000  0.0000
13223SI     SI113223   5.234   4.424   9.051  0.0000  0.0000  0.0000
13224SI     SI113224   4.840   1.969   9.088  0.0000  0.0000  0.0000
13225SI     SI113225   4.847   6.004   8.783  0.0000  0.0000  0.0000
13226SI     SI113226   8.651   1.118   8.720  0.0000  0.0000  0.0000
13227SI     SI113227   2.047   7.347   9.467  0.0000  0.0000  0.0000
13228SI     SI113228   1.572   8.268   0.145  0.0000  0.0000  0.0000
13229SI     SI113229   7.204   9.529   0.218  0.0000  0.0000  0.0000
13230SI     SI113230   1.173   9.543   0.924  0.0000  0.0000  0.0000
13231SI     SI113231   1.449   7.640   0.943  0.0000  0.0000  0.0000
13232SI     SI113232   4.921   7.387   8.950  0.0000  0.0000  0.0000
13233SI     SI113233   8.365   8.126   1.009  0.0000  0.0000  0.0000
13234SI     SI113234   2.223   8.607   8.741  0.0000  0.0000  0.0000
13235SI     SI113235   3.783   6.604   8.840  0.0000  0.0000  0.0000
13236SI     SI113236   1.019   6.642   0.923  0.0000  0.0000  0.0000
13237SI     SI113237   3.874   6.208   8.597  0.0000  0.0000  0.0000
13238SI     SI113238   5.189   7.763   0.759  0.0000  0.0000  0.0000
13239SI     SI113239   6.141   2.628   0.594  0.0000  0.0000  0.0000
13240SI     SI113240   2.871   5.389   0.265  0.0000  0.0000  0.0000
13241SI     SI113241   7.591   1.276   8.575  0.0000  0.0000  0.0000
13242SI     SI113242   1.864   6.677   0.679  0.0000  0.0000  0.0000
13243SI     SI113243   2.816   8.915   0.708  0.0000  0.0000  0.0000
13244SI     SI113244   7.276   0.657   0.404  0.0000  0.0000  0.0000
13245SI     SI113245   4.231   6.028   9.004  0.0000  0.0000  0.0000
13246SI     SI113246   6.960   5.010   9.021  0.0000  0.0000  0.0000
13247SI     SI113247   7.880   4.590   0.208  0.0000  0.0000  0.0000
13248SI     SI113248   5.406   8.404   1.143  0.0000  0.0000  0.0000
13249SI     SI113249   0.477   2.416   9.420  0.0000  0.0000  0.0000
13250SI     SI113250   2.529   9.357   1.145  0.0000  0.0000  0.0000
13251SI     SI113251   5.361   7.971   8.856  0.0000  0.0000  0.0000
13252SI     SI113252   8.253   3.449   9.010  0.0000  0.0000  0.0000
13253SI     SI113253   3.591   5.993   1.132  0.0000  0.0000  0.0000
13254SI     SI113254   9.512   4.570   1.305  0.0000  0.0000  0.0000
13255SI     SI113255   3.642   6.660   9.344  0.0000  0.0000  0.0000
13256SI     SI113256   5.482   1.421   8.518  0.0000  0.0000  0.0000
13257SI     SI113257   2.905   7.827   9.251  0.0000  0.0000  0.0000
13258SI     SI113258   6.134   8.771   0.818  0.0000  0.0000  0.0000
13259SI     SI113259   2.334   1.328   0.505  0.0000  0.0000  0.0000
13260SI     SI113260   5.833   4.770   9.075  0.0000  0.0000  0.0000
13261SI     SI113261   2.554   6.907   8.471  0.0000  0.0000  0.0000
13262SI     SI113262   0.036   3.022   0.005  0.0000  0.0000  0.0000
13263SI     SI113263   7.303   9.511   9.535  0.0000  0.0000  0.0000
13264SI     SI113264   1.731   3.751   9.471  0.0000  0.0000  0.0000
13265SI     SI113265   6.076   3.897   0.124  0.0000  0.0000  0.0000
13266SI     SI113266   5.501   3.014   1.222  0.0000  0.0000  0.0000
13267SI     SI113267   5.920   5.773   8.514  0.0000  0.0000  0.0000
13268SI     SI113268   2.775   5.775   8.608  0.0000  0.0000  0.0000
13269SI     SI113269   0.912   1.548   0.214  0.0000  0.0000  0.0000
13270SI     SI113270   1.203   8.025   0.785  0.0000  0.0000  0.0000
13271SI     SI113271   7.536   2.667   8.676  0.0000  0.0000  0.0000
13272SI     SI113272   3.047   1.288   9.474  0.0000  0.0000  0.0000
13273SI     SI113273   7.368   2.544   0.821  0.0000  0.0000  0.0000
13274SI     SI113274   0.436   1.692   9.397  0.0000  0.0000  0.0000
13275SI     SI113275   6.993   2.094   8.743  0.0000  0.0000  0.0000
13276SI     SI113276   4.774   9.025   0.866  0.0000  0.0000  0.0000
13277SI     SI113277   3.009   4.421   8.548  0.0000  0.0000  0.0000
13278SI     SI113278   2.070   1.292   8.707  0.0000  0.0000  0.0000
13279SI     SI113279   8.216   3.688   8.825  0.0000  0.0000  0.0000
13280SI     SI113280   1.175   0.865   1.042  0.0000  0.0000  0.0000
13281SI     SI113281   9.542   9.364   8.748  0.0000  0.0000  0.0000
13282SI     SI113282   2.262   0.016   9.039  0.0000  0.0000  0.0000
13283SI     SI113283   9.391   4.046   8.935  0.0000  0.0000  0.0000
13284SI     SI113284   7.394   5.381   0.472  0.0000  0.0000  0.0000
13285SI     SI113285   2.154   4.297   8.502  0.0000  0.0000  0.0000
13286SI     SI113286   7.894   0.663   9.573  0.0000  0.0000  0.0000
13287SI     SI113287   6.437   2.409   0.246  0.0000  0.0000  0.0000
13288SI     SI113288   8.124   5.284   9.129  0.0000  0.0000  0.0000
13289SI     SI113289   9.101   1.271   0.013  0.0000  0.0000  0.0000
13290SI     SI113290   7.917   0.750   1.047  0.0000  0.0000  0.0000
13291SI     SI113291   1.099   9.081   8.991  0.0000  0.0000  0.0000
13292SI     SI113292   0.144   9.031   1.259  0.0000  0.0000  0.0000
13293SI     SI113293   1.308   0.490   1.254  0.0000  0.0000  0.0000
13294SI     SI113294   4.477   9.550   8.843  0.0000  0.0000  0.0000
13295SI     SI113295   8.851   3.816   9.427  0.0000  0.0000  0.0000
13296SI     SI113296   5.436   0.557   0.357  0.0000  0.0000  0.0000
13297SI     SI113297   4.736   4.778   1.014  0.0000  0.0000  0.0000
13298SI     SI113298   4.271   7.348   0.111  0.0000  0.0000  0.0000
13299SI     SI113299   0.452   1.949   8.957  0.0000  0.0000  0.0000
13300SI     SI113300   0.710   4.633   9.110  0.0000  0.0000  0.0000
13301SI     SI113301   5.440   2.526   8.351  0.0000  0.0000  0.0000
13302SI     SI113302   5.428   7.935   0.641  0.0000  0.0000  0.0000
13303SI     SI113303   6.258   7.667   0.655  0.0000  0.0000  0.0000
13304SI     SI113304   1.283   7.750   0.713  0.0000  0.0000  0.0000
13305SI     SI113305   3.315   9.034   0.890  0.0000  0.0000  0.0000
13306SI     SI113306   0.300   4.466   0.578  0.0000  0.0000  0.0000
13307SI     SI113307   5.651   1.572   8.981  0.0000  0.0000  0.0000
13308SI     SI113308   0.254   7.003   0.694  0.0000  0.0000  0.0000
13309SI     SI113309   1.497   3.476   9.189  0.0000  0.0000  0.0000
13310SI     SI113310   7.670   4.693   9.250  0.0000  0.0000  0.0000
13311SI     SI113311   1.088   9.492   9.597  0.0000  0.0000  0.0000
13312SI     SI113312   5.604   1.902   0.149  0.0000  0.0000  0.0000
13313SI     SI113313   3.966   1.203   8.828  0.0000  0.0000  0.0000
13314SI     SI113314   7.130   7.640   8.699  0.0000  0.0000  0.0000
13315SI     SI113315   3.178   2.229   9.068  0.0000  0.0000  0.0000
13316SI     SI113316   4.730   3.438   8.407  0.0000  0.0000  0.0000
13317SI     SI113317   8.288   6.717   0.728  0.0000  0.0000  0.0000
13318SI     SI113318   0.179   9.103   0.964  0.0000  0.0000  0.0000
13319SI     SI113319   4.638   1.538   9.147  0.0000  0.0000  0.0000
13320SI     SI113320   2.820   7.944   0.386  0.0000  0.0000  0.0000
13321SI     SI113321   1.522   7.272   9.306  0.0000  0.0000  0.0000
13322SI     SI113322   4.318   7.979   0.360  0.0000  0.0000  0.0000
13323SI     SI113323   1.468   8.726   1.227  0.0000  0.0000  0.0000
13324SI     SI113324   0.249   5.507   0.434  0.0000  0.0000  0.0000
13325SI     SI113325   5.151   2.448   8.989  0.0000  0.0000  0.0000
13326SI     SI113326   2.572   3.089   0.063  0.0000  0.0000  0.0000
13327SI     SI113327   0.789   9.484   0.611  0.0000  0.0000  0.0000
13328SI     SI113328   3.255   4.274   8.638  0.0000  0.0000  0.0000
13329SI     SI113329   0.890   8.216   0.268  0.0000  0.0000  0.0000
13330SI     SI113330   6.611   5.311   0.496  0.0000  0.0000  0.0000
13331SI     SI113331   6.262   8.220   0.680  0.0000  0.0000  0.0000
13332SI     SI113332   2.570   5.180   9.096  0.0000  0.0000  0.0000
13333SI     SI113333   2.170   3.023   9.286  0.0000  0.0000  0.0000
13334SI     SI113334   1.553   8.632   9.193  0.0000  0.0000  0.0000
13335SI     SI113335   8.182   7.116   0.361  0.0000  0.0000  0.0000
13336SI     SI113336   1.000   3.156   8.712  0.0000  0.0000  0.0000
13337SI     SI113337   0.987   5.446   8.859  0.0000  0.0000  0.0000
13338SI     SI113338   5.653   2.019   0.420  0.0000  0.0000  0.0000
13339SI     SI113339   7.570   3.717   9.300  0.0000  0.0000  0.0000
13340SI     SI113340   5.387   8.263   9.443  0.0000  0.0000  0.0000
13341SI     SI113341   2.869   0.346   1.146  0.0000  0.0000  0.0000
13342SI     SI113342   1.100   0.518   9.441  0.0000  0.0000  0.0000
13343SI     SI113343   8.248   3.202   0.711  0.0000  0.0000  0.0000
13344SI     SI113344   6.963   8.104   8.957  0.0000  0.0000  0.0000
13345SI     SI113345   8.461   3.759   8.637  0.0000  0.0000  0.0000
13346SI     SI113346   3.593   6.809   0.545  0.0000  0.0000  0.0000
13347SI     SI113347   7.275   5.514   9.525  0.0000  0.0000  0.0000
13348SI     SI113348   3.176   5.783   9.288  0.0000  0.0000  0.0000
13349SI     SI113349   3.089   0.063   0.718  0.0000  0.0000  0.0000
13350SI     SI113350   1.153   6.745   8.424  0.0000  0.0000  0.0000
13351SI     SI113351   2.905   4.661   8.709  0.0000  0.0000  0.0000
13352SI     SI113352   5.752   7.417   1.110  0.0000  0.0000  0.0000
13353SI     SI113353   8.511   6.333   0.603  0.0000  0.0000  0.0000
13354SI     SI113354   5.581   4.815   0.053  0.0000  0.0000  0.0000
13355SI     SI113355   5.151   2.552   8.409  0.0000  0.0000  0.0000
13356SI     SI113356   5.351   8.672   1.005  0.0000  0.0000  0.0000
13357SI     SI113357   0.500   6.324   9.419  0.0000  0.0000  0.0000
13358SI     SI113358   1.745   3.617   8.693  0.0000  0.0000  0.0000
13359SI     SI113359   3.170   2.579   8.695  0.0000  0.0000  0.0000
13360SI     SI113360   3.359   8.046   8.450  0.0000  0.0000  0.0000
13361SI     SI113361   8.822   9.460   9.094  0.0000  0.0000  0.0000
13362SI     SI113362   3.092   2.092   0.822  0.0000  0.0000  0.0000
13363SI     SI113363   4.950   3.988   1.152  0.0000  0.0000  0.0000
13364SI     SI113364   0.092   1.221   8.603  0.0000  0.0000  0.0000
13365SI     SI113365   5.535   0.984   0.632  0.0000  0.0000  0.0000
13366SI     SI113366   6.537   2.297   8.787  0.0000  0.0000  0.0000
13367SI     SI113367   0.483   0.234   9.360  0.0000  0.0000  0.0000
13368SI     SI113368   5.945   8.967   0.677  0.0000  0.0000  0.0000
13369SI     SI113369   1.429   0.991   9.051  0.0000  0.0000  0.0000
13370SI     SI113370   7.852   5.446   9.134  0.0000  0.0000  0.0000
13371SI     SI113371   0.992   0.652   8.620  0.0000  0.0000  0.0000
13372SI     SI113372   8.225   8.017   0.425  0.0000  0.0000  0.0000
13373SI     SI113373   0.486   4.084   0.074  0.0000  0.0000  0.0000
13374SI     SI113374   1.043   5.821   0.645  0.0000  0.0000  0.0000
13375SI     SI113375   4.496   4.441   0.436  0.0000  0.0000  0.0000
13376SI     SI113376   2.075   6.511   8.756  0.0000  0.0000  0.0000
13377SI     SI113377   9.297   0.738   8.498  0.0000  0.0000  0.0000
13378SI     SI113378   3.219   8.671   1.187  0.0000  0.0000  0.0000
13379SI     SI113379   1.249   6.468   0.869  0.0000  0.0000  0.0000
13380SI     SI113380   3.232   0.146   0.017  0.0000  0.0000  0.0000
13381SI     SI113381   6.046   2.686   9.371  0.0000  0.0000  0.0000
13382SI     SI113382   0.064   7.608   8.906  0.0000  0.0000  0.0000
13383SI     SI113383   6.283   7.458   8.542  0.0000  0.0000  0.0000
13384SI     SI113384   6.319   3.145   0.758  0.0000  0.0000  0.0000
13385SI     SI113385   8.246   4.901   0.927  0.0000  0.0000  0.0000
13386SI     SI113386   8.472   6.236   0.880  0.0000  0.0000  0.0000
13387SI     SI113387   3.174   9.270   0.221  0.0000  0.0000  0.0000
13388SI     SI113388   4.580   6.406   9.224  0.0000  0.0000  0.0000
13389SI     SI113389   7.124   0.702   8.663  0.0000  0.0000  0.0000
13390SI     SI113390   6.146   6.075   0.003  0.0000  0.0000  0.0000
13391SI     SI113391   8.618   5.372   9.521  0.0000  0.0000  0.0000
13392SI     SI113392   5.805   8.556   1.088  0.0000  0.0000  0.0000
13393SI     SI113393   9.504   2.721   0.369  0.0000  0.0000  0.0000
13394SI     SI113394   3.324   8.194   9.189  0.0000  0.0000  0.0000
13395SI     SI113395   8.339   4.759   0.150  0.0000  0.0000  0.0000
13396SI     SI113396   6.857   4.729   0.891  0.0000  0.0000  0.0000
13397SI     SI113397   5.537   3.289   9.392  0.0000  0.0000  0.0000
13398SI     SI113398   7.137   9.228   8.976  0.0000  0.0000  0.0000
13399SI     SI113399   2.683   2.993   0.999  0.0000  0.0000  0.0000
13400SI     SI113400   9.479   6.961   0.964  0.0000  0.0000  0.0000
13401SI     SI113401   9.260   3.677   8.578  0.0000  0.0000  0.0000
13402SI     SI113402   3.806   6.386   0.569  0.0000  0.0000  0.0000
13403SI     SI113403   8.228   5.099   8.455  0.0000  0.0000  0.0000
13404SI     SI113404   1.360   6.609   9.522  0.0000  0.0000  0.0000
13405SI     SI113405   6.249   8.711   8.870  0.0000  0.0000  0.0000
13406SI     SI113406   0.760   5.789   0.611  0.0000  0.0000  0.0000
13407SI     SI113407   1.015   5.004   0.425  0.0000  0.0000  0.0000
13408SI     SI113408   9.511   7.798   0.213  0.0000  0.0000  0.0000
13409SI     SI113409   7.590   3.678   9.596  0.0000  0.0000  0.0000
13410SI     SI113410   1.666   7.463   0.853  0.0000  0.0000  0.0000
13411SI     SI113411   5.950   9.389   9.308  0.0000  0.0000  0.0000
13412SI     SI113412   1.605   4.670   0.699  0.0000  0.0000  0.0000
13413SI     SI113413   1.897   1.702   1.040  0.0000  0.0000  0.0000
13414SI     SI113414   7.095   0.024   0.731  0.0000  0.0000  0.0000
13415SI     SI113415   8.842   1.486   9.232  0.0000  0.0000  0.0000
13416SI     SI113416   4.282   3.118   0.647  0.0000  0.0000  0.0000
13417SI     SI113417   1.878   9.130   8.529  0.0000  0.0000  0.0000
13418SI     SI113418   2.517   8.610   8.735  0.0000  0.0000  0.0000
13419SI     SI113419   2.597   1.520   9.097  0.0000  0.0000  0.0000
13420SI     SI113420   0.296   5.885   0.664  0.0000  0.0000  0.0000
13421SI     SI113421   5.505   8.221   8.756  0.0000  0.0000  0.0000
13422SI     SI113422   4.623   1.712   9.391  0.0000  0.0000  0.0000
13423SI     SI113423   8.200   5.223   9.594  0.0000  0.0000  0.0000
13424SI     SI113424   7.740   7.149   8.768  0.0000  0.0000  0.0000
13425SI     SI113425   5.073   6.619   8.506  0.0000  0.0000  0.0000
13426SI     SI113426   2.616   2.892   0.536  0.0000  0.0000  0.0000
13427SI     SI113427   7.337   6.787   0.418  0.0000  0.0000  0.0000
13428SI     SI113428   4.254   3.392   8.636  0.0000  0.0000  0.0000
13429SI     SI113429   9.277   6.762   8.966  0.0000  0.0000  0.0000
13430SI     SI113430   3.157   0.291   8.919  0.0000  0.0000  0.0000
13431SI     SI113431   7.378   6.647   0.682  0.0000  0.0000  0.0000
13432SI     SI113432   1.684   4.352   1.036  0.0000  0.0000  0.0000
13433SI     SI113433   3.176   3.288   1.145  0.0000  0.0000  0.0000
13434SI     SI113434   3.453   7.157   8.793  0.0000  0.0000  0.0000
13435SI     SI113435   9.437   5.425   0.344  0.0000  0.0000  0.0000
13436SI     SI113436   3.460   3.285   8.828  0.0000  0.0000  0.0000
13437SI     SI113437   7.696   0.360   0.629  0.0000  0.0000  0.0000
13438SI     SI113438   4.840   2.469   9.032  0.0000  0.0000  0.0000
13439SI     SI113439   2.572   4.317   8.718  0.0000  0.0000  0.0000
13440SI     SI113440   7.639   7.269   1.078  0.0000  0.0000  0.0000
13441SI     SI113441   5.586   1.883   0.689  0.0000  0.0000  0.0000
13442SI     SI113442   2.171   0.938   9.444  0.0000  0.0000  0.0000
13443SI     SI113443   7.700   4.801   8.832  0.0000  0.0000  0.0000
13444SI     SI113444   8.159   3.581   0.055  0.0000  0.0000  0.0000
13445SI     SI113445   5.512   2.782   0.523  0.0000  0.0000  0.0000
13446SI     SI113446   7.922   2.146   9.602  0.0000  0.0000  0.0000
13447SI     SI113447   7.080   3.388   0.498  0.0000  0.0000  0.0000
13448SI     SI113448   0.486   4.051   8.846  0.0000  0.0000  0.0000
13449SI     SI113449   1.385   1.244   8.620  0.0000  0.0000  0.0000
13450SI     SI113450   8.173   0.795   8.854  0.0000  0.0000  0.0000
13451SI     SI113451   7.136   9.265   9.466  0.0000  0.0000  0.0000
13452SI     SI113452   5.278   1.836   8.788  0.0000  0.0000  0.0000
13453SI     SI113453   0.499   1.082   8.906  0.0000  0.0000  0.0000
13454SI     SI113454   3.408   5.637   0.810  0.0000  0.0000  0.0000
13455SI     SI113455   3.900   3.743   8.764  0.0000  0.0000  0.0000
13456SI     SI113456   9.558   2.333   9.407  0.0000  0.0000  0.0000
13457SI     SI113457   9.314   5.485   9.201  0.0000  0.0000  0.0000
13458SI     SI113458   2.971   6.948   8.688  0.0000  0.0000  0.0000
13459SI     SI113459   3.247   6.601   0.679  0.0000  0.0000  0.0000
13460SI     SI113460   2.277   0.044   9.590  0.0000  0.0000  0.0000
13461SI     SI113461   0.292   5.182   8.809  0.0000  0.0000  0.0000
13462SI     SI113462   6.497   2.883   0.471  0.0000  0.0000  0.0000
13463SI     SI113463   2.622   4.676   0.708  0.0000  0.0000  0.0000
13464SI     SI113464   6.469   8.347   9.168  0.0000  0.0000  0.0000
13465SI     SI113465   7.933   6.469   9.090  0.0000  0.0000  0.0000
13466SI     SI113466   8.054   3.118   0.250  0.0000  0.0000  0.0000
13467SI     SI113467   0.659   4.245   0.262  0.0000  0.0000  0.0000
13468SI     SI113468   5.065   3.866   0.413  0.0000  0.0000  0.0000
13469SI     SI113469   9.288   0.580   8.756  0.0000  0.0000  0.0000
13470SI     SI113470   6.213   8.301   1.107  0.0000  0.0000  0.0000
13471SI     SI113471   0.385   3.365   0.976  0.0000  0.0000  0.0000
13472SI     SI113472   6.229   3.782   0.553  0.0000  0.0000  0.0000
13473SI     SI113473   3.799   3.820   9.247  0.0000  0.0000  0.0000
13474SI     SI113474   9.361   0.004   8.825  0.0000  0.0000  0.0000
13475SI     SI113475   6.740   2.492   9.529  0.0000  0.0000  0.0000
13476SI     SI113476   8.559   1.040   0.952  0.0000  0.0000  0.0000
13477SI     SI113477   4.314   1.092   1.102  0.0000  0.0000  0.0000
13478SI     SI113478   9.432   9.275   0.311  0.0000  0.0000  0.0000
13479SI     SI113479   9.151   7.499   1.282  0.0000  0.0000  0.0000
13480SI     SI113480   6.378   1.451   0.316  0.0000  0.0000  0.0000
13481SI     SI113481   6.775   0.892   0.384  0.0000  0.0000  0.0000
13482SI     SI113482   3.520   2.169   8.709  0.0000  0.0000  0.0000
13483SI     SI113483   4.400   5.286   9.210  0.0000  0.0000  0.0000
13484SI     SI113484   3.607   1.473   0.392  0.0000  0.0000  0.0000
13485SI     SI113485   5.855   8.971   9.094  0.0000  0.0000  0.0000
13486SI     SI113486   2.363   2.638   9.502  0.0000  0.0000  0.0000
13487SI     SI113487   4.447   1.886   0.332  0.0000  0.0000  0.0000
13488SI     SI113488   9.325   5.603   0.829  0.0000  0.0000  0.0000
13489SI     SI113489   5.137   7.110   0.838  0.0000  0.0000  0.0000
13490SI     SI113490   7.566   9.356   0.441  0.0000  0.0000  0.0000
13491SI     SI113491   8.637   1.717   0.113  0.0000  0.0000  0.0000
13492SI     SI113492   1.051   8.762   0.967  0.0000  0.0000  0.0000
13493SI     SI113493   8.994   0.252   8.856  0.0000  0.0000  0.0000
13494SI     SI113494   5.367   2.439   9.176  0.0000  0.0000  0.0000
13495SI     SI113495   3.916   0.724   1.183  0.0000  0.0000  0.0000
13496SI     SI113496   9.213   6.822   0.595  0.0000  0.0000  0.0000
13497SI     SI113497   8.019   6.111   0.696  0.0000  0.0000  0.0000
13498SI     SI113498   2.375   8.990   0.579  0.0000  0.0000  0.0000
13499SI     SI113499   7.828   4.441   9.227  0.0000  0.0000  0.0000
13500SI     SI113500   7.488   4.173   0.953  0.0000  0.0000  0.0000
13501SI     SI113501   9.061   0.903   8.544  0.0000  0.0000  0.0000
13502SI     SI113502   2.764   2.579   0.235  0.0000  0.0000  0.0000
13503SI     SI113503   8.709   9.199   9.120  0.0000  0.0000  0.0000
13504SI     SI113504   8.987   4.998   9.570  0.0000  0.0000  0.0000
13505SI     SI113505   1.601   5.519   0.598  0.0000  0.0000  0.0000
13506SI     SI113506   5.134   6.188   0.358  0.0000  0.0000  0.0000
13507SI     SI113507   5.504   8.011   9.111  0.0000  0.0000  0.0000
13508SI     SI113508   0.045   5.111   0.703  0.0000  0.0000  0.0000
13509SI     SI113509   7.801   4.556   0.517  0.0000  0.0000  0.0000
13510SI     SI113510   6.496   4.826   0.689  0.0000  0.0000  0.0000
13511SI     SI113511   8.297   4.640   8.412  0.0000  0.0000  0.0000
13512SI     SI113512   2.500   0.570   9.214  0.0000  0.0000  0.0000
13513SI     SI113513   0.169   1.483   8.929  0.0000  0.0000  0.0000
13514SI     SI113514   2.306   8.114   8.911  0.0000  0.0000  0.0000
13515SI     SI113515   5.238   3.279   0.115  0.0000  0.0000  0.0000
13516SI     SI113516   2.111   3.940   9.292  0.0000  0.0000  0.0000
13517SI     SI113517   0.190   7.839   0.109  0.0000  0.0000  0.0000
13518SI     SI113518   4.614   2.007   9.309  0.0000  0.0000  0.0000
13519SI     SI113519   0.365   2.615   0.260  0.0000  0.0000  0.0000
13520SI     SI113520   7.945   0.221   0.170  0.0000  0.0000  0.0000
13521SI     SI113521   2.131   3.186   9.018  0.0000  0.0000  0.0000
13522SI     SI113522   5.604   3.059   0.650  0.0000  0.0000  0.0000
13523SI     SI113523   4.343   5.568   1.125  0.0000  0.0000  0.0000
13524SI     SI113524   6.303   6.948   9.314  0.0000  0.0000  0.0000
13525SI     SI113525   4.315   5.730   9.049  0.0000  0.0000  0.0000
13526SI     SI113526   4.126   0.735   0.143  0.0000  0.0000  0.0000
13527SI     SI113527   0.110   1.059   0.943  0.0000  0.0000  0.0000
13528SI     SI113528   0.113   1.347   0.863  0.0000  0.0000  0.0000
13529SI     SI113529   0.181   3.970   8.626  0.0000  0.0000  0.0000
13530SI     SI113530   6.701   7.153   0.178  0.0000  0.0000  0.0000
13531SI     SI113531   3.893   7.837   0.864  0.0000  0.0000  0.0000
13532SI     SI113532   1.720   6.426   0.661  0.0000  0.0000  0.0000
13533SI     SI113533   5.065   7.641   8.444  0.0000  0.0000  0.0000
13534SI     SI113534   0.589   9.229   1.138  0.0000  0.0000  0.0000
13535SI     SI113535   2.168   0.715   0.678  0.0000  0.0000  0.0000
13536SI     SI113536   3.614   2.922   1.143  0.0000  0.0000  0.0000
13537SI     SI113537   3.141   7.726   9.065  0.0000  0.0000  0.0000
13538SI     SI113538   4.740   4.643   9.319  0.0000  0.0000  0.0000
13539SI     SI113539   8.563   6.136   8.591  0.0000  0.0000  0.0000
13540SI     SI113540   9.415   7.873   0.939  0.0000  0.0000  0.0000
13541SI     SI113541   3.606   1.830   0.878  0.0000  0.0000  0.0000
13542SI     SI113542   3.630   5.778   0.164  0.0000  0.0000  0.0000
13543SI     SI113543   2.134   2.118   8.988  0.0000  0.0000  0.0000
13544SI     SI113544   4.556   3.792   0.272  0.0000  0.0000  0.0000
13545SI     SI113545   5.539   1.048   9.193  0.0000  0.0000  0.0000
13546SI     SI113546   5.555   6.813   8.810  0.0000  0.0000  0.0000
13547SI     SI113547   1.823   6.685   1.108  0.0000  0.0000  0.0000
13548SI     SI113548   8.681   8.382   0.647  0.0000  0.0000  0.0000
13549SI     SI113549   3.067   0.720   0.641  0.0000  0.0000  0.0000
13550SI     SI113550   8.579   4.154   9.393  0.0000  0.0000  0.0000
13551SI     SI113551   9.522   0.592   9.206  0.0000  0.0000  0.0000
13552SI     SI113552   0.570   7.466   8.403  0.0000  0.0000  0.0000
13553SI     SI113553   7.942   9.151   0.214  0.0000  0.0000  0.0000
13554SI     SI113554   2.163   8.520   8.447  0.0000  0.0000  0.0000
13555SI     SI113555   7.893   2.853   0.634  0.0000  0.0000  0.0000
13556SI     SI113556   4.159   7.928   0.870  0.0000  0.0000  0.0000
13557SI     SI113557   5.368   4.120   0.535  0.0000  0.0000  0.0000
13558SI     SI113558   3.046   0.273   0.504  0.0000  0.0000  0.0000
13559SI     SI113559   9.510   3.535   8.712  0.0000  0.0000  0.0000
13560SI     SI113560   6.174   1.559   9.270  0.0000  0.0000  0.0000
13561SI     SI113561   1.650   7.465   8.806  0.0000  0.0000  0.0000
13562SI     SI113562   2.717   6.175   0.797  0.0000  0.0000  0.0000
13563SI     SI113563   0.142   6.717   0.064  0.0000  0.0000  0.0000
13564SI     SI113564   4.894   2.054   0.681  0.0000  0.0000  0.0000
13565SI     SI113565   5.853   6.837   8.858  0.0000  0.0000  0.0000
13566SI     SI113566   2.370   0.323   8.688  0.0000  0.0000  0.0000
13567SI     SI113567   8.304   6.018   0.717  0.0000  0.0000  0.0000
13568SI     SI113568   7.425   2.779   0.623  0.0000  0.0000  0.0000
13569SI     SI113569   6.778   2.744   8.743  0.0000  0.0000  0.0000
13570SI     SI113570   8.496   7.751   9.096  0.0000  0.0000  0.0000
13571SI     SI113571   3.740   0.680   8.908  0.0000  0.0000  0.0000
13572SI     SI113572   8.242   8.407   9.012  0.0000  0.0000  0.0000
13573SI     SI113573   4.706   1.153   8.637  0.0000  0.0000  0.0000
13574SI     SI113574   6.181   7.819   9.505  0.0000  0.0000  0.0000
13575SI     SI113575   5.171   6.217   1.136  0.0000  0.0000  0.0000
13576SI     SI113576   5.745   4.733   0.589  0.0000  0.0000  0.0000
13577SI     SI113577   8.281   6.185   9.309  0.0000  0.0000  0.0000
13578SI     SI113578   4.212   4.715   9.498  0.0000  0.0000  0.0000
13579SI     SI113579   4.761   5.987   0.649  0.0000  0.0000  0.0000
13580SI     SI113580   1.640   7.206   0.465  0.0000  0.0000  0.0000
13581SI     SI113581   8.544   4.313   8.677  0.0000  0.0000  0.0000
13582SI     SI113582   8.231   4.334   9.100  0.0000  0.0000  0.0000
13583SI     SI113583   8.380   1.734   9.409  0.0000  0.0000  0.0000
13584SI     SI113584   6.114   4.816   8.983  0.0000  0.0000  0.0000
13585SI     SI113585   3.117   7.437   9.187  0.0000  0.0000  0.0000
13586SI     SI113586   2.459   5.522   1.264  0.0000  0.0000  0.0000
13587SI     SI113587   1.495   1.251   1.111  0.0000  0.0000  0.0000
13588SI     SI113588   3.310   1.253   9.323  0.0000  0.0000  0.0000
13589SI     SI113589   6.283   3.115   9.466  0.0000  0.0000  0.0000
13590SI     SI113590   1.828   8.559   9.502  0.0000  0.0000  0.0000
13591SI     SI113591   9.215   6.277   1.059  0.0000  0.0000  0.0000
13592SI     SI113592   1.798   0.782   0.442  0.0000  0.0000  0.0000
13593SI     SI113593   5.771   7.640   9.315  0.0000  0.0000  0.0000
13594SI     SI113594   4.821   8.042   0.436  0.0000  0.0000  0.0000
13595SI     SI113595   2.509   3.329   0.771  0.0000  0.0000  0.0000
13596SI     SI113596   5.335   8.144   0.989  0.0000  0.0000  0.0000
13597SI     SI113597   5.311   9.243   9.293  0.0000  0.0000  0.0000
13598SI     SI113598   4.109   7.909   9.006  0.0000  0.0000  0.0000
13599SI     SI113599   0.431   1.459   8.747  0.0000  0.0000  0.0000
13600SI     SI113600   7.351   1.647   0.895  0.0000  0.0000  0.0000
13601SI     SI113601   8.229   4.794   0.669  0.0000  0.0000  0.0000
13602SI     SI113602   6.532   1.976   9.049  0.0000  0.0000  0.0000
13603SI     SI113603   9.582   3.020   0.726  0.0000  0.0000  0.0000
13604SI     SI113604   3.529   8.405   0.883  0.0000  0.0000  0.0000
13605SI     SI113605   6.761   4.961   0.237  0.0000  0.0000  0.0000
13606SI     SI113606   3.894   3.481   0.948  0.0000  0.0000  0.0000
13607SI     SI113607   2.615   4.047   0.941  0.0000  0.0000  0.0000
13608SI     SI113608   6.866   2.822   9.199  0.0000  0.0000  0.0000
13609SI     SI113609   8.596   4.560   9.132  0.0000  0.0000  0.0000
13610SI     SI113610   4.183   2.492   0.392  0.0000  0.0000  0.0000
13611SI     SI113611   1.306   4.974   0.323  0.0000  0.0000  0.0000
13612SI     SI113612   7.491   5.650   0.089  0.0000  0.0000  0.0000
13613SI     SI113613   9.589   2.110   0.557  0.0000  0.0000  0.0000
13614SI     SI113614   3.606   5.571   9.020  0.0000  0.0000  0.0000
13615SI     SI113615   2.344   5.809   0.881  0.0000  0.0000  0.0000
13616SI     SI113616   5.967   1.330   9.219  0.0000  0.0000  0.0000
13617SI     SI113617   8.182   5.907   8.607  0.0000  0.0000  0.0000
13618SI     SI113618   5.557   4.770   8.654  0.0000  0.0000  0.0000
13619SI     SI113619   1.743   2.198   0.352  0.0000  0.0000  0.0000
13620SI     SI113620   9.167   2.384   8.546  0.0000  0.0000  0.0000
13621SI     SI113621   5.541   7.712   8.841  0.0000  0.0000  0.0000
13622SI     SI113622   5.469   8.997   0.661  0.0000  0.0000  0.0000
13623SI     SI113623   0.943   1.988   0.194  0.0000  0.0000  0.0000
13624SI     SI113624   0.236   6.555   0.971  0.0000  0.0000  0.0000
13625SI     SI113625   3.902   0.860   0.299  0.0000  0.0000  0.0000
13626SI     SI113626   4.789   6.748   9.199  0.0000  0.0000  0.0000
13627SI     SI113627   2.997   3.554   9.205  0.0000  0.0000  0.0000
13628SI     SI113628   0.003   6.434   0.078  0.0000  0.0000  0.0000
13629SI     SI113629   8.312   7.521   9.001  0.0000  0.0000  0.0000
13630SI     SI113630   5.711   7.579   0.692  0.0000  0.0000  0.0000
13631SI     SI113631   0.925   0.816   0.848  0.0000  0.0000  0.0000
13632SI     SI113632   2.330   1.875   9.042  0.0000  0.0000  0.0000
13633SI     SI113633   8.799   9.477   8.787  0.0000  0.0000  0.0000
13634SI     SI113634   5.344   6.785   8.447  0.0000  0.0000  0.0000
13635SI     SI113635   7.320   6.406   8.489  0.0000  0.0000  0.0000
13636SI     SI113636   0.140   0.191   0.056  0.0000  0.0000  0.0000
13637SI     SI113637   7.300   8.528   9.504  0.0000  0.0000  0.0000
13638SI     SI113638   3.859   6.683   0.470  0.0000  0.0000  0.0000
13639SI     SI113639   1.229   9.010   8.375  0.0000  0.0000  0.0000
13640SI     SI113640   5.835   8.390   0.822  0.0000  0.0000  0.0000
13641SI     SI113641   7.744   0.491   8.658  0.0000  0.0000  0.0000
13642SI     SI113642   0.905   3.674   0.350  0.0000  0.0000  0.0000
13643SI     SI113643   6.064   5.963   0.997  0.0000  0.0000  0.0000
13644SI     SI113644   9.140   4.967   0.672  0.0000  0.0000  0.0000
13645SI     SI113645   0.287   6.829   8.636  0.0000  0.0000  0.0000
13646SI     SI113646   0.635   0.836   9.264  0.0000  0.0000  0.0000
13647SI     SI113647   8.492   4.142   0.804  0.0000  0.0000  0.0000
13648SI     SI113648   5.980   3.802   0.387  0.0000  0.0000  0.0000
13649SI     SI113649   1.882   1.206   9.086  0.0000  0.0000  0.0000
13650SI     SI113650   0.367   3.416   9.491  0.0000  0.0000  0.0000
13651SI     SI113651   1.734   8.884   9.233  0.0000  0.0000  0.0000
13652SI     SI113652   9.323   4.856   0.438  0.0000  0.0000  0.0000
13653SI     SI113653   1.948   4.551   8.962  0.0000  0.0000  0.0000
13654SI     SI113654   5.086   3.157   1.176  0.0000  0.0000  0.0000
13655SI     SI113655   1.303   7.989   0.316  0.0000  0.0000  0.0000
13656SI     SI113656   1.134   4.548   0.334  0.0000  0.0000  0.0000
13657SI     SI113657   6.822   8.490   8.415  0.0000  0.0000  0.0000
13658SI     SI113658   9.580   8.081   8.597  0.0000  0.0000  0.0000
13659SI     SI113659   1.759   7.634   0.073  0.0000  0.0000  0.0000
13660SI     SI113660   2.009   1.589   0.242  0.0000  0.0000  0.0000
13661SI     SI113661   5.615   6.165   0.592  0.0000  0.0000  0.0000
13662SI     SI113662   1.465   3.924   9.509  0.0000  0.0000  0.0000
13663SI     SI113663   4.255   2.785   9.593  0.0000  0.0000  0.0000
13664SI     SI113664   5.880   3.748   8.470  0.0000  0.0000  0.0000
13665SI     SI113665   8.289   2.729   0.473  0.0000  0.0000  0.0000
13666SI     SI113666   5.918   1.422   8.924  0.0000  0.0000  0.0000
13667SI     SI113667   3.185   3.378   0.043  0.0000  0.0000  0.0000
13668SI     SI113668   5.617   6.418   0.195  0.0000  0.0000  0.0000
13669SI     SI113669   0.622   4.828   8.906  0.0000  0.0000  0.0000
13670SI     SI113670   5.681   5.476   0.116  0.0000  0.0000  0.0000
13671SI     SI113671   4.563   6.091   8.265  0.0000  0.0000  0.0000
13672SI     SI113672   0.861   6.177   0.943  0.0000  0.0000  0.0000
13673SI     SI113673   3.901   1.564   9.236  0.0000  0.0000  0.0000
13674SI     SI113674   6.566   4.313   9.472  0.0000  0.0000  0.0000
13675SI     SI113675   8.976   3.012   9.373  0.0000  0.0000  0.0000
13676SI     SI113676   8.329   3.795   9.505  0.0000  0.0000  0.0000
13677SI     SI113677   1.530   4.440   8.869  0.0000  0.0000  0.0000
13678SI     SI113678   5.317   7.160   9.159  0.0000  0.0000  0.0000
13679SI     SI113679   1.013   7.926   0.269  0.0000  0.0000  0.0000
13680SI     SI113680   2.236   6.612   0.470  0.0000  0.0000  0.0000
13681SI     SI113681   6.780   0.270   0.207  0.0000  0.0000  0.0000
13682SI     SI113682   3.535   0.087   9.559  0.0000  0.0000  0.0000
13683SI     SI113683   8.107   3.188   8.948  0.0000  0.0000  0.0000
13684SI     SI113684   4.198   4.090   9.018  0.0000  0.0000  0.0000
13685SI     SI113685   3.020   4.940   9.305  0.0000  0.0000  0.0000
13686SI     SI113686   3.364   8.664   8.455  0.0000  0.0000  0.0000
13687SI     SI113687   5.314   0.282   0.851  0.0000  0.0000  0.0000
13688SI     SI113688   5.911   4.541   8.418  0.0000  0.0000  0.0000
13689SI     SI113689   3.364   3.009   8.943  0.0000  0.0000  0.0000
13690SI     SI113690   7.239   8.454   8.896  0.0000  0.0000  0.0000
13691SI     SI113691   8.772   3.168   8.609  0.0000  0.0000  0.0000
13692SI     SI113692   7.749   1.499   9.136  0.0000  0.0000  0.0000
13693SI     SI113693   0.111   2.669   8.808  0.0000  0.0000  0.0000
13694SI     SI113694   4.398   9.075   0.140  0.0000  0.0000  0.0000
13695SI     SI113695   3.069   9.114   1.073  0.0000  0.0000  0.0000
13696SI     SI113696   4.378   1.724   8.748  0.0000  0.0000  0.0000
13697SI     SI113697   8.813   8.306   1.144  0.0000  0.0000  0.0000
13698SI     SI113698   1.316   7.957   8.891  0.0000  0.0000  0.0000
13699SI     SI113699   8.212   9.091   9.214  0.0000  0.0000  0.0000
13700SI     SI113700   1.887   0.790   8.841  0.0000  0.0000  0.0000
13701SI     SI113701   9.598   7.917   9.239  0.0000  0.0000  0.0000
13702SI     SI113702   8.774   3.302   1.237  0.0000  0.0000  0.0000
13703SI     SI113703   6.905   0.001   0.207  0.0000  0.0000  0.0000
13704SI     SI113704   6.114   6.665   0.679  0.0000  0.0000  0.0000
13705SI     SI113705   9.054   3.430   0.831  0.0000  0.0000  0.0000
13706SI     SI113706   0.551   7.137   0.298  0.0000  0.0000  0.0000
13707SI     SI113707   5.981   5.095   9.483  0.0000  0.0000  0.0000
13708SI     SI113708   5.631   4.382   9.597  0.0000  0.0000  0.0000
13709SI     SI113709   2.693   1.902   0.773  0.0000  0.0000  0.0000
13710SI     SI113710   0.327   3.408   0.359  0.0000  0.0000  0.0000
13711SI     SI113711   7.770   5.518   0.082  0.0000  0.0000  0.0000
13712SI     SI113712   8.932   7.862   8.935  0.0000  0.0000  0.0000
13713SI     SI113713   2.737   3.177   9.416  0.0000  0.0000  0.0000
13714SI     SI113714   8.077   6.358   1.092  0.0000  0.0000  0.0000
13715SI     SI113715   0.220   4.004   0.517  0.0000  0.0000  0.0000
13716SI     SI113716   0.778   4.397   8.662  0.0000  0.0000  0.0000
13717SI     SI113717   6.453   2.549   9.410  0.0000  0.0000  0.0000
13718SI     SI113718   5.113   1.762   9.465  0.0000  0.0000  0.0000
13719SI     SI113719   5.854   2.828   8.349  0.0000  0.0000  0.0000
13720SI     SI113720   7.036   3.301   9.341  0.0000  0.0000  0.0000
13721SI     SI113721   1.534   6.273   1.159  0.0000  0.0000  0.0000
13722SI     SI113722   7.983   1.469   9.585  0.0000  0.0000  0.0000
13723SI     SI113723   8.521   2.906   1.094  0.0000  0.0000  0.0000
13724SI     SI113724   7.120   5.175   8.604  0.0000  0.0000  0.0000
13725SI     SI113725   1.702   9.314   0.497  0.0000  0.0000  0.0000
13726SI     SI113726   3.957   3.964   1.090  0.0000  0.0000  0.0000
13727SI     SI113727   4.769   5.481   9.484  0.0000  0.0000  0.0000
13728SI     SI113728   6.959   2.778   0.923  0.0000  0.0000  0.0000
13729SI     SI113729   0.768   8.666   0.090  0.0000  0.0000  0.0000
13730SI     SI113730   2.709   0.371   9.100  0.0000  0.0000  0.0000
13731SI     SI113731   2.817   4.264   0.840  0.0000  0.0000  0.0000
13732SI     SI113732   4.838   9.374   0.141  0.0000  0.0000  0.0000
13733SI     SI113733   8.112   3.856   9.298  0.0000  0.0000  0.0000
13734SI     SI113734   3.023   5.261   8.542  0.0000  0.0000  0.0000
13735SI     SI113735   8.586   1.597   8.848  0.0000  0.0000  0.0000
13736SI     SI113736   9.172   3.682   0.429  0.0000  0.0000  0.0000
13737SI     SI113737   7.018   6.830   0.870  0.0000  0.0000  0.0000
13738SI     SI113738   9.025   9.272   9.352  0.0000  0.0000  0.0000
13739SI     SI113739   5.573   9.250   0.192  0.0000  0.0000  0.0000
13740SI     SI113740   5.918   5.598   0.485  0.0000  0.0000  0.0000
13741SI     SI113741   1.725   8.713   8.803  0.0000  0.0000  0.0000
13742SI     SI113742   7.219   8.801   9.594  0.0000  0.0000  0.0000
13743SI     SI113743   6.951   1.409   9.265  0.0000  0.0000  0.0000
13744SI     SI113744   5.761   2.888   1.365  0.0000  0.0000  0.0000
13745SI     SI113745   5.250   2.253   0.955  0.0000  0.0000  0.0000
13746SI     SI113746   4.933   0.380   8.987  0.0000  0.0000  0.0000
13747SI     SI113747   2.542   6.450   1.108  0.0000  0.0000  0.0000
13748SI     SI113748   6.686   2.495   8.602  0.0000  0.0000  0.0000
13749SI     SI113749   7.968   3.990   1.146  0.0000  0.0000  0.0000
13750SI     SI113750   8.497   8.680   0.276  0.0000  0.0000  0.0000
13751SI     SI113751   7.009   9.382   8.444  0.0000  0.0000  0.0000
13752SI     SI113752   6.455   7.264   1.024  0.0000  0.0000  0.0000
13753SI     SI113753   9.177   0.335   1.090  0.0000  0.0000  0.0000
13754SI     SI113754   8.410   3.120   9.264  0.0000  0.0000  0.0000
13755SI     SI113755   3.388   2.659   0.067  0.0000  0.0000  0.0000
13756SI     SI113756   1.363   7.631   9.455  0.0000  0.0000  0.0000
13757SI     SI113757   6.331   1.262   8.839  0.0000  0.0000  0.0000
13758SI     SI113758   7.360   1.356   0.970  0.0000  0.0000  0.0000
13759SI     SI113759   5.596   8.059   0.213  0.0000  0.0000  0.0000
13760SI     SI113760   9.569   9.426   8.452  0.0000  0.0000  0.0000
13761SI     SI113761   8.080   9.200   8.765  0.0000  0.0000  0.0000
13762SI     SI113762   6.070   7.672   8.965  0.0000  0.0000  0.0000
13763SI     SI113763   8.434   2.489   9.561  0.0000  0.0000  0.0000
13764SI     SI113764   6.761   2.367   0.920  0.0000  0.0000  0.0000
13765SI     SI113765   7.167   6.513   8.975  0.0000  0.0000  0.0000
13766SI     SI113766   6.639   3.549   8.603  0.0000  0.0000  0.0000
13767SI     SI113767   6.923   0.520   1.097  0.0000  0.0000  0.0000
13768SI     SI113768   0.909   0.433   0.240  0.0000  0.0000  0.0000
13769SI     SI113769   4.310   8.020   1.110  0.0000  0.0000  0.0000
13770SI     SI113770   7.696   6.664   9.569  0.0000  0.0000  0.0000
13771SI     SI113771   4.368   3.424   0.412  0.0000  0.0000  0.0000
13772SI     SI113772   9.518   8.337   1.144  0.0000  0.0000  0.0000
13773SI     SI113773   2.140   5.484   8.604  0.0000  0.0000  0.0000
13774SI     SI113774   1.151   6.989   8.610  0.0000  0.0000  0.0000
13775SI     SI113775   3.985   0.009   0.375  0.0000  0.0000  0.0000
13776SI     SI113776   8.659   8.914   0.146  0.0000  0.0000  0.0000
13777SI     SI113777   1.385   4.314   1.113  0.0000  0.0000  0.0000
13778SI     SI113778   5.337   9.413   8.503  0.0000  0.0000  0.0000
13779SI     SI113779   1.836   7.304   0.664  0.0000  0.0000  0.0000
13780SI     SI113780   2.766   3.062   0.312  0.0000  0.0000  0.0000
13781SI     SI113781   7.181   8.125   1.220  0.0000  0.0000  0.0000
13782SI     SI113782   1.400   8.993   0.733  0.0000  0.0000  0.0000
13783SI     SI113783   6.229   8.136   9.167  0.0000  0.0000  0.0000
13784SI     SI113784   1.321   3.859   0.170  0.0000  0.0000  0.0000
13785SI     SI113785   1.817   8.886   1.238  0.0000  0.0000  0.0000
13786SI     SI113786   5.913   7.653   0.263  0.0000  0.0000  0.0000
13787SI     SI113787   8.401   9.109   0.662  0.0000  0.0000  0.0000
13788SI     SI113788   5.825   2.265   9.134  0.0000  0.0000  0.0000
13789SI     SI113789   3.425   6.966   9.216  0.0000  0.0000  0.0000
13790SI     SI113790   5.293   6.860   9.228  0.0000  0.0000  0.0000
13791SI     SI113791   0.541   0.666   0.476  0.0000  0.0000  0.0000
13792SI     SI113792   2.623   9.572   0.936  0.0000  0.0000  0.0000
13793SI     SI113793   3.944   1.063   9.472  0.0000  0.0000  0.0000
13794SI     SI113794   9.245   4.400   9.256  0.0000  0.0000  0.0000
13795SI     SI113795   7.811   8.004   0.689  0.0000  0.0000  0.0000
13796SI     SI113796   1.878   7.697   0.835  0.0000  0.0000  0.0000
13797SI     SI113797   4.627   4.691   8.703  0.0000  0.0000  0.0000
13798SI     SI113798   5.533   2.292   0.406  0.0000  0.0000  0.0000
13799SI     SI113799   3.554   3.184   8.541  0.0000  0.0000  0.0000
13800SI     SI113800   6.612   1.665   0.332  0.0000  0.0000  0.0000
13801SI     SI113801   0.914   2.064   9.085  0.0000  0.0000  0.0000
13802SI     SI113802   7.401   0.225   1.006  0.0000  0.0000  0.0000
13803SI     SI113803   5.445   9.468   0.972  0.0000  0.0000  0.0000
13804SI     SI113804   1.410   6.245   9.160  0.0000  0.0000  0.0000
13805SI     SI113805   6.402   7.871   0.232  0.0000  0.0000  0.0000
13806SI     SI113806   4.026   8.424   1.035  0.0000  0.0000  0.0000
13807SI     SI113807   7.138   0.578   8.385  0.0000  0.0000  0.0000
13808SI     SI113808   0.507   3.796   0.132  0.0000  0.0000  0.0000
13809SI     SI113809   7.321   7.295   1.085  0.0000  0.0000  0.0000
13810SI     SI113810   4.347   7.351   9.413  0.0000  0.0000  0.0000
13811SI     SI113811   3.384   0.908   8.557  0.0000  0.0000  0.0000
13812SI     SI113812   0.644   7.300   0.546  0.0000  0.0000  0.0000
13813SI     SI113813   8.747   5.928   0.740  0.0000  0.0000  0.0000
13814SI     SI113814   2.604   8.381   9.256  0.0000  0.0000  0.0000
13815SI     SI113815   1.183   8.518   0.282  0.0000  0.0000  0.0000
13816SI     SI113816   9.322   1.671   9.331  0.0000  0.0000  0.0000
13817SI     SI113817   5.651   7.577   0.390  0.0000  0.0000  0.0000
13818SI     SI113818   0.413   3.113   8.955  0.0000  0.0000  0.0000
13819SI     SI113819   6.138   1.601   8.784  0.0000  0.0000  0.0000
13820SI     SI113820   6.314   0.876   0.567  0.0000  0.0000  0.0000
13821SI     SI113821   6.875   1.375   9.552  0.0000  0.0000  0.0000
13822SI     SI113822   9.102   5.699   8.816  0.0000  0.0000  0.0000
13823SI     SI113823   2.965   2.227   9.555  0.0000  0.0000  0.0000
13824SI     SI113824   3.674   8.618   8.821  0.0000  0.0000  0.0000
13825SI     SI113825   3.021   1.097   8.943  0.0000  0.0000  0.0000
13826SI     SI113826   0.640   7.202   9.021  0.0000  0.0000  0.0000
13827SI     SI113827   6.218   6.966   8.809  0.0000  0.0000  0.0000
13828SI     SI113828   5.297   9.393   0.250  0.0000  0.0000  0.0000
13829SI     SI113829   8.406   9.512   8.950  0.0000  0.0000  0.0000
13830SI     SI113830   2.587   2.314   9.112  0.0000  0.0000  0.0000
13831SI     SI113831   4.191   8.504   8.556  0.0000  0.0000  0.0000
13832SI     SI113832   2.324   3.523   0.932  0.0000  0.0000  0.0000
13833SI     SI113833   3.840   8.052   8.984  0.0000  0.0000  0.0000
13834SI     SI113834   5.420   2.742   0.904  0.0000  0.0000  0.0000
13835SI     SI113835   9.137   3.678   0.129  0.0000  0.0000  0.0000
13836SI     SI113836   9.365   8.184   0.916  0.0000  0.0000  0.0000
13837SI     SI113837   6.418   2.457   1.107  0.0000  0.0000  0.0000
13838SI     SI113838   3.330   4.580   0.509  0.0000  0.0000  0.0000
13839SI     SI113839   5.502   5.282   9.549  0.0000  0.0000  0.0000
13840SI     SI113840   7.116   3.391   8.394  0.0000  0.0000  0.0000
13841SI     SI113841   3.183   6.226   1.088  0.0000  0.0000  0.0000
13842SI     SI113842   0.280   0.413   9.499  0.0000  0.0000  0.0000
13843SI     SI113843   0.536   8.478   0.057  0.0000  0.0000  0.0000
13844SI     SI113844   4.834   7.465   0.055  0.0000  0.0000  0.0000
13845SI     SI113845   4.078   5.595   9.165  0.0000  0.0000  0.0000
13846SI     SI113846   8.055   5.858   0.985  0.0000  0.0000  0.0000
13847SI     SI113847   6.614   8.951   0.635  0.0000  0.0000  0.0000
13848SI     SI113848   4.228   0.810   9.082  0.0000  0.0000  0.0000
13849SI     SI113849   6.055   5.076   1.120  0.0000  0.0000  0.0000
13850SI     SI113850   4.622   3.721   8.712  0.0000  0.0000  0.0000
13851SI     SI113851   9.474   1.691   0.518  0.0000  0.0000  0.0000
13852SI     SI113852   8.565   2.436   8.632  0.0000  0.0000  0.0000
13853SI     SI113853   0.536   6.663   0.966  0.0000  0.0000  0.0000
13854SI     SI113854   0.049   8.031   9.526  0.0000  0.0000  0.0000
13855SI     SI113855   0.278   3.553   9.222  0.0000  0.0000  0.0000
13856SI     SI113856   2.387   4.536   9.266  0.0000  0.0000  0.0000
13857SI     SI113857   8.812   2.460   0.540  0.0000  0.0000  0.0000
13858SI     SI113858   1.846   1.090   8.804  0.0000  0.0000  0.0000
13859SI     SI113859   8.451   0.182   0.162  0.0000  0.0000  0.0000
13860SI     SI113860   8.038   9.385   0.035  0.0000  0.0000  0.0000
13861SI     SI113861   1.412   5.015   0.049  0.0000  0.0000  0.0000
13862SI     SI113862   2.080   3.377   1.066  0.0000  0.0000  0.0000
13863SI     SI113863   5.765   4.309   9.192  0.0000  0.0000  0.0000
13864SI     SI113864   0.625   5.071   9.418  0.0000  0.0000  0.0000
13865SI     SI113865   6.619   1.732   9.435  0.0000  0.0000  0.0000
13866SI     SI113866   7.107   9.396   1.131  0.0000  0.0000  0.0000
13867SI     SI113867   0.302   6.180   9.027  0.0000  0.0000  0.0000
13868SI     SI113868   8.225   7.164   8.700  0.0000  0.0000  0.0000
13869SI     SI113869   2.387   8.119   9.556  0.0000  0.0000  0.0000
13870SI     SI113870   5.589   5.564   9.257  0.0000  0.0000  0.0000
13871SI     SI113871   4.350   1.622   9.492  0.0000  0.0000  0.0000
13872SI     SI113872   2.448   1.225   1.011  0.0000  0.0000  0.0000
13873SI     SI113873   0.033   5.985   0.201  0.0000  0.0000  0.0000
13874SI     SI113874   7.204   2.733   0.425  0.0000  0.0000  0.0000
13875SI     SI113875   5.896   8.135   0.264  0.0000  0.0000  0.0000
13876SI     SI113876   1.726   8.149   0.582  0.0000  0.0000  0.0000
13877SI     SI113877   4.309   3.796   0.767  0.0000  0.0000  0.0000
13878SI     SI113878   4.269   1.992   8.671  0.0000  0.0000  0.0000
13879SI     SI113879   1.027   3.261   9.181  0.0000  0.0000  0.0000
13880SI     SI113880   1.623   5.340   8.652  0.0000  0.0000  0.0000
13881SI     SI113881   5.307   3.347   8.690  0.0000  0.0000  0.0000
13882SI     SI113882   3.063   0.278   9.391  0.0000  0.0000  0.0000
13883SI     SI113883   9.420   4.608   8.846  0.0000  0.0000  0.0000
13884SI     SI113884   1.096   6.221   9.165  0.0000  0.0000  0.0000
13885SI     SI113885   1.736   2.397   8.715  0.0000  0.0000  0.0000
13886SI     SI113886   6.805   1.652   0.078  0.0000  0.0000  0.0000
13887SI     SI113887   3.088   3.641   0.724  0.0000  0.0000  0.0000
13888SI     SI113888   0.176   1.740   0.471  0.0000  0.0000  0.0000
13889SI     SI113889   4.957   7.063   0.470  0.0000  0.0000  0.0000
13890SI     SI113890   1.202   2.676   9.426  0.0000  0.0000  0.0000
13891SI     SI113891   0.027   2.246   0.096  0.0000  0.0000  0.0000
13892SI     SI113892   1.746   7.988   8.778  0.0000  0.0000  0.0000
13893SI     SI113893   3.220   6.578   9.601  0.0000  0.0000  0.0000
13894SI     SI113894   5.639   8.169   9.321  0.0000  0.0000  0.0000
13895SI     SI113895   9.045   2.770   0.354  0.0000  0.0000  0.0000
13896SI     SI113896   5.164   0.639   0.490  0.0000  0.0000  0.0000
13897SI     SI113897   8.169   8.034   8.858  0.0000  0.0000  0.0000
13898SI     SI113898   0.696   5.555   8.883  0.0000  0.0000  0.0000
13899SI     SI113899   8.646   1.273   0.255  0.0000  0.0000  0.0000
13900SI     SI113900   7.265   8.924   1.236  0.0000  0.0000  0.0000
13901SI     SI113901   7.487   7.581   0.548  0.0000  0.0000  0.0000
13902SI     SI113902   5.919   1.256   0.357  0.0000  0.0000  0.0000
13903SI     SI113903   4.581   7.214   9.262  0.0000  0.0000  0.0000
13904SI     SI113904   3.989   3.232   8.989  0.0000  0.0000  0.0000
13905SI     SI113905   7.854   6.592   8.482  0.0000  0.0000  0.0000
13906SI     SI113906   9.524   0.715   8.914  0.0000  0.0000  0.0000
13907SI     SI113907   6.377   3.892   0.117  0.0000  0.0000  0.0000
13908SI     SI113908   0.544   4.772   1.185  0.0000  0.0000  0.0000
13909SI     SI113909   2.132   4.149   0.961  0.0000  0.0000  0.0000
13910SI     SI113910   4.992   8.572   9.248  0.0000  0.0000  0.0000
13911SI     SI113911   3.686   4.370   0.201  0.0000  0.0000  0.0000
13912SI     SI113912   1.257   6.338   0.430  0.0000  0.0000  0.0000
13913SI     SI113913   8.834   7.601   1.030  0.0000  0.0000  0.0000
13914SI     SI113914   4.540   8.980   9.493  0.0000  0.0000  0.0000
13915SI     SI113915   9.408   4.186   0.476  0.0000  0.0000  0.0000
13916SI     SI113916   0.337   8.574   8.415  0.0000  0.0000  0.0000
13917SI     SI113917   5.088   1.987   9.270  0.0000  0.0000  0.0000
13918SI     SI113918   7.723   8.851   0.780  0.0000  0.0000  0.0000
13919SI     SI113919   4.625   7.551   0.264  0.0000  0.0000  0.0000
13920SI     SI113920   6.223   9.311   9.380  0.0000  0.0000  0.0000
13921SI     SI113921   6.534   3.337   0.648  0.0000  0.0000  0.0000
13922SI     SI113922   8.392   5.037   0.609  0.0000  0.0000  0.0000
13923SI     SI113923   2.544   3.760   9.456  0.0000  0.0000  0.0000
13924SI     SI113924   1.866   5.444   0.431  0.0000  0.0000  0.0000
13925SI     SI113925   1.069   6.772   8.807  0.0000  0.0000  0.0000
13926SI     SI113926   0.158   0.757   8.709  0.0000  0.0000  0.0000
13927SI     SI113927   0.648   1.145   0.569  0.0000  0.0000  0.0000
13928SI     SI113928   1.892   2.638   9.545  0.0000  0.0000  0.0000
13929SI     SI113929   0.825   1.116   0.132  0.0000  0.0000  0.0000
13930SI     SI113930   0.026   9.247   9.440  0.0000  0.0000  0.0000
13931SI     SI113931   3.632   4.491   9.226  0.0000  0.0000  0.0000
13932SI     SI113932   0.689   3.300   0.979  0.0000  0.0000  0.0000
13933SI     SI113933   0.272   9.134   9.580  0.0000  0.0000  0.0000
13934SI     SI113934   2.760   0.485   9.582  0.0000  0.0000  0.0000
13935SI     SI113935   2.563   4.013   0.644  0.0000  0.0000  0.0000
13936SI     SI113936   5.955   7.046   8.661  0.0000  0.0000  0.0000
13937SI     SI113937   1.066   6.257   0.758  0.0000  0.0000  0.0000
13938SI     SI113938   1.381   2.415   0.608  0.0000  0.0000  0.0000
13939SI     SI113939   0.436   8.662   9.178  0.0000  0.0000  0.0000
13940SI     SI113940   4.990   5.848   0.101  0.0000  0.0000  0.0000
13941SI     SI113941   0.958   1.167   0.558  0.0000  0.0000  0.0000
13942SI     SI113942   0.796   6.259   0.580  0.0000  0.0000  0.0000
13943SI     SI113943   4.564   7.231   0.809  0.0000  0.0000  0.0000
13944SI     SI113944   8.491   6.222   0.149  0.0000  0.0000  0.0000
13945SI     SI113945   8.037   3.432   0.693  0.0000  0.0000  0.0000
13946SI     SI113946   8.910   4.019   0.602  0.0000  0.0000  0.0000
13947SI     SI113947   1.860   9.459   9.345  0.0000  0.0000  0.0000
13948SI     SI113948   4.199   3.158   1.014  0.0000  0.0000  0.0000
13949SI     SI113949   3.850   9.311   9.459  0.0000  0.0000  0.0000
13950SI     SI113950   1.836   2.448   9.002  0.0000  0.0000  0.0000
13951SI     SI113951   4.329   1.392   0.573  0.0000  0.0000  0.0000
13952SI     SI113952   0.201   2.743   9.261  0.0000  0.0000  0.0000
13953SI     SI113953   6.887   6.622   9.405  0.0000  0.0000  0.0000
13954SI     SI113954   5.196   1.079   1.111  0.0000  0.0000  0.0000
13955SI     SI113955   6.501   8.599   9.004  0.0000  0.0000  0.0000
13956SI     SI113956   7.441   5.091   9.169  0.0000  0.0000  0.0000
13957SI     SI113957   4.068   2.010   0.106  0.0000  0.0000  0.0000
13958SI     SI113958   4.254   0.273   8.775  0.0000  0.0000  0.0000
13959SI     SI113959   7.324   5.348   9.050  0.0000  0.0000  0.0000
13960SI     SI113960   4.783   9.124   0.561  0.0000  0.0000  0.0000
13961SI     SI113961   6.608   0.018   0.631  0.0000  0.0000  0.0000
13962SI     SI113962   2.537   6.181   8.621  0.0000  0.0000  0.0000
13963SI     SI113963   5.281   6.475   9.048  0.0000  0.0000  0.0000
13964SI     SI113964   3.733   6.182   0.333  0.0000  0.0000  0.0000
13965SI     SI113965   1.384   0.405   9.382  0.0000  0.0000  0.0000
13966SI     SI113966   3.162   8.084   8.692  0.0000  0.0000  0.0000
13967SI     SI113967   3.862   3.935   0.806  0.0000  0.0000  0.0000
13968SI     SI113968   5.456   3.181   9.112  0.0000  0.0000  0.0000
13969SI     SI113969   5.875   5.502   9.329  0.0000  0.0000  0.0000
13970SI     SI113970   7.855   1.328   8.430  0.0000  0.0000  0.0000
13971SI     SI113971   2.798   9.236   8.487  0.0000  0.0000  0.0000
13972SI     SI113972   5.365   8.812   0.157  0.0000  0.0000  0.0000
13973SI     SI113973   7.344   2.675   0.032  0.0000  0.0000  0.0000
13974SI     SI113974   2.922   0.614   8.701  0.0000  0.0000  0.0000
13975SI     SI113975   2.320   6.637   9.407  0.0000  0.0000  0.0000
13976SI     SI113976   8.111   0.242   9.417  0.0000  0.0000  0.0000
13977SI     SI113977   8.422   9.238   0.100  0.0000  0.0000  0.0000
13978SI     SI113978   4.408   6.843   1.142  0.0000  0.0000  0.0000
13979SI     SI113979   5.557   6.604   8.591  0.0000  0.0000  0.0000
13980SI     SI113980   4.138   6.517   9.441  0.0000  0.0000  0.0000
13981SI     SI113981   4.516   9.375   0.736  0.0000  0.0000  0.0000
13982SI     SI113982   9.180   2.293   0.287  0.0000  0.0000  0.0000
13983SI     SI113983   9.124   5.861   0.204  0.0000  0.0000  0.0000
13984SI     SI113984   3.742   8.976   9.024  0.0000  0.0000  0.0000
13985SI     SI113985   3.683   2.960   9.342  0.0000  0.0000  0.0000
13986SI     SI113986   7.258   4.448   0.168  0.0000  0.0000  0.0000
13987SI     SI113987   7.944   5.257   0.672  0.0000  0.0000  0.0000
13988SI     SI113988   0.819   1.888   8.370  0.0000  0.0000  0.0000
13989SI     SI113989   5.978   2.248   0.842  0.0000  0.0000  0.0000
13990SI     SI113990   0.640   6.724   0.518  0.0000  0.0000  0.0000
13991SI     SI113991   7.501   3.431   9.215  0.0000  0.0000  0.0000
13992SI     SI113992   8.648   5.875   0.011  0.0000  0.0000  0.0000
13993SI     SI113993   9.103   7.972   8.389  0.0000  0.0000  0.0000
13994SI     SI113994   6.997   1.873   9.296  0.0000  0.0000  0.0000
13995SI     SI113995   8.582   0.615   8.928  0.0000  0.0000  0.0000
13996SI     SI113996   4.823   8.398   0.724  0.0000  0.0000  0.0000
13997SI     SI113997   5.003   4.288   9.485  0.0000  0.0000  0.0000
13998SI     SI113998   3.579   5.252   0.317  0.0000  0.0000  0.0000
13999SI     SI113999   5.581   2.275   9.532  0.0000  0.0000  0.0000
14000SI     SI114000   3.248   8.800   0.393  0.0000  0.0000  0.0000
14001SI     SI114001   2.212   6.753   8.902  0.0000  0.0000  0.0000
14002SI     SI114002   5.910   3.883   9.493  0.0000  0.0000  0.0000
14003SI     SI114003   4.662   4.854   0.733  0.0000  0.0000  0.0000
14004SI     SI114004   8.034   7.537   8.846  0.0000  0.0000  0.0000
14005SI     SI114005   0.019   6.222   8.915  0.0000  0.0000  0.0000
14006SI     SI114006   4.862   4.210   0.640  0.0000  0.0000  0.0000
14007SI     SI114007   9.499   3.327   8.936  0.0000  0.0000  0.0000
14008SI     SI114008   8.006   2.420   0.143  0.0000  0.0000  0.0000
14009SI     SI114009   0.274   9.162   8.462  0.0000  0.0000  0.0000
14010SI     SI114010   5.280   1.549   9.320  0.0000  0.0000  0.0000
14011SI     SI114011   3.865   2.851   8.859  0.0000  0.0000  0.0000
14012SI     SI114012   8.888   1.593   8.939  0.0000  0.0000  0.0000
14013SI     SI114013   3.625   4.423   8.934  0.0000  0.0000  0.0000
14014SI     SI114014   2.001   4.124   0.148  0.0000  0.0000  0.0000
14015SI     SI114015   2.212   1.945   9.491  0.0000  0.0000  0.0000
14016SI     SI114016   7.721   9.297   9.350  0.0000  0.0000  0.0000
14017SI     SI114017   3.268   8.191   8.202  0.0000  0.0000  0.0000
14018SI     SI114018   7.772   8.127   9.125  0.0000  0.0000  0.0000
14019SI     SI114019   8.555   8.494   9.411  0.0000  0.0000  0.0000
14020SI     SI114020   8.596   2.795   8.947  0.0000  0.0000  0.0000
14021SI     SI114021   3.486   0.792   9.233  0.0000  0.0000  0.0000
14022SI     SI114022   5.676   4.486   0.408  0.0000  0.0000  0.0000
14023SI     SI114023   0.677   5.777   1.145  0.0000  0.0000  0.0000
14024SI     SI114024   8.558   4.471   9.430  0.0000  0.0000  0.0000
14025SI     SI114025   0.513   5.850   0.440  0.0000  0.0000  0.0000
14026SI     SI114026   3.500   4.785   8.749  0.0000  0.0000  0.0000
14027SI     SI114027   2.809   2.787   9.096  0.0000  0.0000  0.0000
14028SI     SI114028   8.768   4.534   0.756  0.0000  0.0000  0.0000
14029SI     SI114029   2.491   2.178   0.249  0.0000  0.0000  0.0000
14030SI     SI114030   4.186   6.061   9.392  0.0000  0.0000  0.0000
14031SI     SI114031   1.712   3.825   1.126  0.0000  0.0000  0.0000
14032SI     SI114032   9.248   6.189   0.763  0.0000  0.0000  0.0000
14033SI     SI114033   4.280   5.310   8.727  0.0000  0.0000  0.0000
14034SI     SI114034   9.090   6.467   9.568  0.0000  0.0000  0.0000
14035SI     SI114035   6.628   9.484   0.109  0.0000  0.0000  0.0000
14036SI     SI114036   1.518   9.102   9.267  0.0000  0.0000  0.0000
14037SI     SI114037   9.152   6.692   9.358  0.0000  0.0000  0.0000
14038SI     SI114038   2.517   5.905   8.719  0.0000  0.0000  0.0000
14039SI     SI114039   7.301   5.411   0.759  0.0000  0.0000  0.0000
14040SI     SI114040   6.222   4.221   0.868  0.0000  0.0000  0.0000
14041SI     SI114041   2.706   7.452   8.731  0.0000  0.0000  0.0000
14042SI     SI114042   7.118   1.167   1.049  0.0000  0.0000  0.0000
14043SI     SI114043   8.187   7.281   9.462  0.0000  0.0000  0.0000
14044SI     SI114044   0.208   4.744   8.525  0.0000  0.0000  0.0000
14045SI     SI114045   0.688   8.958   0.731  0.0000  0.0000  0.0000
14046SI     SI114046   6.239   2.013   8.991  0.0000  0.0000  0.0000
14047SI     SI114047   1.714   8.061   1.205  0.0000  0.0000  0.0000
14048SI     SI114048   5.979   2.898   9.160  0.0000  0.0000  0.0000
14049SI     SI114049   3.645   3.797   0.397  0.0000  0.0000  0.0000
14050SI     SI114050   6.174   0.540   0.817  0.0000  0.0000  0.0000
14051SI     SI114051   8.585   0.156   9.042  0.0000  0.0000  0.0000
14052SI     SI114052   0.095   3.469   0.556  0.0000  0.0000  0.0000
14053SI     SI114053   2.626   8.171   0.505  0.0000  0.0000  0.0000
14054SI     SI114054   6.320   2.720   9.222  0.0000  0.0000  0.0000
14055SI     SI114055   0.828   7.763   0.472  0.0000  0.0000  0.0000
14056SI     SI114056   0.826   9.453   8.584  0.0000  0.0000  0.0000
14057SI     SI114057   7.718   8.687   0.271  0.0000  0.0000  0.0000
14058SI     SI114058   2.545   9.320   8.668  0.0000  0.0000  0.0000
14059SI     SI114059   2.891   5.418   8.984  0.0000  0.0000  0.0000
14060SI     SI114060   5.846   6.817   0.737  0.0000  0.0000  0.0000
14061SI     SI114061   7.933   4.365   0.697  0.0000  0.0000  0.0000
14062SI     SI114062   4.221   3.179   9.422  0.0000  0.0000  0.0000
14063SI     SI114063   3.192   8.139   0.979  0.0000  0.0000  0.0000
14064SI     SI114064   3.646   0.778   0.182  0.0000  0.0000  0.0000
14065SI     SI114065   3.891   4.324   8.324  0.0000  0.0000  0.0000
14066SI     SI114066   4.734   1.810   0.741  0.0000  0.0000  0.0000
14067SI     SI114067   3.790   4.725   8.682  0.0000  0.0000  0.0000
14068SI     SI114068   7.805   0.473   1.136  0.0000  0.0000  0.0000
14069SI     SI114069   0.077   1.807   8.628  0.0000  0.0000  0.0000
14070SI     SI114070   0.461   5.572   1.192  0.0000  0.0000  0.0000
14071SI     SI114071   6.174   0.102   0.001  0.0000  0.0000  0.0000
14072SI     SI114072   0.544   5.502   0.094  0.0000  0.0000  0.0000
14073SI     SI114073   1.920   6.779   9.282  0.0000  0.0000  0.0000
14074SI     SI114074   3.868   8.985   0.598  0.0000  0.0000  0.0000
14075SI     SI114075   4.235   2.213   9.588  0.0000  0.0000  0.0000
14076SI     SI114076   2.444   6.241   0.919  0.0000  0.0000  0.0000
14077SI     SI114077   5.834   6.128   9.163  0.0000  0.0000  0.0000
14078SI     SI114078   5.887   5.303   8.588  0.0000  0.0000  0.0000
14079SI     SI114079   5.188   3.768   8.740  0.0000  0.0000  0.0000
14080SI     SI114080   0.173   8.161   1.107  0.0000  0.0000  0.0000
14081SI     SI114081   8.853   5.760   8.631  0.0000  0.0000  0.0000
14082SI     SI114082   8.076   6.657   0.247  0.0000  0.0000  0.0000
14083SI     SI114083   3.249   4.169   0.966  0.0000  0.0000  0.0000
14084SI     SI114084   2.456   4.427   0.098  0.0000  0.0000  0.0000
14085SI     SI114085   0.833   3.765   9.417  0.0000  0.0000  0.0000
14086SI     SI114086   2.222   7.172   0.480  0.0000  0.0000  0.0000
14087SI     SI114087   5.293   2.650   9.482  0.0000  0.0000  0.0000
14088SI     SI114088   3.451   7.790   9.477  0.0000  0.0000  0.0000
14089SI     SI114089   5.956   6.245   0.908  0.0000  0.0000  0.0000
14090SI     SI114090   3.172   5.917   0.408  0.0000  0.0000  0.0000
14091SI     SI114091   0.621   2.816   0.644  0.0000  0.0000  0.0000
14092SI     SI114092   3.138   9.059   8.979  0.0000  0.0000  0.0000
14093SI     SI114093   6.751   2.485   0.643  0.0000  0.0000  0.0000
14094SI     SI114094   6.312   1.723   0.724  0.0000  0.0000  0.0000
14095SI     SI114095   0.789   1.003   8.865  0.0000  0.0000  0.0000
14096SI     SI114096   6.905   5.385   0.560  0.0000  0.0000  0.0000
14097SI     SI114097   8.565   7.901   8.472  0.0000  0.0000  0.0000
14098SI     SI114098   8.618   8.175   8.603  0.0000  0.0000  0.0000
14099SI     SI114099   3.307   8.848   8.819  0.0000  0.0000  0.0000
14100SI     SI114100   8.875   8.730   0.045  0.0000  0.0000  0.0000
14101SI     SI114101   6.952   7.192   9.306  0.0000  0.0000  0.0000
14102SI     SI114102   2.966   8.003   9.497  0.0000  0.0000  0.0000
14103SI     SI114103   3.073   9.478   0.004  0.0000  0.0000  0.0000
14104SI     SI114104   3.075   4.151   0.706  0.0000  0.0000  0.0000
14105SI     SI114105   5.154   8.200   8.482  0.0000  0.0000  0.0000
14106SI     SI114106   1.562   8.283   1.026  0.0000  0.0000  0.0000
14107SI     SI114107   0.668   7.641   0.094  0.0000  0.0000  0.0000
14108SI     SI114108   7.216   4.025   0.898  0.0000  0.0000  0.0000
14109SI     SI114109   6.986   2.576   9.340  0.0000  0.0000  0.0000
14110SI     SI114110   7.137   0.268   8.704  0.0000  0.0000  0.0000
14111SI     SI114111   3.052   7.748   0.052  0.0000  0.0000  0.0000
14112SI     SI114112   8.094   6.963   9.151  0.0000  0.0000  0.0000
14113SI     SI114113   6.278   9.121   9.143  0.0000  0.0000  0.0000
14114SI     SI114114   2.895   4.464   9.113  0.0000  0.0000  0.0000
14115SI     SI114115   8.926   1.392   0.245  0.0000  0.0000  0.0000
14116SI     SI114116   0.972   0.139   9.239  0.0000  0.0000  0.0000
14117SI     SI114117   6.249   4.510   0.366  0.0000  0.0000  0.0000
14118SI     SI114118   3.551   2.559   9.038  0.0000  0.0000  0.0000
14119SI     SI114119   2.413   1.356   0.201  0.0000  0.0000  0.0000
14120SI     SI114120   4.406   2.930   9.366  0.0000  0.0000  0.0000
14121SI     SI114121   8.540   8.642   0.586  0.0000  0.0000  0.0000
14122SI     SI114122   1.992   0.563   0.460  0.0000  0.0000  0.0000
14123SI     SI114123   9.407   9.064   9.316  0.0000  0.0000  0.0000
14124SI     SI114124   2.249   9.181   9.262  0.0000  0.0000  0.0000
14125SI     SI114125   3.567   7.070   0.399  0.0000  0.0000  0.0000
14126SI     SI114126   6.912   7.588   8.918  0.0000  0.0000  0.0000
14127SI     SI114127   7.136   8.244   0.296  0.0000  0.0000  0.0000
14128SI     SI114128   6.707   8.472   0.990  0.0000  0.0000  0.0000
14129SI     SI114129   3.324   1.495   0.497  0.0000  0.0000  0.0000
14130SI     SI114130   0.786   2.399   8.434  0.0000  0.0000  0.0000
14131SI     SI114131   0.633   6.849   0.226  0.0000  0.0000  0.0000
14132SI     SI114132   4.596   8.186   8.337  0.0000  0.0000  0.0000
14133SI     SI114133   5.211   8.499   8.485  0.0000  0.0000  0.0000
14134SI     SI114134   4.766   1.932   8.545  0.0000  0.0000  0.0000
14135SI     SI114135   6.803   2.227   0.466  0.0000  0.0000  0.0000
14136SI     SI114136   8.570   2.474   0.225  0.0000  0.0000  0.0000
14137SI     SI114137   8.572   8.243   0.133  0.0000  0.0000  0.0000
14138SI     SI114138   4.621   8.804   0.745  0.0000  0.0000  0.0000
14139SI     SI114139   1.419   6.507   0.627  0.0000  0.0000  0.0000
14140SI     SI114140   1.019   9.128   8.543  0.0000  0.0000  0.0000
14141SI     SI114141   7.064   7.775   1.004  0.0000  0.0000  0.0000
14142SI     SI114142   2.639   9.145   0.605  0.0000  0.0000  0.0000
14143SI     SI114143   9.483   6.049   8.486  0.0000  0.0000  0.0000
14144SI     SI114144   4.342   7.590   9.215  0.0000  0.0000  0.0000
14145SI     SI114145   6.632   2.715   9.025  0.0000  0.0000  0.0000
14146SI     SI114146   4.238   8.445   9.506  0.0000  0.0000  0.0000
14147SI     SI114147   7.650   5.256   8.646  0.0000  0.0000  0.0000
14148SI     SI114148   1.273   6.030   0.716  0.0000  0.0000  0.0000
14149SI     SI114149   2.776   1.060   8.777  0.0000  0.0000  0.0000
14150SI     SI114150   7.550   8.210   1.005  0.0000  0.0000  0.0000
14151SI     SI114151   5.440   4.217   0.140  0.0000  0.0000  0.0000
14152SI     SI114152   3.950   0.229   0.912  0.0000  0.0000  0.0000
14153SI     SI114153   0.974   6.919   1.015  0.0000  0.0000  0.0000
14154SI     SI114154   6.985   3.402   0.012  0.0000  0.0000  0.0000
14155SI     SI114155   2.949   4.011   8.883  0.0000  0.0000  0.0000
14156SI     SI114156   3.930   8.838   9.341  0.0000  0.0000  0.0000
14157SI     SI114157   3.998   4.868   9.326  0.0000  0.0000  0.0000
14158SI     SI114158   8.987   5.269   1.000  0.0000  0.0000  0.0000
14159SI     SI114159   2.158   5.273   9.333  0.0000  0.0000  0.0000
14160SI     SI114160   9.279   7.472   9.174  0.0000  0.0000  0.0000
14161SI     SI114161   9.169   4.316   1.063  0.0000  0.0000  0.0000
14162SI     SI114162   2.540   5.104   1.125  0.0000  0.0000  0.0000
14163SI     SI114163   9.352   3.386   0.804  0.0000  0.0000  0.0000
14164SI     SI114164   3.699   8.723   0.200  0.0000  0.0000  0.0000
14165SI     SI114165   4.305   6.501   0.767  0.0000  0.0000  0.0000
14166SI     SI114166   7.790   1.724   0.602  0.0000  0.0000  0.0000
14167SI     SI114167   1.345   5.905   0.256  0.0000  0.0000  0.0000
14168SI     SI114168   6.003   1.054   9.351  0.0000  0.0000  0.0000
14169SI     SI114169   1.141   1.761   0.223  0.0000  0.0000  0.0000
14170SI     SI114170   1.895   7.116   1.162  0.0000  0.0000  0.0000
14171SI     SI114171   4.660   5.773   8.807  0.0000  0.0000  0.0000
14172SI     SI114172   0.383   7.766   8.618  0.0000  0.0000  0.0000
14173SI     SI114173   3.729   4.787   0.539  0.0000  0.0000  0.0000
14174SI     SI114174   9.387   3.111   0.955  0.0000  0.0000  0.0000
14175SI     SI114175   2.271   7.953   0.832  0.0000  0.0000  0.0000
14176SI     SI114176   1.749   2.201   0.046  0.0000  0.0000  0.0000
14177SI     SI114177   7.609   0.999   0.643  0.0000  0.0000  0.0000
14178SI     SI114178   9.248   2.913   8.728  0.0000  0.0000  0.0000
14179SI     SI114179   2.752   1.268   9.460  0.0000  0.0000  0.0000
14180SI     SI114180   5.757   5.335   0.885  0.0000  0.0000  0.0000
14181SI     SI114181   8.915   8.592   8.680  0.0000  0.0000  0.0000
14182SI     SI114182   5.913   0.703   0.346  0.0000  0.0000  0.0000
14183SI     SI114183   3.047   6.718   0.475  0.0000  0.0000  0.0000
14184SI     SI114184   4.773   1.327   9.319  0.0000  0.0000  0.0000
14185SI     SI114185   8.762   6.636   8.877  0.0000  0.0000  0.0000
14186SI     SI114186   8.976   3.553   9.308  0.0000  0.0000  0.0000
14187SI     SI114187   1.169   0.296   8.823  0.0000  0.0000  0.0000
14188SI     SI114188   8.891   8.840   8.518  0.0000  0.0000  0.0000
14189SI     SI114189   2.524   4.135   0.195  0.0000  0.0000  0.0000
14190SI     SI114190   5.153   1.801   0.305  0.0000  0.0000  0.0000
14191SI     SI114191   5.597   7.480   1.358  0.0000  0.0000  0.0000
14192SI     SI114192   5.210   0.219   1.127  0.0000  0.0000  0.0000
14193SI     SI114193   3.775   5.154   9.039  0.0000  0.0000  0.0000
14194SI     SI114194   5.545   5.982   8.911  0.0000  0.0000  0.0000
14195SI     SI114195   5.622   3.571   0.646  0.0000  0.0000  0.0000
14196SI     SI114196   5.910   9.529   9.055  0.0000  0.0000  0.0000
14197SI     SI114197   8.183   2.760   9.120  0.0000  0.0000  0.0000
14198SI     SI114198   6.764   6.794   9.177  0.0000  0.0000  0.0000
14199SI     SI114199   4.212   2.475   8.457  0.0000  0.0000  0.0000
14200SI     SI114200   7.428   3.551   0.722  0.0000  0.0000  0.0000
14201SI     SI114201   9.580   0.111   8.380  0.0000  0.0000  0.0000
14202SI     SI114202   3.916   0.944   8.656  0.0000  0.0000  0.0000
14203SI     SI114203   0.987   3.459   8.745  0.0000  0.0000  0.0000
14204SI     SI114204   1.886   5.219   9.192  0.0000  0.0000  0.0000
14205SI     SI114205   2.955   0.483   8.988  0.0000  0.0000  0.0000
14206SI     SI114206   7.410   7.382   8.467  0.0000  0.0000  0.0000
14207SI     SI114207   7.514   9.496   9.003  0.0000  0.0000  0.0000
14208SI     SI114208   1.884   0.029   8.742  0.0000  0.0000  0.0000
14209SI     SI114209   2.616   8.908   9.514  0.0000  0.0000  0.0000
14210SI     SI114210   5.484   7.200   9.384  0.0000  0.0000  0.0000
14211SI     SI114211   8.011   3.005   9.190  0.0000  0.0000  0.0000
14212SI     SI114212   6.678   3.897   1.122  0.0000  0.0000  0.0000
14213SI     SI114213   3.030   8.976   0.493  0.0000  0.0000  0.0000
14214SI     SI114214   6.967   8.981   1.193  0.0000  0.0000  0.0000
14215SI     SI114215   7.849   3.513   0.453  0.0000  0.0000  0.0000
14216SI     SI114216   0.545   5.091   0.406  0.0000  0.0000  0.0000
14217SI     SI114217   0.853   4.849   8.686  0.0000  0.0000  0.0000
14218SI     SI114218   7.211   8.226   9.084  0.0000  0.0000  0.0000
14219SI     SI114219   4.936   0.591   0.278  0.0000  0.0000  0.0000
14220SI     SI114220   1.513   1.119   9.431  0.0000  0.0000  0.0000
14221SI     SI114221   5.847   1.974   0.854  0.0000  0.0000  0.0000
14222SI     SI114222   3.658   3.247   9.283  0.0000  0.0000  0.0000
14223SI     SI114223   0.765   2.814   0.010  0.0000  0.0000  0.0000
14224SI     SI114224   0.357   4.034   0.798  0.0000  0.0000  0.0000
14225SI     SI114225   8.985   6.158   8.808  0.0000  0.0000  0.0000
14226SI     SI114226   2.070   7.012   8.849  0.0000  0.0000  0.0000
14227SI     SI114227   3.357   2.387   8.862  0.0000  0.0000  0.0000
14228SI     SI114228   6.679   8.383   0.490  0.0000  0.0000  0.0000
14229SI     SI114229   7.546   1.533   8.760  0.0000  0.0000  0.0000
14230SI     SI114230   3.044   2.722   0.686  0.0000  0.0000  0.0000
14231SI     SI114231   2.672   1.005   9.295  0.0000  0.0000  0.0000
14232SI     SI114232   0.570   4.545   0.285  0.0000  0.0000  0.0000
14233SI     SI114233   8.382   4.766   9.019  0.0000  0.0000  0.0000
14234SI     SI114234   6.117   2.307   9.015  0.0000  0.0000  0.0000
14235SI     SI114235   9.060   0.372   0.800  0.0000  0.0000  0.0000
14236SI     SI114236   2.118   2.292   0.819  0.0000  0.0000  0.0000
14237SI     SI114237   7.310   1.655   9.495  0.0000  0.0000  0.0000
14238SI     SI114238   0.059   9.498   0.909  0.0000  0.0000  0.0000
14239SI     SI114239   2.892   4.205   0.218  0.0000  0.0000  0.0000
14240SI     SI114240   7.482   4.579   9.021  0.0000  0.0000  0.0000
14241SI     SI114241   2.366   8.972   9.055  0.0000  0.0000  0.0000
14242SI     SI114242   2.940   7.195   9.131  0.0000  0.0000  0.0000
14243SI     SI114243   2.668   6.921   9.359  0.0000  0.0000  0.0000
14244SI     SI114244   1.880   5.750   8.289  0.0000  0.0000  0.0000
14245SI     SI114245   1.661   7.962   9.286  0.0000  0.0000  0.0000
14246SI     SI114246   5.999   4.196   9.045  0.0000  0.0000  0.0000
14247SI     SI114247   9.547   0.922   0.520  0.0000  0.0000  0.0000
14248SI     SI114248   8.132   1.040   0.742  0.0000  0.0000  0.0000
14249SI     SI114249   3.077   8.343   0.508  0.0000  0.0000  0.0000
14250SI     SI114250   8.785   4.505   1.073  0.0000  0.0000  0.0000
14251SI     SI114251   4.711   4.921   9.173  0.0000  0.0000  0.0000
14252SI     SI114252   3.124   4.979   0.195  0.0000  0.0000  0.0000
14253SI     SI114253   3.215   5.807   8.825  0.0000  0.0000  0.0000
14254SI     SI114254   2.873   0.496   0.643  0.0000  0.0000  0.0000
14255SI     SI114255   6.606   0.776   0.628  0.0000  0.0000  0.0000
14256SI     SI114256   2.326   5.433   0.590  0.0000  0.0000  0.0000
14257SI     SI114257   2.115   0.047   0.986  0.0000  0.0000  0.0000
14258SI     SI114258   9.355   3.875   0.809  0.0000  0.0000  0.0000
14259SI     SI114259   1.440   2.853   0.139  0.0000  0.0000  0.0000
14260SI     SI114260   1.225   1.931   9.347  0.0000  0.0000  0.0000
14261SI     SI114261   1.510   5.449   0.057  0.0000  0.0000  0.0000
14262SI     SI114262   1.904   7.871   8.540  0.0000  0.0000  0.0000
14263SI     SI114263   8.287   3.054   8.733  0.0000  0.0000  0.0000
14264SI     SI114264   4.853   0.684   9.046  0.0000  0.0000  0.0000
14265SI     SI114265   3.246   7.445   0.196  0.0000  0.0000  0.0000
14266SI     SI114266   1.459   8.679   0.743  0.0000  0.0000  0.0000
14267SI     SI114267   5.602   4.022   8.573  0.0000  0.0000  0.0000
14268SI     SI114268   6.803   6.344   9.309  0.0000  0.0000  0.0000
14269SI     SI114269   0.065   9.294   0.477  0.0000  0.0000  0.0000
14270SI     SI114270   8.473   2.353   9.076  0.0000  0.0000  0.0000
14271SI     SI114271   4.503   0.617   9.413  0.0000  0.0000  0.0000
14272SI     SI114272   7.980   1.926   0.212  0.0000  0.0000  0.0000
14273SI     SI114273   0.933   8.216   1.141  0.0000  0.0000  0.0000
14274SI     SI114274   7.643   0.136   0.834  0.0000  0.0000  0.0000
14275SI     SI114275   1.056   3.018   8.976  0.0000  0.0000  0.0000
14276SI     SI114276   5.897   8.446   0.269  0.0000  0.0000  0.0000
14277SI     SI114277   5.487   0.249   0.348  0.0000  0.0000  0.0000
14278SI     SI114278   5.311   2.012   0.759  0.0000  0.0000  0.0000
14279SI     SI114279   8.740   1.075   0.707  0.0000  0.0000  0.0000
14280SI     SI114280   7.226   6.146   0.582  0.0000  0.0000  0.0000
14281SI     SI114281   6.812   7.045   8.818  0.0000  0.0000  0.0000
14282SI     SI114282   5.366   9.367   9.002  0.0000  0.0000  0.0000
14283SI     SI114283   9.144   8.246   8.727  0.0000  0.0000  0.0000
14284SI     SI114284   6.259   6.719   9.130  0.0000  0.0000  0.0000
14285SI     SI114285   5.128   5.795   9.204  0.0000  0.0000  0.0000
14286SI     SI114286   8.959   1.468   8.444  0.0000  0.0000  0.0000
14287SI     SI114287   2.053   9.509   0.167  0.0000  0.0000  0.0000
14288SI     SI114288   6.370   5.789   0.489  0.0000  0.0000  0.0000
14289SI     SI114289   2.447   0.775   0.535  0.0000  0.0000  0.0000
14290SI     SI114290   6.171   7.422   8.835  0.0000  0.0000  0.0000
14291SI     SI114291   2.591   5.744   0.007  0.0000  0.0000  0.0000
14292SI     SI114292   2.221   3.272   9.469  0.0000  0.0000  0.0000
14293SI     SI114293   8.462   6.674   9.235  0.0000  0.0000  0.0000
14294SI     SI114294   5.992   0.169   0.465  0.0000  0.0000  0.0000
14295SI     SI114295   8.937   3.322   0.073  0.0000  0.0000  0.0000
14296SI     SI114296   9.402   4.927   0.162  0.0000  0.0000  0.0000
14297SI     SI114297   0.617   6.470   0.059  0.0000  0.0000  0.0000
14298SI     SI114298   8.796   8.395   8.466  0.0000  0.0000  0.0000
14299SI     SI114299   3.877   5.318   0.351  0.0000  0.0000  0.0000
14300SI     SI114300   8.772   1.145   1.148  0.0000  0.0000  0.0000
14301SI     SI114301   5.844   0.968   9.593  0.0000  0.0000  0.0000
14302SI     SI114302   3.104   7.679   8.503  0.0000  0.0000  0.0000
14303SI     SI114303   7.734   6.505   9.316  0.0000  0.0000  0.0000
14304SI     SI114304   3.757   1.198   9.054  0.0000  0.0000  0.0000
14305SI     SI114305   3.956   0.645   9.503  0.0000  0.0000  0.0000
14306SI     SI114306   6.985   6.982   9.065  0.0000  0.0000  0.0000
14307SI     SI114307   7.054   6.542   0.959  0.0000  0.0000  0.0000
14308SI     SI114308   5.868   2.882   0.219  0.0000  0.0000  0.0000
14309SI     SI114309   1.319   3.943   0.839  0.0000  0.0000  0.0000
14310SI     SI114310   8.848   7.163   0.693  0.0000  0.0000  0.0000
14311SI     SI114311   4.640   0.552   0.920  0.0000  0.0000  0.0000
14312SI     SI114312   7.535   5.431   8.852  0.0000  0.0000  0.0000
14313SI     SI114313   8.940   2.550   9.053  0.0000  0.0000  0.0000
14314SI     SI114314   4.986   5.070   9.205  0.0000  0.0000  0.0000
14315SI     SI114315   4.618   8.460   9.013  0.0000  0.0000  0.0000
14316SI     SI114316   3.017   1.948   1.099  0.0000  0.0000  0.0000
14317SI     SI114317   6.861   1.653   1.030  0.0000  0.0000  0.0000
14318SI     SI114318   3.720   8.801   1.012  0.0000  0.0000  0.0000
14319SI     SI114319   7.240   2.565   8.625  0.0000  0.0000  0.0000
14320SI     SI114320   3.238   3.515   8.833  0.0000  0.0000  0.0000
14321SI     SI114321   1.660   5.190   0.008  0.0000  0.0000  0.0000
14322SI     SI114322   5.043   9.373   9.297  0.0000  0.0000  0.0000
14323SI     SI114323   9.283   6.459   0.663  0.0000  0.0000  0.0000
14324SI     SI114324   7.819   1.281   0.153  0.0000  0.0000  0.0000
14325SI     SI114325   4.338   7.028   0.899  0.0000  0.0000  0.0000
14326SI     SI114326   7.812   6.484   0.193  0.0000  0.0000  0.0000
14327SI     SI114327   0.472   0.404   9.101  0.0000  0.0000  0.0000
14328SI     SI114328   8.124   5.058   9.351  0.0000  0.0000  0.0000
14329SI     SI114329   0.255   6.174   9.334  0.0000  0.0000  0.0000
14330SI     SI114330   3.966   1.651   1.207  0.0000  0.0000  0.0000
14331SI     SI114331   1.673   7.335   1.136  0.0000  0.0000  0.0000
14332SI     SI114332   4.665   1.074   9.164  0.0000  0.0000  0.0000
14333SI     SI114333   0.258   7.466   8.345  0.0000  0.0000  0.0000
14334SI     SI114334   7.569   7.178   9.018  0.0000  0.0000  0.0000
14335SI     SI114335   8.967   4.631   8.613  0.0000  0.0000  0.0000
14336SI     SI114336   0.844   0.154   0.656  0.0000  0.0000  0.0000
14337SI     SI114337   1.404   4.800   0.869  0.0000  0.0000  0.0000
14338SI     SI114338   4.715   0.476   8.604  0.0000  0.0000  0.0000
14339SI     SI114339   4.657   9.262   9.511  0.0000  0.0000  0.0000
14340SI     SI114340   1.600   4.754   9.297  0.0000  0.0000  0.0000
14341SI     SI114341   3.816   6.858   0.895  0.0000  0.0000  0.0000
14342SI     SI114342   7.092   2.217   9.005  0.0000  0.0000  0.0000
14343SI     SI114343   1.029   4.961   0.954  0.0000  0.0000  0.0000
14344SI     SI114344   3.811   1.328   0.580  0.0000  0.0000  0.0000
14345SI     SI114345   8.623   2.929   0.097  0.0000  0.0000  0.0000
14346SI     SI114346   2.939   1.712   9.422  0.0000  0.0000  0.0000
14347SI     SI114347   8.563   2.908   0.791  0.0000  0.0000  0.0000
14348SI     SI114348   4.730   0.793   9.301  0.0000  0.0000  0.0000
14349SI     SI114349   8.818   6.557   0.913  0.0000  0.0000  0.0000
14350SI     SI114350   1.305   2.695   0.611  0.0000  0.0000  0.0000
14351SI     SI114351   2.880   4.027   9.391  0.0000  0.0000  0.0000
14352SI     SI114352   1.871   9.314   9.599  0.0000  0.0000  0.0000
14353SI     SI114353   7.606   7.903   0.103  0.0000  0.0000  0.0000
14354SI     SI114354   6.336   9.493   8.793  0.0000  0.0000  0.0000
14355SI     SI114355   0.829   4.759   0.009  0.0000  0.0000  0.0000
14356SI     SI114356   6.419   9.253   1.076  0.0000  0.0000  0.0000
14357SI     SI114357   7.983   1.842   9.221  0.0000  0.0000  0.0000
14358SI     SI114358   1.949   5.737   0.365  0.0000  0.0000  0.0000
14359SI     SI114359   1.448   5.386   8.399  0.0000  0.0000  0.0000
14360SI     SI114360   4.907   2.768   0.925  0.0000  0.0000  0.0000
14361SI     SI114361   0.707   1.421   8.908  0.0000  0.0000  0.0000
14362SI     SI114362   5.879   7.130   0.721  0.0000  0.0000  0.0000
14363SI     SI114363   6.556   6.217   8.594  0.0000  0.0000  0.0000
14364SI     SI114364   3.546   6.401   9.242  0.0000  0.0000  0.0000
14365SI     SI114365   8.252   6.796   8.431  0.0000  0.0000  0.0000
14366SI     SI114366   3.067   8.361   8.797  0.0000  0.0000  0.0000
14367SI     SI114367   7.326   4.614   1.012  0.0000  0.0000  0.0000
14368SI     SI114368   2.658   5.641   9.325  0.0000  0.0000  0.0000
14369SI     SI114369   9.496   5.973   8.795  0.0000  0.0000  0.0000
14370SI     SI114370   1.872   9.061   0.416  0.0000  0.0000  0.0000
14371SI     SI114371   4.919   9.562   9.521  0.0000  0.0000  0.0000
14372SI     SI114372   1.778   4.537   9.211  0.0000  0.0000  0.0000
14373SI     SI114373   3.942   8.608   8.420  0.0000  0.0000  0.0000
14374SI     SI114374   4.274   1.568   8.488  0.0000  0.0000  0.0000
14375SI     SI114375   2.669   2.752   8.643  0.0000  0.0000  0.0000
14376SI     SI114376   1.697   4.062   8.476  0.0000  0.0000  0.0000
14377SI     SI114377   4.247   9.313   9.176  0.0000  0.0000  0.0000
14378SI     SI114378   8.015   8.892   0.081  0.0000  0.0000  0.0000
14379SI     SI114379   6.146   3.555   1.185  0.0000  0.0000  0.0000
14380SI     SI114380   9.402   1.378   0.855  0.0000  0.0000  0.0000
14381SI     SI114381   0.902   2.730   9.353  0.0000  0.0000  0.0000
14382SI     SI114382   7.134   3.512   8.676  0.0000  0.0000  0.0000
14383SI     SI114383   4.208   7.376   0.561  0.0000  0.0000  0.0000
14384SI     SI114384   7.871   7.524   0.775  0.0000  0.0000  0.0000
14385SI     SI114385   0.781   7.995   0.680  0.0000  0.0000  0.0000
14386SI     SI114386   7.535   8.896   0.373  0.0000  0.0000  0.0000
14387SI     SI114387   6.157   9.430   0.681  0.0000  0.0000  0.0000
14388SI     SI114388   6.248   3.907   0.843  0.0000  0.0000  0.0000
14389SI     SI114389   3.761   0.055   0.552  0.0000  0.0000  0.0000
14390SI     SI114390   8.957   2.160   8.512  0.0000  0.0000  0.0000
14391SI     SI114391   7.743   5.040   0.590  0.0000  0.0000  0.0000
14392SI     SI114392   0.063   1.509   8.518  0.0000  0.0000  0.0000
14393SI     SI114393   6.430   9.512   9.247  0.0000  0.0000  0.0000
14394SI     SI114394   9.425   7.674   0.692  0.0000  0.0000  0.0000
14395SI     SI114395   5.046   7.968   0.018  0.0000  0.0000  0.0000
14396SI     SI114396   4.617   1.404   0.454  0.0000  0.0000  0.0000
14397SI     SI114397   7.625   3.971   8.536  0.0000  0.0000  0.0000
14398SI     SI114398   4.985   0.413   8.705  0.0000  0.0000  0.0000
14399SI     SI114399   0.543   2.908   8.757  0.0000  0.0000  0.0000
14400SI     SI114400   8.981   3.058   0.467  0.0000  0.0000  0.0000
14401SI     SI114401   6.455   5.272   9.297  0.0000  0.0000  0.0000
14402SI     SI114402   3.624   4.118   9.004  0.0000  0.0000  0.0000
14403SI     SI114403   6.019   8.793   1.100  0.0000  0.0000  0.0000
14404SI     SI114404   6.175   8.998   8.416  0.0000  0.0000  0.0000
14405SI     SI114405   0.876   9.482   0.916  0.0000  0.0000  0.0000
14406SI     SI114406   0.794   8.653   8.644  0.0000  0.0000  0.0000
14407SI     SI114407   3.614   2.864   9.049  0.0000  0.0000  0.0000
14408SI     SI114408   6.015   5.172   0.381  0.0000  0.0000  0.0000
14409SI     SI114409   8.354   4.574   1.035  0.0000  0.0000  0.0000
14410SI     SI114410   8.276   6.687   8.835  0.0000  0.0000  0.0000
14411SI     SI114411   1.708   3.076   0.990  0.0000  0.0000  0.0000
14412SI     SI114412   3.788   1.310   9.351  0.0000  0.0000  0.0000
14413SI     SI114413   2.557   8.073   0.801  0.0000  0.0000  0.0000
14414SI     SI114414   0.063   4.140   8.849  0.0000  0.0000  0.0000
14415SI     SI114415   7.244   7.672   0.373  0.0000  0.0000  0.0000
14416SI     SI114416   4.043   1.079   8.400  0.0000  0.0000  0.0000
14417SI     SI114417   5.056   4.541   8.836  0.0000  0.0000  0.0000
14418SI     SI114418   9.568   8.572   0.317  0.0000  0.0000  0.0000
14419SI     SI114419   5.276   4.317   0.892  0.0000  0.0000  0.0000
14420SI     SI114420   2.851   1.065   1.045  0.0000  0.0000  0.0000
14421SI     SI114421   1.582   2.813   0.682  0.0000  0.0000  0.0000
14422SI     SI114422   0.281   8.513   8.967  0.0000  0.0000  0.0000
14423SI     SI114423   8.341   9.241   1.076  0.0000  0.0000  0.0000
14424SI     SI114424   7.639   0.427   9.149  0.0000  0.0000  0.0000
14425SI     SI114425   3.935   1.546   0.736  0.0000  0.0000  0.0000
14426SI     SI114426   4.154   4.072   8.547  0.0000  0.0000  0.0000
14427SI     SI114427   4.901   5.339   9.096  0.0000  0.0000  0.0000
14428SI     SI114428   3.116   2.093   8.559  0.0000  0.0000  0.0000
14429SI     SI114429   4.378   6.499   8.474  0.0000  0.0000  0.0000
14430SI     SI114430   6.695   4.283   9.215  0.0000  0.0000  0.0000
14431SI     SI114431   6.116   4.803   8.680  0.0000  0.0000  0.0000
14432SI     SI114432   7.709   1.827   0.321  0.0000  0.0000  0.0000
14433SI     SI114433   1.397   8.064   0.018  0.0000  0.0000  0.0000
14434SI     SI114434   0.180   3.035   1.170  0.0000  0.0000  0.0000
14435SI     SI114435   9.339   4.690   9.338  0.0000  0.0000  0.0000
14436SI     SI114436   2.749   4.235   8.951  0.0000  0.0000  0.0000
14437SI     SI114437   3.711   6.313   8.849  0.0000  0.0000  0.0000
14438SI     SI114438   9.067   0.847   0.536  0.0000  0.0000  0.0000
14439SI     SI114439   5.525   6.051   9.188  0.0000  0.0000  0.0000
14440SI     SI114440   8.636   0.387   0.486  0.0000  0.0000  0.0000
14441SI     SI114441   1.828   9.402   8.933  0.0000  0.0000  0.0000
14442SI     SI114442   5.291   5.509   0.314  0.0000  0.0000  0.0000
14443SI     SI114443   2.038   0.420   9.024  0.0000  0.0000  0.0000
14444SI     SI114444   3.917   4.471   8.816  0.0000  0.0000  0.0000
14445SI     SI114445   5.572   3.905   1.122  0.0000  0.0000  0.0000
14446SI     SI114446   9.395   3.648   9.290  0.0000  0.0000  0.0000
14447SI     SI114447   4.172   7.193   9.235  0.0000  0.0000  0.0000
14448SI     SI114448   2.924   6.586   8.464  0.0000  0.0000  0.0000
14449SI     SI114449   7.149   2.929   0.012  0.0000  0.0000  0.0000
14450SI     SI114450   7.668   6.355   0.447  0.0000  0.0000  0.0000
14451SI     SI114451   8.347   0.764   8.614  0.0000  0.0000  0.0000
14452SI     SI114452   1.031   2.344   8.609  0.0000  0.0000  0.0000
14453SI     SI114453   2.800   1.006   0.320  0.0000  0.0000  0.0000
14454SI     SI114454   6.370   0.442   0.385  0.0000  0.0000  0.0000
14455SI     SI114455   1.150   5.265   9.241  0.0000  0.0000  0.0000
14456SI     SI114456   1.865   9.421   8.507  0.0000  0.0000  0.0000
14457SI     SI114457   8.551   8.153   0.757  0.0000  0.0000  0.0000
14458SI     SI114458   0.629   8.214   1.198  0.0000  0.0000  0.0000
14459SI     SI114459   9.279   0.276   8.714  0.0000  0.0000  0.0000
14460SI     SI114460   6.256   0.164   0.297  0.0000  0.0000  0.0000
14461SI     SI114461   8.592   7.145   9.085  0.0000  0.0000  0.0000
14462SI     SI114462   8.075   6.619   0.557  0.0000  0.0000  0.0000
14463SI     SI114463   3.573   0.292   0.625  0.0000  0.0000  0.0000
14464SI     SI114464   9.162   3.606   9.075  0.0000  0.0000  0.0000
14465SI     SI114465   2.599   1.996   9.152  0.0000  0.0000  0.0000
14466SI     SI114466   5.117   6.666   1.050  0.0000  0.0000  0.0000
14467SI     SI114467   2.411   7.038   9.261  0.0000  0.0000  0.0000
14468SI     SI114468   6.997   1.248   0.186  0.0000  0.0000  0.0000
14469SI     SI114469   6.725   7.764   8.504  0.0000  0.0000  0.0000
14470SI     SI114470   4.621   2.473   0.021  0.0000  0.0000  0.0000
14471SI     SI114471   7.666   6.977   8.523  0.0000  0.0000  0.0000
14472SI     SI114472   5.296   5.319   1.077  0.0000  0.0000  0.0000
14473SI     SI114473   6.914   8.170   0.949  0.0000  0.0000  0.0000
14474SI     SI114474   7.507   2.308   0.682  0.0000  0.0000  0.0000
14475SI     SI114475   7.132   8.896   8.408  0.0000  0.0000  0.0000
14476SI     SI114476   0.013   2.532   1.057  0.0000  0.0000  0.0000
14477SI     SI114477   5.260   0.913   9.122  0.0000  0.0000  0.0000
14478SI     SI114478   5.888   5.562   1.032  0.0000  0.0000  0.0000
14479SI     SI114479   0.780   4.965   0.235  0.0000  0.0000  0.0000
14480SI     SI114480   5.659   0.703   0.536  0.0000  0.0000  0.0000
14481SI     SI114481   2.006   5.235   1.127  0.0000  0.0000  0.0000
14482SI     SI114482   5.162   3.418   0.679  0.0000  0.0000  0.0000
14483SI     SI114483   6.681   8.171   9.028  0.0000  0.0000  0.0000
14484SI     SI114484   6.432   3.013   9.233  0.0000  0.0000  0.0000
14485SI     SI114485   9.140   1.911   8.593  0.0000  0.0000  0.0000
14486SI     SI114486   9.093   1.912   0.132  0.0000  0.0000  0.0000
14487SI     SI114487   9.027   3.010   8.519  0.0000  0.0000  0.0000
14488SI     SI114488   0.771   5.112   1.039  0.0000  0.0000  0.0000
14489SI     SI114489   6.141   5.209   0.660  0.0000  0.0000  0.0000
14490SI     SI114490   1.093   2.326   0.978  0.0000  0.0000  0.0000
14491SI     SI114491   1.483   7.906   8.661  0.0000  0.0000  0.0000
14492SI     SI114492   6.982   4.026   0.227  0.0000  0.0000  0.0000
14493SI     SI114493   1.233   2.864   0.356  0.0000  0.0000  0.0000
14494SI     SI114494   5.059   9.368   8.660  0.0000  0.0000  0.0000
14495SI     SI114495   6.517   1.206   0.218  0.0000  0.0000  0.0000
14496SI     SI114496   2.253   0.573   8.577  0.0000  0.0000  0.0000
14497SI     SI114497   0.136   7.142   9.291  0.0000  0.0000  0.0000
14498SI     SI114498   3.646   9.172   0.499  0.0000  0.0000  0.0000
14499SI     SI114499   6.420   6.876   9.586  0.0000  0.0000  0.0000
14500SI     SI114500   2.741   7.210   0.572  0.0000  0.0000  0.0000
14501SI     SI114501   2.816   3.361   0.739  0.0000  0.0000  0.0000
14502SI     SI114502   2.012   2.191   9.482  0.0000  0.0000  0.0000
14503SI     SI114503   9.076   1.847   8.896  0.0000  0.0000  0.0000
14504SI     SI114504   1.665   1.639   8.804  0.0000  0.0000  0.0000
14505SI     SI114505   9.452   0.971   1.069  0.0000  0.0000  0.0000
14506SI     SI114506   4.234   3.893   8.341  0.0000  0.0000  0.0000
14507SI     SI114507   7.524   7.281   0.594  0.0000  0.0000  0.0000
14508SI     SI114508   2.587   0.506   0.516  0.0000  0.0000  0.0000
14509SI     SI114509   0.227   1.751   0.187  0.0000  0.0000  0.0000
14510SI     SI114510   7.017   6.028   1.036  0.0000  0.0000  0.0000
14511SI     SI114511   1.497   3.847   1.329  0.0000  0.0000  0.0000
14512SI     SI114512   2.728   5.304   8.491  0.0000  0.0000  0.0000
14513SI     SI114513   4.929   5.548   8.427  0.0000  0.0000  0.0000
14514SI     SI114514   3.959   2.011   9.412  0.0000  0.0000  0.0000
14515SI     SI114515   4.903   6.974   8.631  0.0000  0.0000  0.0000
14516SI     SI114516   7.115   7.613   9.369  0.0000  0.0000  0.0000
14517SI     SI114517   7.986   1.889   0.776  0.0000  0.0000  0.0000
14518SI     SI114518   1.999   5.708   9.472  0.0000  0.0000  0.0000
14519SI     SI114519   0.281   8.199   9.431  0.0000  0.0000  0.0000
14520SI     SI114520   0.288   4.763   0.529  0.0000  0.0000  0.0000
14521SI     SI114521   3.003   7.488   0.777  0.0000  0.0000  0.0000
14522SI     SI114522   0.755   3.614   0.079  0.0000  0.0000  0.0000
14523SI     SI114523   6.594   1.679   8.973  0.0000  0.0000  0.0000
14524SI     SI114524   1.424   6.037   8.329  0.0000  0.0000  0.0000
14525SI     SI114525   2.210   5.883   9.324  0.0000  0.0000  0.0000
14526SI     SI114526   8.332   3.110   8.430  0.0000  0.0000  0.0000
14527SI     SI114527   2.182   7.656   9.197  0.0000  0.0000  0.0000
14528SI     SI114528   1.114   4.075   0.283  0.0000  0.0000  0.0000
14529SI     SI114529   6.477   9.325   9.016  0.0000  0.0000  0.0000
14530SI     SI114530   1.052   0.359   8.539  0.0000  0.0000  0.0000
14531SI     SI114531   8.377   2.046   9.446  0.0000  0.0000  0.0000
14532SI     SI114532   9.430   9.068   8.786  0.0000  0.0000  0.0000
14533SI     SI114533   7.051   0.909   9.440  0.0000  0.0000  0.0000
14534SI     SI114534   1.604   8.648   0.474  0.0000  0.0000  0.0000
14535SI     SI114535   0.597   9.577   0.381  0.0000  0.0000  0.0000
14536SI     SI114536   3.029   7.185   8.506  0.0000  0.0000  0.0000
14537SI     SI114537   4.086   8.225   0.800  0.0000  0.0000  0.0000
14538SI     SI114538   3.292   1.769   0.092  0.0000  0.0000  0.0000
14539SI     SI114539   7.328   3.898   9.202  0.0000  0.0000  0.0000
14540SI     SI114540   0.749   5.480   0.607  0.0000  0.0000  0.0000
14541SI     SI114541   8.642   9.501   1.065  0.0000  0.0000  0.0000
14542SI     SI114542   2.030   3.387   0.320  0.0000  0.0000  0.0000
14543SI     SI114543   0.425   2.899   9.386  0.0000  0.0000  0.0000
14544SI     SI114544   3.757   9.051   8.546  0.0000  0.0000  0.0000
14545SI     SI114545   1.086   7.244   0.022  0.0000  0.0000  0.0000
14546SI     SI114546   2.972   0.147   8.431  0.0000  0.0000  0.0000
14547SI     SI114547   1.082   8.296   0.696  0.0000  0.0000  0.0000
14548SI     SI114548   3.036   0.979   9.493  0.0000  0.0000  0.0000
14549SI     SI114549   5.337   7.497   8.752  0.0000  0.0000  0.0000
14550SI     SI114550   1.712   3.740   0.635  0.0000  0.0000  0.0000
14551SI     SI114551   4.388   1.550   0.840  0.0000  0.0000  0.0000
14552SI     SI114552   3.052   6.937   8.998  0.0000  0.0000  0.0000
14553SI     SI114553   4.394   0.211   0.619  0.0000  0.0000  0.0000
14554SI     SI114554   5.882   3.980   8.662  0.0000  0.0000  0.0000
14555SI     SI114555   7.702   8.657   8.680  0.0000  0.0000  0.0000
14556SI     SI114556   7.924   1.675   0.974  0.0000  0.0000  0.0000
14557SI     SI114557   4.541   8.136   0.509  0.0000  0.0000  0.0000
14558SI     SI114558   1.332   6.798   0.616  0.0000  0.0000  0.0000
14559SI     SI114559   2.286   6.271   8.775  0.0000  0.0000  0.0000
14560SI     SI114560   6.269   6.645   0.124  0.0000  0.0000  0.0000
14561SI     SI114561   6.155   5.502   0.681  0.0000  0.0000  0.0000
14562SI     SI114562   4.103   7.599   0.136  0.0000  0.0000  0.0000
14563SI     SI114563   0.495   9.395   0.759  0.0000  0.0000  0.0000
14564SI     SI114564   2.798   4.942   1.076  0.0000  0.0000  0.0000
14565SI     SI114565   6.133   3.370   9.096  0.0000  0.0000  0.0000
14566SI     SI114566   1.225   8.105   9.356  0.0000  0.0000  0.0000
14567SI     SI114567   1.909   8.539   0.958  0.0000  0.0000  0.0000
14568SI     SI114568   5.083   2.599   0.259  0.0000  0.0000  0.0000
14569SI     SI114569   5.718   6.500   9.156  0.0000  0.0000  0.0000
14570SI     SI114570   4.215   0.593   0.535  0.0000  0.0000  0.0000
14571SI     SI114571   2.752   2.534   9.261  0.0000  0.0000  0.0000
14572SI     SI114572   9.202   6.754   0.300  0.0000  0.0000  0.0000
14573SI     SI114573   4.020   0.218   0.149  0.0000  0.0000  0.0000
14574SI     SI114574   6.744   3.158   1.125  0.0000  0.0000  0.0000
14575SI     SI114575   4.464   6.670   8.717  0.0000  0.0000  0.0000
14576SI     SI114576   7.934   1.119   0.382  0.0000  0.0000  0.0000
14577SI     SI114577   1.242   5.506   9.548  0.0000  0.0000  0.0000
14578SI     SI114578   6.878   0.771   8.816  0.0000  0.0000  0.0000
14579SI     SI114579   6.566   2.640   8.353  0.0000  0.0000  0.0000
14580SI     SI114580   2.952   9.501   8.821  0.0000  0.0000  0.0000
14581SI     SI114581   7.548   8.433   9.347  0.0000  0.0000  0.0000
14582SI     SI114582   6.946   3.727   1.142  0.0000  0.0000  0.0000
14583SI     SI114583   6.098   6.684   8.889  0.0000  0.0000  0.0000
14584SI     SI114584   2.852   1.167   8.492  0.0000  0.0000  0.0000
14585SI     SI114585   5.644   0.150   8.813  0.0000  0.0000  0.0000
14586SI     SI114586   5.174   2.272   9.366  0.0000  0.0000  0.0000
14587SI     SI114587   2.678   5.074   0.534  0.0000  0.0000  0.0000
14588SI     SI114588   4.056   6.570   8.715  0.0000  0.0000  0.0000
14589SI     SI114589   7.178   4.949   8.802  0.0000  0.0000  0.0000
14590SI     SI114590   3.455   6.270   0.402  0.0000  0.0000  0.0000
14591SI     SI114591   7.821   7.575   9.077  0.0000  0.0000  0.0000
14592SI     SI114592   8.135   1.231   0.977  0.0000  0.0000  0.0000
14593SI     SI114593   7.349   7.532   9.529  0.0000  0.0000  0.0000
14594SI     SI114594   6.710   3.016   9.381  0.0000  0.0000  0.0000
14595SI     SI114595   4.698   2.944   9.281  0.0000  0.0000  0.0000
14596SI     SI114596   8.699   5.079   9.513  0.0000  0.0000  0.0000
14597SI     SI114597   4.482   4.817   1.204  0.0000  0.0000  0.0000
14598SI     SI114598   7.814   0.855   0.448  0.0000  0.0000  0.0000
14599SI     SI114599   3.469   9.386   8.825  0.0000  0.0000  0.0000
14600SI     SI114600   0.130   4.331   9.394  0.0000  0.0000  0.0000
14601SI     SI114601   6.158   7.806   0.403  0.0000  0.0000  0.0000
14602SI     SI114602   8.158   7.769   8.709  0.0000  0.0000  0.0000
14603SI     SI114603   3.867   7.206   0.024  0.0000  0.0000  0.0000
14604SI     SI114604   1.168   0.731   0.044  0.0000  0.0000  0.0000
14605SI     SI114605   1.493   0.690   8.661  0.0000  0.0000  0.0000
14606SI     SI114606   6.019   7.513   0.735  0.0000  0.0000  0.0000
14607SI     SI114607   1.743   4.938   0.378  0.0000  0.0000  0.0000
14608SI     SI114608   8.840   2.514   0.959  0.0000  0.0000  0.0000
14609SI     SI114609   4.656   3.929   9.183  0.0000  0.0000  0.0000
14610SI     SI114610   5.575   5.337   8.643  0.0000  0.0000  0.0000
14611SI     SI114611   5.445   8.469   0.555  0.0000  0.0000  0.0000
14612SI     SI114612   1.418   8.732   0.266  0.0000  0.0000  0.0000
14613SI     SI114613   9.162   9.235   0.033  0.0000  0.0000  0.0000
14614SI     SI114614   0.766   3.116   0.028  0.0000  0.0000  0.0000
14615SI     SI114615   8.962   8.965   9.277  0.0000  0.0000  0.0000
14616SI     SI114616   5.065   0.952   0.865  0.0000  0.0000  0.0000
14617SI     SI114617   8.669   1.468   8.371  0.0000  0.0000  0.0000
14618SI     SI114618   7.730   3.139   8.598  0.0000  0.0000  0.0000
14619SI     SI114619   6.467   4.181   9.046  0.0000  0.0000  0.0000
14620SI     SI114620   4.878   8.193   0.165  0.0000  0.0000  0.0000
14621SI     SI114621   1.518   6.523   9.269  0.0000  0.0000  0.0000
14622SI     SI114622   6.325   1.456   8.605  0.0000  0.0000  0.0000
14623SI     SI114623   6.207   4.601   1.175  0.0000  0.0000  0.0000
14624SI     SI114624   0.228   4.162   1.008  0.0000  0.0000  0.0000
14625SI     SI114625   0.143   3.711   8.808  0.0000  0.0000  0.0000
14626SI     SI114626   2.376   7.715   0.429  0.0000  0.0000  0.0000
14627SI     SI114627   8.159   8.509   8.618  0.0000  0.0000  0.0000
14628SI     SI114628   6.923   1.239   1.271  0.0000  0.0000  0.0000
14629SI     SI114629   3.337   5.901   0.669  0.0000  0.0000  0.0000
14630SI     SI114630   3.761   2.995   0.119  0.0000  0.0000  0.0000
14631SI     SI114631   5.477   4.362   8.869  0.0000  0.0000  0.0000
14632SI     SI114632   0.963   5.172   9.015  0.0000  0.0000  0.0000
14633SI     SI114633   1.293   0.439   0.777  0.0000  0.0000  0.0000
14634SI     SI114634   0.088   7.422   9.427  0.0000  0.0000  0.0000
14635SI     SI114635   5.693   0.702   9.526  0.0000  0.0000  0.0000
14636SI     SI114636   0.085   0.807   0.279  0.0000  0.0000  0.0000
14637SI     SI114637   6.541   4.796   9.196  0.0000  0.0000  0.0000
14638SI     SI114638   0.791   6.217   1.233  0.0000  0.0000  0.0000
14639SI     SI114639   5.566   1.033   0.136  0.0000  0.0000  0.0000
14640SI     SI114640   8.332   0.391   9.580  0.0000  0.0000  0.0000
14641SI     SI114641   0.190   8.115   9.136  0.0000  0.0000  0.0000
14642SI     SI114642   8.685   7.285   8.621  0.0000  0.0000  0.0000
14643SI     SI114643   8.803   7.278   0.416  0.0000  0.0000  0.0000
14644SI     SI114644   3.733   8.523   1.097  0.0000  0.0000  0.0000
14645SI     SI114645   1.312   4.305   8.704  0.0000  0.0000  0.0000
14646SI     SI114646   2.118   6.298   0.104  0.0000  0.0000  0.0000
14647SI     SI114647   5.511   5.712   0.224  0.0000  0.0000  0.0000
14648SI     SI114648   6.557   5.941   0.919  0.0000  0.0000  0.0000
14649SI     SI114649   3.710   9.199   8.805  0.0000  0.0000  0.0000
14650SI     SI114650   2.155   1.852   0.185  0.0000  0.0000  0.0000
14651SI     SI114651   3.730   1.812   9.334  0.0000  0.0000  0.0000
14652SI     SI114652   0.672   8.196   9.213  0.0000  0.0000  0.0000
14653SI     SI114653   8.055   4.150   8.926  0.0000  0.0000  0.0000
14654SI     SI114654   6.968   0.656   0.379  0.0000  0.0000  0.0000
14655SI     SI114655   2.002   4.570   0.381  0.0000  0.0000  0.0000
14656SI     SI114656   8.484   8.779   8.812  0.0000  0.0000  0.0000
14657SI     SI114657   1.589   2.420   9.161  0.0000  0.0000  0.0000
14658SI     SI114658   1.416   0.363   0.319  0.0000  0.0000  0.0000
14659SI     SI114659   4.416   3.117   0.379  0.0000  0.0000  0.0000
14660SI     SI114660   1.337   5.874   8.869  0.0000  0.0000  0.0000
14661SI     SI114661   9.298   7.990   8.620  0.0000  0.0000  0.0000
14662SI     SI114662   8.636   1.155   8.420  0.0000  0.0000  0.0000
14663SI     SI114663   7.094   2.685   1.304  0.0000  0.0000  0.0000
14664SI     SI114664   7.583   9.416   8.711  0.0000  0.0000  0.0000
14665SI     SI114665   0.625   2.345   1.232  0.0000  0.0000  0.0000
14666SI     SI114666   2.781   7.395   0.009  0.0000  0.0000  0.0000
14667SI     SI114667   3.949   2.551   8.802  0.0000  0.0000  0.0000
14668SI     SI114668   0.802   6.215   8.645  0.0000  0.0000  0.0000
14669SI     SI114669   6.792   5.420   0.007  0.0000  0.0000  0.0000
14670SI     SI114670   0.720   6.459   9.072  0.0000  0.0000  0.0000
14671SI     SI114671   0.946   7.752   0.034  0.0000  0.0000  0.0000
14672SI     SI114672   6.130   0.917   8.410  0.0000  0.0000  0.0000
14673SI     SI114673   4.276   8.108   9.186  0.0000  0.0000  0.0000
14674SI     SI114674   2.440   0.756   8.962  0.0000  0.0000  0.0000
14675SI     SI114675   1.530   9.243   1.173  0.0000  0.0000  0.0000
14676SI     SI114676   2.035   1.811   8.533  0.0000  0.0000  0.0000
14677SI     SI114677   8.440   2.090   0.521  0.0000  0.0000  0.0000
14678SI     SI114678   7.417   0.597   8.247  0.0000  0.0000  0.0000
14679SI     SI114679   2.076   2.799   0.533  0.0000  0.0000  0.0000
14680SI     SI114680   6.687   8.508   8.769  0.0000  0.0000  0.0000
14681SI     SI114681   7.312   7.966   0.695  0.0000  0.0000  0.0000
14682SI     SI114682   0.166   8.063   0.507  0.0000  0.0000  0.0000
14683SI     SI114683   3.375   2.183   0.274  0.0000  0.0000  0.0000
14684SI     SI114684   8.746   3.881   0.375  0.0000  0.0000  0.0000
14685SI     SI114685   3.078   1.163   0.306  0.0000  0.0000  0.0000
14686SI     SI114686   0.037   8.352   8.711  0.0000  0.0000  0.0000
14687SI     SI114687   3.690   6.984   0.128  0.0000  0.0000  0.0000
14688SI     SI114688   5.028   7.598   0.549  0.0000  0.0000  0.0000
14689SI     SI114689   2.240   3.522   8.544  0.0000  0.0000  0.0000
14690SI     SI114690   8.550   2.275   9.376  0.0000  0.0000  0.0000
14691SI     SI114691   6.392   5.637   8.529  0.0000  0.0000  0.0000
14692SI     SI114692   1.234   3.434   0.516  0.0000  0.0000  0.0000
14693SI     SI114693   1.566   8.561   0.049  0.0000  0.0000  0.0000
14694SI     SI114694   1.146   4.561   9.056  0.0000  0.0000  0.0000
14695SI     SI114695   6.652   0.872   0.924  0.0000  0.0000  0.0000
14696SI     SI114696   5.120   0.689   8.718  0.0000  0.0000  0.0000
14697SI     SI114697   8.290   2.689   1.061  0.0000  0.0000  0.0000
14698SI     SI114698   5.121   5.166   0.634  0.0000  0.0000  0.0000
14699SI     SI114699   6.353   9.546   0.486  0.0000  0.0000  0.0000
14700SI     SI114700   2.880   7.460   8.474  0.0000  0.0000  0.0000
14701SI     SI114701   2.217   9.372   1.071  0.0000  0.0000  0.0000
14702SI     SI114702   7.135   7.389   0.307  0.0000  0.0000  0.0000
14703SI     SI114703   8.426   4.834   1.159  0.0000  0.0000  0.0000
14704SI     SI114704   4.989   1.307   9.123  0.0000  0.0000  0.0000
14705SI     SI114705   3.474   5.160   0.796  0.0000  0.0000  0.0000
14706SI     SI114706   6.108   6.583   0.371  0.0000  0.0000  0.0000
14707SI     SI114707   6.349   4.753   8.468  0.0000  0.0000  0.0000
14708SI     SI114708   7.838   4.952   9.291  0.0000  0.0000  0.0000
14709SI     SI114709   5.956   3.908   8.956  0.0000  0.0000  0.0000
14710SI     SI114710   1.810   0.745   9.144  0.0000  0.0000  0.0000
14711SI     SI114711   5.386   7.218   8.866  0.0000  0.0000  0.0000
14712SI     SI114712   2.181   7.227   1.224  0.0000  0.0000  0.0000
14713SI     SI114713   0.696   5.934   0.876  0.0000  0.0000  0.0000
14714SI     SI114714   9.472   3.654   0.434  0.0000  0.0000  0.0000
14715SI     SI114715   8.457   7.302   8.847  0.0000  0.0000  0.0000
14716SI     SI114716   3.616   7.475   0.390  0.0000  0.0000  0.0000
14717SI     SI114717   5.380   4.549   0.417  0.0000  0.0000  0.0000
14718SI     SI114718   1.701   1.772   9.481  0.0000  0.0000  0.0000
14719SI     SI114719   6.381   7.187   8.406  0.0000  0.0000  0.0000
14720SI     SI114720   0.765   5.050   8.466  0.0000  0.0000  0.0000
14721SI     SI114721   3.465   5.186   9.117  0.0000  0.0000  0.0000
14722SI     SI114722   3.629   8.035   9.571  0.0000  0.0000  0.0000
14723SI     SI114723   2.052   4.971   0.758  0.0000  0.0000  0.0000
14724SI     SI114724   3.072   8.658   8.756  0.0000  0.0000  0.0000
14725SI     SI114725   1.528   2.158   8.736  0.0000  0.0000  0.0000
14726SI     SI114726   3.781   3.361   8.447  0.0000  0.0000  0.0000
14727SI     SI114727   8.690   7.565   0.448  0.0000  0.0000  0.0000
14728SI     SI114728   1.450   1.006   0.701  0.0000  0.0000  0.0000
14729SI     SI114729   5.346   2.475   0.750  0.0000  0.0000  0.0000
14730SI     SI114730   3.440   3.297   0.381  0.0000  0.0000  0.0000
14731SI     SI114731   5.311   1.901   0.064  0.0000  0.0000  0.0000
14732SI     SI114732   2.467   7.278   9.061  0.0000  0.0000  0.0000
14733SI     SI114733   7.553   1.826   9.399  0.0000  0.0000  0.0000
14734SI     SI114734   2.464   3.508   0.511  0.0000  0.0000  0.0000
14735SI     SI114735   2.023   2.070   0.363  0.0000  0.0000  0.0000
14736SI     SI114736   7.617   2.749   0.179  0.0000  0.0000  0.0000
14737SI     SI114737   0.507   3.546   0.564  0.0000  0.0000  0.0000
14738SI     SI114738   3.347   6.919   8.937  0.0000  0.0000  0.0000
14739SI     SI114739   8.810   7.841   0.832  0.0000  0.0000  0.0000
14740SI     SI114740   7.264   4.375   9.047  0.0000  0.0000  0.0000
14741SI     SI114741   2.647   8.242   0.003  0.0000  0.0000  0.0000
14742SI     SI114742   2.637   0.735   9.451  0.0000  0.0000  0.0000
14743SI     SI114743   2.882   8.701   9.011  0.0000  0.0000  0.0000
14744SI     SI114744   1.297   0.885   0.449  0.0000  0.0000  0.0000
14745SI     SI114745   3.974   3.493   8.623  0.0000  0.0000  0.0000
14746SI     SI114746   7.785   2.863   0.930  0.0000  0.0000  0.0000
14747SI     SI114747   2.232   1.436   0.954  0.0000  0.0000  0.0000
14748SI     SI114748   5.674   3.862   9.040  0.0000  0.0000  0.0000
14749SI     SI114749   8.239   7.346   0.157  0.0000  0.0000  0.0000
14750SI     SI114750   0.710   1.181   1.116  0.0000  0.0000  0.0000
14751SI     SI114751   6.264   9.508   0.965  0.0000  0.0000  0.0000
14752SI     SI114752   8.705   9.279   9.587  0.0000  0.0000  0.0000
14753SI     SI114753   8.751   4.888   0.385  0.0000  0.0000  0.0000
14754SI     SI114754   5.217   3.218   0.915  0.0000  0.0000  0.0000
14755SI     SI114755   4.078   1.284   1.100  0.0000  0.0000  0.0000
14756SI     SI114756   8.490   1.128   9.431  0.0000  0.0000  0.0000
14757SI     SI114757   2.532   1.227   0.709  0.0000  0.0000  0.0000
14758SI     SI114758   3.417   3.725   1.115  0.0000  0.0000  0.0000
14759SI     SI114759   1.189   0.871   8.527  0.0000  0.0000  0.0000
14760SI     SI114760   0.799   5.661   0.038  0.0000  0.0000  0.0000
14761SI     SI114761   4.890   2.393   9.308  0.0000  0.0000  0.0000
14762SI     SI114762   0.820   0.524   0.838  0.0000  0.0000  0.0000
14763SI     SI114763   6.417   0.430   9.284  0.0000  0.0000  0.0000
14764SI     SI114764   7.660   1.075   0.005  0.0000  0.0000  0.0000
14765SI     SI114765   4.803   3.229   1.086  0.0000  0.0000  0.0000
14766SI     SI114766   0.931   2.228   9.349  0.0000  0.0000  0.0000
14767SI     SI114767   0.190   1.951   9.123  0.0000  0.0000  0.0000
14768SI     SI114768   1.545   3.770   0.873  0.0000  0.0000  0.0000
14769SI     SI114769   3.376   3.085   0.597  0.0000  0.0000  0.0000
14770SI     SI114770   2.928   9.399   0.704  0.0000  0.0000  0.0000
14771SI     SI114771   5.924   0.305   8.798  0.0000  0.0000  0.0000
14772SI     SI114772   5.192   3.101   9.218  0.0000  0.0000  0.0000
14773SI     SI114773   1.437   4.678   9.047  0.0000  0.0000  0.0000
14774SI     SI114774   5.049   3.553   9.145  0.0000  0.0000  0.0000
14775SI     SI114775   1.978   3.159   0.860  0.0000  0.0000  0.0000
14776SI     SI114776   8.578   7.759   0.645  0.0000  0.0000  0.0000
14777SI     SI114777   0.248   2.035   0.071  0.0000  0.0000  0.0000
14778SI     SI114778   7.642   2.056   8.902  0.0000  0.0000  0.0000
14779SI     SI114779   6.607   3.136   8.774  0.0000  0.0000  0.0000
14780SI     SI114780   6.666   9.019   8.599  0.0000  0.0000  0.0000
14781SI     SI114781   1.863   5.527   8.677  0.0000  0.0000  0.0000
14782SI     SI114782   4.462   0.085   9.099  0.0000  0.0000  0.0000
14783SI     SI114783   4.522   8.629   0.962  0.0000  0.0000  0.0000
14784SI     SI114784   0.084   2.364   8.504  0.0000  0.0000  0.0000
14785SI     SI114785   2.147   6.254   0.831  0.0000  0.0000  0.0000
14786SI     SI114786   2.975   2.122   8.844  0.0000  0.0000  0.0000
14787SI     SI114787   4.354   1.068   9.152  0.0000  0.0000  0.0000
14788SI     SI114788   6.154   5.764   0.015  0.0000  0.0000  0.0000
14789SI     SI114789   7.171   1.975   0.211  0.0000  0.0000  0.0000
14790SI     SI114790   3.641   5.974   0.688  0.0000  0.0000  0.0000
14791SI     SI114791   0.548   1.093   0.290  0.0000  0.0000  0.0000
14792SI     SI114792   9.233   0.216   0.164  0.0000  0.0000  0.0000
14793SI     SI114793   1.155   8.805   9.478  0.0000  0.0000  0.0000
14794SI     SI114794   9.295   1.420   8.916  0.0000  0.0000  0.0000
14795SI     SI114795   0.654   2.440   8.956  0.0000  0.0000  0.0000
14796SI     SI114796   0.778   6.471   0.883  0.0000  0.0000  0.0000
14797SI     SI114797   0.539   7.763   0.343  0.0000  0.0000  0.0000
14798SI     SI114798   2.813   4.961   0.273  0.0000  0.0000  0.0000
14799SI     SI114799   4.074   5.691   1.160  0.0000  0.0000  0.0000
14800SI     SI114800   0.268   2.135   1.061  0.0000  0.0000  0.0000
14801SI     SI114801   9.511   4.704   9.602  0.0000  0.0000  0.0000
14802SI     SI114802   3.500   7.719   8.815  0.0000  0.0000  0.0000
14803SI     SI114803   2.310   3.434   9.114  0.0000  0.0000  0.0000
14804SI     SI114804   0.340   2.183   8.474  0.0000  0.0000  0.0000
14805SI     SI114805   1.425   8.357   8.563  0.0000  0.0000  0.0000
14806SI     SI114806   2.504   4.114   9.104  0.0000  0.0000  0.0000
14807SI     SI114807   1.816   9.026   0.102  0.0000  0.0000  0.0000
14808SI     SI114808   6.307   7.077   0.464  0.0000  0.0000  0.0000
14809SI     SI114809   6.390   1.520   9.491  0.0000  0.0000  0.0000
14810SI     SI114810   0.352   4.919   8.337  0.0000  0.0000  0.0000
14811SI     SI114811   9.369   7.249   8.961  0.0000  0.0000  0.0000
14812SI     SI114812   7.894   3.999   9.459  0.0000  0.0000  0.0000
14813SI     SI114813   8.673   3.139   0.435  0.0000  0.0000  0.0000
14814SI     SI114814   7.582   3.125   9.565  0.0000  0.0000  0.0000
14815SI     SI114815   4.216   2.576   9.407  0.0000  0.0000  0.0000
14816SI     SI114816   7.894   7.862   9.196  0.0000  0.0000  0.0000
14817SI     SI114817   3.272   6.321   9.133  0.0000  0.0000  0.0000
14818SI     SI114818   4.793   6.180   9.269  0.0000  0.0000  0.0000
14819SI     SI114819   3.943   0.739   0.577  0.0000  0.0000  0.0000
14820SI     SI114820   7.399   4.144   9.382  0.0000  0.0000  0.0000
14821SI     SI114821   1.620   4.153   8.992  0.0000  0.0000  0.0000
14822SI     SI114822   7.862   7.408   8.652  0.0000  0.0000  0.0000
14823SI     SI114823   1.311   2.108   8.959  0.0000  0.0000  0.0000
14824SI     SI114824   6.012   2.869   0.477  0.0000  0.0000  0.0000
14825SI     SI114825   0.026   6.385   9.369  0.0000  0.0000  0.0000
14826SI     SI114826   8.622   0.814   8.683  0.0000  0.0000  0.0000
14827SI     SI114827   3.901   4.234   8.622  0.0000  0.0000  0.0000
14828SI     SI114828   4.753   8.357   9.255  0.0000  0.0000  0.0000
14829SI     SI114829   9.428   0.705   0.930  0.0000  0.0000  0.0000
14830SI     SI114830   8.164   2.465   0.403  0.0000  0.0000  0.0000
14831SI     SI114831   4.242   7.882   8.538  0.0000  0.0000  0.0000
14832SI     SI114832   1.939   3.674   0.295  0.0000  0.0000  0.0000
14833SI     SI114833   6.385   4.437   8.896  0.0000  0.0000  0.0000
14834SI     SI114834   6.644   0.228   9.555  0.0000  0.0000  0.0000
14835SI     SI114835   4.203   2.599   1.126  0.0000  0.0000  0.0000
14836SI     SI114836   7.778   9.187   8.814  0.0000  0.0000  0.0000
14837SI     SI114837   5.076   1.071   9.308  0.0000  0.0000  0.0000
14838SI     SI114838   2.352   0.085   0.397  0.0000  0.0000  0.0000
14839SI     SI114839   8.139   5.181   1.182  0.0000  0.0000  0.0000
14840SI     SI114840   4.398   3.933   0.491  0.0000  0.0000  0.0000
14841SI     SI114841   2.265   2.551   0.481  0.0000  0.0000  0.0000
14842SI     SI114842   3.240   8.467   0.020  0.0000  0.0000  0.0000
14843SI     SI114843   4.356   8.873   9.282  0.0000  0.0000  0.0000
14844SI     SI114844   3.654   0.758   8.631  0.0000  0.0000  0.0000
14845SI     SI114845   9.566   5.667   8.741  0.0000  0.0000  0.0000
14846SI     SI114846   2.572   6.744   1.003  0.0000  0.0000  0.0000
14847SI     SI114847   1.463   3.081   0.805  0.0000  0.0000  0.0000
14848SI     SI114848   0.911   3.522   8.444  0.0000  0.0000  0.0000
14849SI     SI114849   5.885   7.341   8.735  0.0000  0.0000  0.0000
14850SI     SI114850   0.674   6.181   9.196  0.0000  0.0000  0.0000
14851SI     SI114851   4.348   3.628   8.834  0.0000  0.0000  0.0000
14852SI     SI114852   5.749   2.772   9.042  0.0000  0.0000  0.0000
14853SI     SI114853   1.598   8.826   8.551  0.0000  0.0000  0.0000
14854SI     SI114854   3.584   8.455   0.315  0.0000  0.0000  0.0000
14855SI     SI114855   8.404   6.001   9.538  0.0000  0.0000  0.0000
14856SI     SI114856   0.037   5.883   0.491  0.0000  0.0000  0.0000
14857SI     SI114857   8.842   4.736   9.131  0.0000  0.0000  0.0000
14858SI     SI114858   1.474   4.725   9.567  0.0000  0.0000  0.0000
14859SI     SI114859   1.530   8.986   1.331  0.0000  0.0000  0.0000
14860SI     SI114860   8.192   5.248   0.505  0.0000  0.0000  0.0000
14861SI     SI114861   6.760   2.675   0.183  0.0000  0.0000  0.0000
14862SI     SI114862   2.356   4.139   8.643  0.0000  0.0000  0.0000
14863SI     SI114863   4.630   6.318   0.219  0.0000  0.0000  0.0000
14864SI     SI114864   3.052   8.760   9.274  0.0000  0.0000  0.0000
14865SI     SI114865   4.383   9.268   8.883  0.0000  0.0000  0.0000
14866SI     SI114866   8.191   4.572   8.906  0.0000  0.0000  0.0000
14867SI     SI114867   7.406   9.228   8.552  0.0000  0.0000  0.0000
14868SI     SI114868   8.558   9.305   8.759  0.0000  0.0000  0.0000
14869SI     SI114869   5.160   2.816   9.113  0.0000  0.0000  0.0000
14870SI     SI114870   2.495   4.808   9.288  0.0000  0.0000  0.0000
14871SI     SI114871   0.893   1.248   8.713  0.0000  0.0000  0.0000
14872SI     SI114872   1.397   2.910   9.344  0.0000  0.0000  0.0000
14873SI     SI114873   0.692   0.631   9.492  0.0000  0.0000  0.0000
14874SI     SI114874   3.671   9.185   9.231  0.0000  0.0000  0.0000
14875SI     SI114875   2.050   5.694   0.850  0.0000  0.0000  0.0000
14876SI     SI114876   2.847   8.404   9.448  0.0000  0.0000  0.0000
14877SI     SI114877   0.721   7.054   1.074  0.0000  0.0000  0.0000
14878SI     SI114878   7.782   6.971   0.011  0.0000  0.0000  0.0000
14879SI     SI114879   5.779   6.673   0.990  0.0000  0.0000  0.0000
14880SI     SI114880   7.124   5.728   1.065  0.0000  0.0000  0.0000
14881SI     SI114881   2.481   7.705   9.288  0.0000  0.0000  0.0000
14882SI     SI114882   4.318   8.540   0.622  0.0000  0.0000  0.0000
14883SI     SI114883   4.868   3.493   0.660  0.0000  0.0000  0.0000
14884SI     SI114884   4.552   8.743   9.087  0.0000  0.0000  0.0000
14885SI     SI114885   9.494   7.485   0.264  0.0000  0.0000  0.0000
14886SI     SI114886   7.231   6.802   9.088  0.0000  0.0000  0.0000
14887SI     SI114887   1.543   8.345   0.431  0.0000  0.0000  0.0000
14888SI     SI114888   1.426   3.896   8.995  0.0000  0.0000  0.0000
14889SI     SI114889   9.557   5.514   9.014  0.0000  0.0000  0.0000
14890SI     SI114890   4.386   2.644   8.945  0.0000  0.0000  0.0000
14891SI     SI114891   3.827   4.181   9.605  0.0000  0.0000  0.0000
14892SI     SI114892   2.725   7.984   0.095  0.0000  0.0000  0.0000
14893SI     SI114893   2.324   2.363   8.961  0.0000  0.0000  0.0000
14894SI     SI114894   8.866   6.469   0.397  0.0000  0.0000  0.0000
14895SI     SI114895   6.807   1.661   9.187  0.0000  0.0000  0.0000
14896SI     SI114896   0.560   8.455   0.507  0.0000  0.0000  0.0000
14897SI     SI114897   0.504   8.644   0.971  0.0000  0.0000  0.0000
14898SI     SI114898   1.233   0.602   8.796  0.0000  0.0000  0.0000
14899SI     SI114899   8.648   8.926   0.648  0.0000  0.0000  0.0000
14900SI     SI114900   2.141   7.433   8.723  0.0000  0.0000  0.0000
14901SI     SI114901   0.527   0.560   0.756  0.0000  0.0000  0.0000
14902SI     SI114902   8.894   8.262   9.062  0.0000  0.0000  0.0000
14903SI     SI114903   7.895   0.594   0.616  0.0000  0.0000  0.0000
14904SI     SI114904   4.229   7.712   8.798  0.0000  0.0000  0.0000
14905SI     SI114905   1.943   7.567   0.563  0.0000  0.0000  0.0000
14906SI     SI114906   7.982   8.261   8.946  0.0000  0.0000  0.0000
14907SI     SI114907   6.112   4.635   0.883  0.0000  0.0000  0.0000
14908SI     SI114908   6.247   2.363   8.737  0.0000  0.0000  0.0000
14909SI     SI114909   4.596   8.200   0.048  0.0000  0.0000  0.0000
14910SI     SI114910   1.867   7.157   0.044  0.0000  0.0000  0.0000
14911SI     SI114911   1.535   4.880   1.128  0.0000  0.0000  0.0000
14912SI     SI114912   2.655   8.876   8.678  0.0000  0.0000  0.0000
14913SI     SI114913   8.107   4.406   9.376  0.0000  0.0000  0.0000
14914SI     SI114914   5.013   1.421   8.552  0.0000  0.0000  0.0000
14915SI     SI114915   5.663   7.862   0.813  0.0000  0.0000  0.0000
14916SI     SI114916   3.396   0.476   8.907  0.0000  0.0000  0.0000
14917SI     SI114917   5.375   6.762   0.706  0.0000  0.0000  0.0000
14918SI     SI114918   3.073   5.322   0.732  0.0000  0.0000  0.0000
14919SI     SI114919   4.200   3.132   8.767  0.0000  0.0000  0.0000
14920SI     SI114920   5.441   7.021   8.622  0.0000  0.0000  0.0000
14921SI     SI114921   0.859   2.487   0.358  0.0000  0.0000  0.0000
14922SI     SI114922   8.725   0.157   8.755  0.0000  0.0000  0.0000
14923SI     SI114923   5.671   5.035   9.449  0.0000  0.0000  0.0000
14924SI     SI114924   9.529   2.825   8.607  0.0000  0.0000  0.0000
14925SI     SI114925   5.456   7.812   0.359  0.0000  0.0000  0.0000
14926SI     SI114926   0.670   7.681   9.188  0.0000  0.0000  0.0000
14927SI     SI114927   6.429   0.586   9.025  0.0000  0.0000  0.0000
14928SI     SI114928   6.605   5.811   0.301  0.0000  0.0000  0.0000
14929SI     SI114929   4.263   1.074   9.456  0.0000  0.0000  0.0000
14930SI     SI114930   2.758   4.240   8.496  0.0000  0.0000  0.0000
14931SI     SI114931   5.586   7.195   0.679  0.0000  0.0000  0.0000
14932SI     SI114932   9.052   4.826   9.310  0.0000  0.0000  0.0000
14933SI     SI114933   0.800   8.895   0.298  0.0000  0.0000  0.0000
14934SI     SI114934   0.497   4.975   0.965  0.0000  0.0000  0.0000
14935SI     SI114935   4.211   4.591   0.450  0.0000  0.0000  0.0000
14936SI     SI114936   4.665   0.510   0.416  0.0000  0.0000  0.0000
14937SI     SI114937   2.931   2.840   0.175  0.0000  0.0000  0.0000
14938SI     SI114938   6.011   8.093   1.056  0.0000  0.0000  0.0000
14939SI     SI114939   8.518   8.003   0.484  0.0000  0.0000  0.0000
14940SI     SI114940   6.237   6.312   0.446  0.0000  0.0000  0.0000
14941SI     SI114941   5.466   3.578   9.424  0.0000  0.0000  0.0000
14942SI     SI114942   1.740   5.494   9.119  0.0000  0.0000  0.0000
14943SI     SI114943   1.574   4.303   9.249  0.0000  0.0000  0.0000
14944SI     SI114944   6.421   5.741   9.452  0.0000  0.0000  0.0000
14945SI     SI114945   9.166   6.473   0.386  0.0000  0.0000  0.0000
14946SI     SI114946   0.241   3.926   8.986  0.0000  0.0000  0.0000
14947SI     SI114947   4.208   2.934   0.236  0.0000  0.0000  0.0000
14948SI     SI114948   2.860   6.110   9.279  0.0000  0.0000  0.0000
14949SI     SI114949   8.446   2.376   0.484  0.0000  0.0000  0.0000
14950SI     SI114950   1.430   6.094   0.464  0.0000  0.0000  0.0000
14951SI     SI114951   4.614   6.216   8.778  0.0000  0.0000  0.0000
14952SI     SI114952   6.574   2.597   0.427  0.0000  0.0000  0.0000
14953SI     SI114953   0.460   2.241   8.878  0.0000  0.0000  0.0000
14954SI     SI114954   6.009   5.902   9.034  0.0000  0.0000  0.0000
14955SI     SI114955   0.442   7.448   0.694  0.0000  0.0000  0.0000
14956SI     SI114956   7.295   7.610   1.098  0.0000  0.0000  0.0000
14957SI     SI114957   8.027   4.230   8.619  0.0000  0.0000  0.0000
14958SI     SI114958   5.432   6.307   8.579  0.0000  0.0000  0.0000
14959SI     SI114959   4.057   0.978   0.712  0.0000  0.0000  0.0000
14960SI     SI114960   4.181   0.558   8.669  0.0000  0.0000  0.0000
14961SI     SI114961   3.566   3.962   0.773  0.0000  0.0000  0.0000
14962SI     SI114962   3.885   1.133   0.925  0.0000  0.0000  0.0000
14963SI     SI114963   2.213   4.098   9.039  0.0000  0.0000  0.0000
14964SI     SI114964   1.489   6.468   8.547  0.0000  0.0000  0.0000
14965SI     SI114965   4.032   2.681   0.868  0.0000  0.0000  0.0000
14966SI     SI114966   4.445   2.199   8.821  0.0000  0.0000  0.0000
14967SI     SI114967   7.831   4.461   8.649  0.0000  0.0000  0.0000
14968SI     SI114968   3.200   4.472   9.055  0.0000  0.0000  0.0000
14969SI     SI114969   1.404   2.570   0.021  0.0000  0.0000  0.0000
14970SI     SI114970   5.111   1.586   8.809  0.0000  0.0000  0.0000
14971SI     SI114971   4.661   6.481   1.114  0.0000  0.0000  0.0000
14972SI     SI114972   0.704   7.126   0.795  0.0000  0.0000  0.0000
14973SI     SI114973   1.216   2.243   9.434  0.0000  0.0000  0.0000
14974SI     SI114974   2.135   8.954   8.540  0.0000  0.0000  0.0000
14975SI     SI114975   5.140   3.730   8.426  0.0000  0.0000  0.0000
14976SI     SI114976   2.864   5.680   0.150  0.0000  0.0000  0.0000
14977SI     SI114977   2.205   2.320   0.291  0.0000  0.0000  0.0000
14978SI     SI114978   1.310   8.771   8.532  0.0000  0.0000  0.0000
14979SI     SI114979   3.476   0.999   0.075  0.0000  0.0000  0.0000
14980SI     SI114980   9.179   8.212   9.038  0.0000  0.0000  0.0000
14981SI     SI114981   3.110   6.480   0.926  0.0000  0.0000  0.0000
14982SI     SI114982   1.171   5.560   9.269  0.0000  0.0000  0.0000
14983SI     SI114983   7.877   3.307   0.933  0.0000  0.0000  0.0000
14984SI     SI114984   3.978   0.839   9.262  0.0000  0.0000  0.0000
14985SI     SI114985   8.210   0.875   8.359  0.0000  0.0000  0.0000
14986SI     SI114986   4.515   5.790   8.369  0.0000  0.0000  0.0000
14987SI     SI114987   5.252   3.757   0.192  0.0000  0.0000  0.0000
14988SI     SI114988   3.353   4.389   9.327  0.0000  0.0000  0.0000
14989SI     SI114989   4.128   4.879   9.035  0.0000  0.0000  0.0000
14990SI     SI114990   1.917   3.622   8.940  0.0000  0.0000  0.0000
14991SI     SI114991   8.372   5.884   1.216  0.0000  0.0000  0.0000
14992SI     SI114992   4.029   6.385   0.765  0.0000  0.0000  0.0000
14993SI     SI114993   2.372   2.786   9.231  0.0000  0.0000  0.0000
14994SI     SI114994   7.595   9.461   0.728  0.0000  0.0000  0.0000
14995SI     SI114995   2.169   1.721   9.270  0.0000  0.0000  0.0000
14996SI     SI114996   1.119   2.778   8.474  0.0000  0.0000  0.0000
14997SI     SI114997   3.561   9.484   0.894  0.0000  0.0000  0.0000
14998SI     SI114998   6.964   4.710   0.604  0.0000  0.0000  0.0000
14999SI     SI114999   9.595   5.601   0.926  0.0000  0.0000  0.0000
15000SI     SI115000   6.765   3.248   0.187  0.0000  0.0000  0.0000
15001SI     SI115001   0.447   6.727   0.020  0.0000  0.0000  0.0000
15002SI     SI115002   0.609   8.180   0.133  0.0000  0.0000  0.0000
15003SI     SI115003   2.162   6.636   8.500  0.0000  0.0000  0.0000
15004SI     SI115004   5.314   2.755   0.157  0.0000  0.0000  0.0000
15005SI     SI115005   4.151   1.619   0.529  0.0000  0.0000  0.0000
15006SI     SI115006   9.339   5.194   9.322  0.0000  0.0000  0.0000
15007SI     SI115007   3.109   1.887   0.579  0.0000  0.0000  0.0000
15008SI     SI115008   0.269   4.151   0.270  0.0000  0.0000  0.0000
15009SI     SI115009   4.205   1.656   9.210  0.0000  0.0000  0.0000
15010SI     SI115010   2.917   6.501   8.758  0.0000  0.0000  0.0000
15011SI     SI115011   8.359   5.807   0.921  0.0000  0.0000  0.0000
15012SI     SI115012   2.962   3.935   0.065  0.0000  0.0000  0.0000
15013SI     SI115013   6.627   6.104   0.247  0.0000  0.0000  0.0000
15014SI     SI115014   1.425   7.133   8.613  0.0000  0.0000  0.0000
15015SI     SI115015   4.673   2.717   0.423  0.0000  0.0000  0.0000
15016SI     SI115016   7.717   1.095   8.807  0.0000  0.0000  0.0000
15017SI     SI115017   3.464   2.408   0.457  0.0000  0.0000  0.0000
15018SI     SI115018   4.922   5.757   9.437  0.0000  0.0000  0.0000
15019SI     SI115019   4.366   1.830   1.150  0.0000  0.0000  0.0000
15020SI     SI115020   8.920   5.296   0.363  0.0000  0.0000  0.0000
15021SI     SI115021   5.596   0.413   8.416  0.0000  0.0000  0.0000
15022SI     SI115022   3.932   7.550   0.946  0.0000  0.0000  0.0000
15023SI     SI115023   6.922   0.995   0.869  0.0000  0.0000  0.0000
15024SI     SI115024   3.936   5.691   0.902  0.0000  0.0000  0.0000
15025SI     SI115025   5.307   0.194   9.278  0.0000  0.0000  0.0000
15026SI     SI115026   6.113   8.271   9.422  0.0000  0.0000  0.0000
15027SI     SI115027   2.792   0.157   0.350  0.0000  0.0000  0.0000
15028SI     SI115028   8.682   8.008   9.424  0.0000  0.0000  0.0000
15029SI     SI115029   7.306   7.201   0.787  0.0000  0.0000  0.0000
15030SI     SI115030   1.495   4.765   0.429  0.0000  0.0000  0.0000
15031SI     SI115031   3.424   8.473   8.697  0.0000  0.0000  0.0000
15032SI     SI115032   5.299   4.942   8.650  0.0000  0.0000  0.0000
15033SI     SI115033   5.841   1.977   9.257  0.0000  0.0000  0.0000
15034SI     SI115034   5.355   1.982   1.298  0.0000  0.0000  0.0000
15035SI     SI115035   7.067   0.979   8.949  0.0000  0.0000  0.0000
15036SI     SI115036   0.535   4.489   9.328  0.0000  0.0000  0.0000
15037SI     SI115037   3.879   3.388   0.344  0.0000  0.0000  0.0000
15038SI     SI115038   5.257   0.102   0.198  0.0000  0.0000  0.0000
15039SI     SI115039   8.095   2.107   9.342  0.0000  0.0000  0.0000
15040SI     SI115040   7.188   3.935   1.177  0.0000  0.0000  0.0000
15041SI     SI115041   8.955   2.110   0.334  0.0000  0.0000  0.0000
15042SI     SI115042   7.122   2.011   0.830  0.0000  0.0000  0.0000
15043SI     SI115043   2.767   0.213   9.477  0.0000  0.0000  0.0000
15044SI     SI115044   3.568   1.261   0.175  0.0000  0.0000  0.0000
15045SI     SI115045   0.609   3.194   8.349  0.0000  0.0000  0.0000
15046SI     SI115046   2.042   0.962   0.352  0.0000  0.0000  0.0000
15047SI     SI115047   8.987   0.069   0.266  0.0000  0.0000  0.0000
15048SI     SI115048   5.805   2.547   9.255  0.0000  0.0000  0.0000
15049SI     SI115049   0.887   7.927   8.621  0.0000  0.0000  0.0000
15050SI     SI115050   3.715   0.286   0.108  0.0000  0.0000  0.0000
15051SI     SI115051   8.945   2.220   0.903  0.0000  0.0000  0.0000
15052SI     SI115052   6.700   4.757   0.460  0.0000  0.0000  0.0000
15053SI     SI115053   4.564   5.270   0.623  0.0000  0.0000  0.0000
15054SI     SI115054   9.099   2.673   0.905  0.0000  0.0000  0.0000
15055SI     SI115055   4.731   3.017   0.869  0.0000  0.0000  0.0000
15056SI     SI115056   3.635   3.964   9.477  0.0000  0.0000  0.0000
15057SI     SI115057   9.371   2.762   9.142  0.0000  0.0000  0.0000
15058SI     SI115058   1.855   6.188   0.044  0.0000  0.0000  0.0000
15059SI     SI115059   7.672   3.687   8.607  0.0000  0.0000  0.0000
15060SI     SI115060   4.067   2.135   0.937  0.0000  0.0000  0.0000
15061SI     SI115061   7.394   6.593   9.529  0.0000  0.0000  0.0000
15062SI     SI115062   0.820   5.162   1.351  0.0000  0.0000  0.0000
15063SI     SI115063   6.428   2.742   1.013  0.0000  0.0000  0.0000
15064SI     SI115064   6.392   7.780   0.911  0.0000  0.0000  0.0000
15065SI     SI115065   0.860   9.097   8.816  0.0000  0.0000  0.0000
15066SI     SI115066   6.670   0.933   9.186  0.0000  0.0000  0.0000
15067SI     SI115067   1.075   4.926   8.877  0.0000  0.0000  0.0000
15068SI     SI115068   7.567   0.385   9.450  0.0000  0.0000  0.0000
15069SI     SI115069   2.728   6.249   9.036  0.0000  0.0000  0.0000
15070SI     SI115070   8.446   8.994   9.543  0.0000  0.0000  0.0000
15071SI     SI115071   2.221   1.430   9.392  0.0000  0.0000  0.0000
15072SI     SI115072   1.820   6.928   9.024  0.0000  0.0000  0.0000
15073SI     SI115073   7.536   2.916   9.088  0.0000  0.0000  0.0000
15074SI     SI115074   0.766   2.549   0.658  0.0000  0.0000  0.0000
15075SI     SI115075   4.328   9.237   0.530  0.0000  0.0000  0.0000
15076SI     SI115076   3.063   3.010   0.585  0.0000  0.0000  0.0000
15077SI     SI115077   6.263   8.503   9.556  0.0000  0.0000  0.0000
15078SI     SI115078   3.098   4.896   8.803  0.0000  0.0000  0.0000
15079SI     SI115079   4.208   0.662   1.099  0.0000  0.0000  0.0000
15080SI     SI115080   6.454   5.063   9.074  0.0000  0.0000  0.0000
15081SI     SI115081   4.929   8.423   1.005  0.0000  0.0000  0.0000
15082SI     SI115082   8.132   5.160   8.847  0.0000  0.0000  0.0000
15083SI     SI115083   4.144   9.228   8.471  0.0000  0.0000  0.0000
15084SI     SI115084   4.681   1.702   8.707  0.0000  0.0000  0.0000
15085SI     SI115085   7.463   6.814   8.684  0.0000  0.0000  0.0000
15086SI     SI115086   5.989   0.896   9.082  0.0000  0.0000  0.0000
15087SI     SI115087   6.507   4.359   0.907  0.0000  0.0000  0.0000
15088SI     SI115088   1.678   2.972   9.317  0.0000  0.0000  0.0000
15089SI     SI115089   3.280   8.588   0.903  0.0000  0.0000  0.0000
15090SI     SI115090   6.716   2.844   1.088  0.0000  0.0000  0.0000
15091SI     SI115091   7.374   0.173   8.535  0.0000  0.0000  0.0000
15092SI     SI115092   3.870   1.891   8.975  0.0000  0.0000  0.0000
15093SI     SI115093   8.660   1.911   0.580  0.0000  0.0000  0.0000
15094SI     SI115094   9.100   9.030   1.196  0.0000  0.0000  0.0000
15095SI     SI115095   7.697   4.157   9.267  0.0000  0.0000  0.0000
15096SI     SI115096   6.105   4.230   0.369  0.0000  0.0000  0.0000
15097SI     SI115097   5.309   3.093   8.547  0.0000  0.0000  0.0000
15098SI     SI115098   7.390   0.756   1.018  0.0000  0.0000  0.0000
15099SI     SI115099   1.424   4.570   0.223  0.0000  0.0000  0.0000
15100SI     SI115100   0.520   7.730   9.443  0.0000  0.0000  0.0000
15101SI     SI115101   4.643   4.399   9.135  0.0000  0.0000  0.0000
15102SI     SI115102   4.804   2.129   0.190  0.0000  0.0000  0.0000
15103SI     SI115103   2.149   8.375   8.917  0.0000  0.0000  0.0000
15104SI     SI115104   3.142   2.365   1.179  0.0000  0.0000  0.0000
15105SI     SI115105   2.601   3.820   9.154  0.0000  0.0000  0.0000
15106SI     SI115106   3.961   6.661   8.428  0.0000  0.0000  0.0000
15107SI     SI115107   9.520   3.929   9.205  0.0000  0.0000  0.0000
15108SI     SI115108   7.492   0.491   1.150  0.0000  0.0000  0.0000
15109SI     SI115109   3.931   9.411   8.828  0.0000  0.0000  0.0000
15110SI     SI115110   9.280   2.398   8.842  0.0000  0.0000  0.0000
15111SI     SI115111   9.347   2.481   0.941  0.0000  0.0000  0.0000
15112SI     SI115112   5.714   6.984   9.340  0.0000  0.0000  0.0000
15113SI     SI115113   1.737   4.835   8.600  0.0000  0.0000  0.0000
15114SI     SI115114   0.272   4.457   0.284  0.0000  0.0000  0.0000
15115SI     SI115115   0.386   0.696   9.162  0.0000  0.0000  0.0000
15116SI     SI115116   0.618   7.761   1.060  0.0000  0.0000  0.0000
15117SI     SI115117   3.152   9.249   0.539  0.0000  0.0000  0.0000
15118SI     SI115118   9.281   2.019   1.186  0.0000  0.0000  0.0000
15119SI     SI115119   0.041   0.582   0.730  0.0000  0.0000  0.0000
15120SI     SI115120   6.039   6.526   0.925  0.0000  0.0000  0.0000
15121SI     SI115121   6.084   4.159   8.525  0.0000  0.0000  0.0000
15122SI     SI115122   4.780   2.487   0.952  0.0000  0.0000  0.0000
15123SI     SI115123   1.873   8.941   8.967  0.0000  0.0000  0.0000
15124SI     SI115124   8.565   6.500   0.017  0.0000  0.0000  0.0000
15125SI     SI115125   9.353   5.143   0.815  0.0000  0.0000  0.0000
15126SI     SI115126   2.203   6.814   0.242  0.0000  0.0000  0.0000
15127SI     SI115127   3.282   3.100   9.592  0.0000  0.0000  0.0000
15128SI     SI115128   7.255   0.728   9.294  0.0000  0.0000  0.0000
15129SI     SI115129   3.040   5.191   8.840  0.0000  0.0000  0.0000
15130SI     SI115130   7.723   5.034   1.134  0.0000  0.0000  0.0000
15131SI     SI115131   8.662   5.356   0.227  0.0000  0.0000  0.0000
15132SI     SI115132   2.661   4.731   8.527  0.0000  0.0000  0.0000
15133SI     SI115133   9.147   0.648   0.097  0.0000  0.0000  0.0000
15134SI     SI115134   1.845   8.425   8.835  0.0000  0.0000  0.0000
15135SI     SI115135   8.223   1.132   0.292  0.0000  0.0000  0.0000
15136SI     SI115136   2.162   7.703   0.975  0.0000  0.0000  0.0000
15137SI     SI115137   3.002   3.176   8.545  0.0000  0.0000  0.0000
15138SI     SI115138   1.438   6.768   9.083  0.0000  0.0000  0.0000
15139SI     SI115139   9.050   5.947   0.748  0.0000  0.0000  0.0000
15140SI     SI115140   7.413   7.731   8.786  0.0000  0.0000  0.0000
15141SI     SI115141   6.119   5.253   0.098  0.0000  0.0000  0.0000
15142SI     SI115142   5.486   2.569   8.659  0.0000  0.0000  0.0000
15143SI     SI115143   5.879   2.713   1.145  0.0000  0.0000  0.0000
15144SI     SI115144   1.205   9.048   9.277  0.0000  0.0000  0.0000
15145SI     SI115145   0.152   0.365   0.906  0.0000  0.0000  0.0000
15146SI     SI115146   7.417   4.182   0.087  0.0000  0.0000  0.0000
15147SI     SI115147   6.249   3.046   0.357  0.0000  0.0000  0.0000
15148SI     SI115148   6.737   0.650   9.048  0.0000  0.0000  0.0000
15149SI     SI115149   8.283   5.531   9.176  0.0000  0.0000  0.0000
15150SI     SI115150   2.649   2.230   9.582  0.0000  0.0000  0.0000
15151SI     SI115151   4.734   8.974   9.115  0.0000  0.0000  0.0000
15152SI     SI115152   6.680   6.460   0.612  0.0000  0.0000  0.0000
15153SI     SI115153   9.356   8.440   9.169  0.0000  0.0000  0.0000
15154SI     SI115154   8.510   3.979   1.331  0.0000  0.0000  0.0000
15155SI     SI115155   4.310   6.254   9.168  0.0000  0.0000  0.0000
15156SI     SI115156   1.559   7.060   9.106  0.0000  0.0000  0.0000
15157SI     SI115157   4.034   5.540   0.178  0.0000  0.0000  0.0000
15158SI     SI115158   6.469   6.120   1.153  0.0000  0.0000  0.0000
15159SI     SI115159   6.805   3.249   8.981  0.0000  0.0000  0.0000
15160SI     SI115160   0.668   1.007   0.857  0.0000  0.0000  0.0000
15161SI     SI115161   1.401   1.717   0.810  0.0000  0.0000  0.0000
15162SI     SI115162   0.142   4.840   9.447  0.0000  0.0000  0.0000
15163SI     SI115163   2.348   7.248   9.469  0.0000  0.0000  0.0000
15164SI     SI115164   3.683   0.348   1.017  0.0000  0.0000  0.0000
15165SI     SI115165   3.034   6.659   1.153  0.0000  0.0000  0.0000
15166SI     SI115166   8.045   7.591   0.200  0.0000  0.0000  0.0000
15167SI     SI115167   8.487   3.219   1.130  0.0000  0.0000  0.0000
15168SI     SI115168   0.416   0.815   0.869  0.0000  0.0000  0.0000
15169SI     SI115169   7.043   8.782   0.427  0.0000  0.0000  0.0000
15170SI     SI115170   7.068   4.440   8.835  0.0000  0.0000  0.0000
15171SI     SI115171   7.304   6.902   0.847  0.0000  0.0000  0.0000
15172SI     SI115172   5.997   4.859   0.441  0.0000  0.0000  0.0000
15173SI     SI115173   0.528   3.360   8.795  0.0000  0.0000  0.0000
15174SI     SI115174   5.442   7.745   9.562  0.0000  0.0000  0.0000
15175SI     SI115175   4.132   9.436   0.889  0.0000  0.0000  0.0000
15176SI     SI115176   2.809   3.681   0.770  0.0000  0.0000  0.0000
15177SI     SI115177   3.337   0.775   8.979  0.0000  0.0000  0.0000
15178SI     SI115178   8.906   9.174   1.003  0.0000  0.0000  0.0000
15179SI     SI115179   7.463   8.952   8.989  0.0000  0.0000  0.0000
15180SI     SI115180   6.747   3.290   9.270  0.0000  0.0000  0.0000
15181SI     SI115181   0.478   2.920   0.898  0.0000  0.0000  0.0000
15182SI     SI115182   2.051   2.691   8.513  0.0000  0.0000  0.0000
15183SI     SI115183   7.991   3.412   9.467  0.0000  0.0000  0.0000
15184SI     SI115184   2.112   8.616   0.344  0.0000  0.0000  0.0000
15185SI     SI115185   8.206   1.660   8.517  0.0000  0.0000  0.0000
15186SI     SI115186   3.033   3.280   8.844  0.0000  0.0000  0.0000
15187SI     SI115187   4.868   5.071   8.731  0.0000  0.0000  0.0000
15188SI     SI115188   7.203   6.886   8.538  0.0000  0.0000  0.0000
15189SI     SI115189   5.915   1.455   0.102  0.0000  0.0000  0.0000
15190SI     SI115190   6.688   4.217   1.129  0.0000  0.0000  0.0000
15191SI     SI115191   4.799   3.462   8.695  0.0000  0.0000  0.0000
15192SI     SI115192   0.749   7.942   9.040  0.0000  0.0000  0.0000
15193SI     SI115193   6.281   6.593   1.099  0.0000  0.0000  0.0000
15194SI     SI115194   4.464   1.837   0.845  0.0000  0.0000  0.0000
15195SI     SI115195   4.645   2.675   9.120  0.0000  0.0000  0.0000
15196SI     SI115196   2.422   6.222   9.052  0.0000  0.0000  0.0000
15197SI     SI115197   4.632   6.623   9.445  0.0000  0.0000  0.0000
15198SI     SI115198   1.421   7.600   8.635  0.0000  0.0000  0.0000
15199SI     SI115199   0.239   3.117   0.870  0.0000  0.0000  0.0000
15200SI     SI115200   5.618   5.690   8.974  0.0000  0.0000  0.0000
15201SI     SI115201   6.880   7.576   9.563  0.0000  0.0000  0.0000
15202SI     SI115202   4.771   5.723   0.483  0.0000  0.0000  0.0000
15203SI     SI115203   0.339   6.349   0.776  0.0000  0.0000  0.0000
15204SI     SI115204   8.704   5.177   1.074  0.0000  0.0000  0.0000
15205SI     SI115205   3.229   1.220   0.558  0.0000  0.0000  0.0000
15206SI     SI115206   3.741   1.674   0.184  0.0000  0.0000  0.0000
15207SI     SI115207   8.641   6.077   0.492  0.0000  0.0000  0.0000
15208SI     SI115208   0.819   8.282   0.558  0.0000  0.0000  0.0000
15209SI     SI115209   2.204   6.829   9.201  0.0000  0.0000  0.0000
15210SI     SI115210   7.127   0.048   9.343  0.0000  0.0000  0.0000
15211SI     SI115211   1.035   4.270   8.577  0.0000  0.0000  0.0000
15212SI     SI115212   3.421   6.224   8.753  0.0000  0.0000  0.0000
15213SI     SI115213   3.611   2.493   0.192  0.0000  0.0000  0.0000
15214SI     SI115214   1.204   6.544   8.650  0.0000  0.0000  0.0000
15215SI     SI115215   5.049   5.685   0.367  0.0000  0.0000  0.0000
15216SI     SI115216   4.919   3.057   0.151  0.0000  0.0000  0.0000
15217SI     SI115217   5.298   6.762   8.945  0.0000  0.0000  0.0000
15218SI     SI115218   8.648   1.239   9.192  0.0000  0.0000  0.0000
15219SI     SI115219   1.833   4.309   0.337  0.0000  0.0000  0.0000
15220SI     SI115220   7.051   2.819   8.650  0.0000  0.0000  0.0000
15221SI     SI115221   7.872   1.392   0.887  0.0000  0.0000  0.0000
15222SI     SI115222   5.288   6.808   1.262  0.0000  0.0000  0.0000
15223SI     SI115223   9.296   7.722   8.747  0.0000  0.0000  0.0000
15224SI     SI115224   4.672   7.873   0.895  0.0000  0.0000  0.0000
15225SI     SI115225   6.028   0.981   0.238  0.0000  0.0000  0.0000
15226SI     SI115226   6.616   7.198   9.003  0.0000  0.0000  0.0000
15227SI     SI115227   7.482   1.866   9.089  0.0000  0.0000  0.0000
15228SI     SI115228   5.028   0.102   0.408  0.0000  0.0000  0.0000
15229SI     SI115229   4.332   1.331   0.013  0.0000  0.0000  0.0000
15230SI     SI115230   9.312   7.975   9.145  0.0000  0.0000  0.0000
15231SI     SI115231   6.691   7.909   9.213  0.0000  0.0000  0.0000
15232SI     SI115232   5.948   7.899   8.843  0.0000  0.0000  0.0000
15233SI     SI115233   2.375   5.567   0.134  0.0000  0.0000  0.0000
15234SI     SI115234   4.977   3.309   9.305  0.0000  0.0000  0.0000
15235SI     SI115235   5.164   9.576   8.860  0.0000  0.0000  0.0000
15236SI     SI115236   1.477   7.295   0.237  0.0000  0.0000  0.0000
15237SI     SI115237   1.802   6.230   9.350  0.0000  0.0000  0.0000
15238SI     SI115238   4.373   8.621   8.195  0.0000  0.0000  0.0000
15239SI     SI115239   8.430   5.034   0.065  0.0000  0.0000  0.0000
15240SI     SI115240   7.716   7.818   9.433  0.0000  0.0000  0.0000
15241SI     SI115241   7.963   4.308   0.230  0.0000  0.0000  0.0000
15242SI     SI115242   4.086   3.011   8.500  0.0000  0.0000  0.0000
15243SI     SI115243   3.866   2.471   0.711  0.0000  0.0000  0.0000
15244SI     SI115244   0.254   7.113   0.396  0.0000  0.0000  0.0000
15245SI     SI115245   5.772   8.529   9.103  0.0000  0.0000  0.0000
15246SI     SI115246   4.680   3.231   8.860  0.0000  0.0000  0.0000
15247SI     SI115247   0.442   1.565   0.067  0.0000  0.0000  0.0000
15248SI     SI115248   4.507   8.340   0.299  0.0000  0.0000  0.0000
15249SI     SI115249   5.386   0.654   1.323  0.0000  0.0000  0.0000
15250SI     SI115250   1.679   3.062   0.168  0.0000  0.0000  0.0000
15251SI     SI115251   6.074   2.151   0.049  0.0000  0.0000  0.0000
15252SI     SI115252   8.396   6.203   8.839  0.0000  0.0000  0.0000
15253SI     SI115253   0.536   6.889   0.741  0.0000  0.0000  0.0000
15254SI     SI115254   3.367   7.526   1.213  0.0000  0.0000  0.0000
15255SI     SI115255   0.281   1.483   1.091  0.0000  0.0000  0.0000
15256SI     SI115256   0.108   8.675   9.472  0.0000  0.0000  0.0000
15257SI     SI115257   9.447   4.192   9.366  0.0000  0.0000  0.0000
15258SI     SI115258   1.153   1.914   0.762  0.0000  0.0000  0.0000
15259SI     SI115259   9.168   2.857   0.113  0.0000  0.0000  0.0000
15260SI     SI115260   7.780   3.708   9.071  0.0000  0.0000  0.0000
15261SI     SI115261   8.589   3.672   9.380  0.0000  0.0000  0.0000
15262SI     SI115262   3.506   1.260   8.869  0.0000  0.0000  0.0000
15263SI     SI115263   5.937   5.075   0.839  0.0000  0.0000  0.0000
15264SI     SI115264   1.163   7.037   0.530  0.0000  0.0000  0.0000
15265SI     SI115265   4.511   2.493   9.343  0.0000  0.0000  0.0000
15266SI     SI115266   7.535   7.033   0.423  0.0000  0.0000  0.0000
15267SI     SI115267   9.212   3.947   0.552  0.0000  0.0000  0.0000
15268SI     SI115268   1.004   4.738   0.546  0.0000  0.0000  0.0000
15269SI     SI115269   2.003   8.420   0.123  0.0000  0.0000  0.0000
15270SI     SI115270   4.998   0.478   0.017  0.0000  0.0000  0.0000
15271SI     SI115271   4.098   5.576   0.666  0.0000  0.0000  0.0000
15272SI     SI115272   1.288   3.887   9.275  0.0000  0.0000  0.0000
15273SI     SI115273   4.377   4.264   0.832  0.0000  0.0000  0.0000
15274SI     SI115274   8.675   6.980   8.546  0.0000  0.0000  0.0000
15275SI     SI115275   1.983   2.725   9.017  0.0000  0.0000  0.0000
15276SI     SI115276   6.896   3.934   9.050  0.0000  0.0000  0.0000
15277SI     SI115277   8.428   9.312   9.169  0.0000  0.0000  0.0000
15278SI     SI115278   6.337   8.880   0.624  0.0000  0.0000  0.0000
15279SI     SI115279   2.819   4.709   0.110  0.0000  0.0000  0.0000
15280SI     SI115280   4.740   3.212   0.623  0.0000  0.0000  0.0000
15281SI     SI115281   3.497   4.061   0.505  0.0000  0.0000  0.0000
15282SI     SI115282   3.559   2.110   1.011  0.0000  0.0000  0.0000
15283SI     SI115283   3.152   3.129   9.093  0.0000  0.0000  0.0000
15284SI     SI115284   1.088   5.684   0.914  0.0000  0.0000  0.0000
15285SI     SI115285   2.169   7.275   8.972  0.0000  0.0000  0.0000
15286SI     SI115286   8.031   9.475   0.887  0.0000  0.0000  0.0000
15287SI     SI115287   0.445   7.120   9.228  0.0000  0.0000  0.0000
15288SI     SI115288   2.150   2.043   0.655  0.0000  0.0000  0.0000
15289SI     SI115289   2.473   8.501   0.069  0.0000  0.0000  0.0000
15290SI     SI115290   4.003   2.737   0.342  0.0000  0.0000  0.0000
15291SI     SI115291   7.736   3.976   0.930  0.0000  0.0000  0.0000
15292SI     SI115292   2.128   6.004   8.766  0.0000  0.0000  0.0000
15293SI     SI115293   3.213   6.432   8.858  0.0000  0.0000  0.0000
15294SI     SI115294   9.015   5.539   1.152  0.0000  0.0000  0.0000
15295SI     SI115295   8.604   5.597   0.407  0.0000  0.0000  0.0000
15296SI     SI115296   7.758   7.453   0.155  0.0000  0.0000  0.0000
15297SI     SI115297   2.825   8.832   0.120  0.0000  0.0000  0.0000
15298SI     SI115298   5.461   3.090   0.026  0.0000  0.0000  0.0000
15299SI     SI115299   5.539   4.609   9.444  0.0000  0.0000  0.0000
15300SI     SI115300   9.205   5.979   8.928  0.0000  0.0000  0.0000
15301SI     SI115301   2.334   4.200   0.544  0.0000  0.0000  0.0000
15302SI     SI115302   8.705   8.210   0.381  0.0000  0.0000  0.0000
15303SI     SI115303   0.548   5.404   0.386  0.0000  0.0000  0.0000
15304SI     SI115304   0.364   0.751   1.152  0.0000  0.0000  0.0000
15305SI     SI115305   5.421   3.626   1.079  0.0000  0.0000  0.0000
15306SI     SI115306   9.602   0.985   9.036  0.0000  0.0000  0.0000
15307SI     SI115307   5.010   8.847   9.108  0.0000  0.0000  0.0000
15308SI     SI115308   2.013   2.051   8.700  0.0000  0.0000  0.0000
15309SI     SI115309   1.225   7.486   8.859  0.0000  0.0000  0.0000
15310SI     SI115310   6.764   6.422   0.910  0.0000  0.0000  0.0000
15311SI     SI115311   2.930   8.868   8.578  0.0000  0.0000  0.0000
15312SI     SI115312   7.186   8.045   0.949  0.0000  0.0000  0.0000
15313SI     SI115313   4.125   1.547   0.977  0.0000  0.0000  0.0000
15314SI     SI115314   5.274   4.132   9.494  0.0000  0.0000  0.0000
15315SI     SI115315   7.478   3.285   8.509  0.0000  0.0000  0.0000
15316SI     SI115316   2.679   5.709   1.383  0.0000  0.0000  0.0000
15317SI     SI115317   2.251   3.750   9.491  0.0000  0.0000  0.0000
15318SI     SI115318   5.014   6.077   0.752  0.0000  0.0000  0.0000
15319SI     SI115319   5.815   4.590   9.308  0.0000  0.0000  0.0000
15320SI     SI115320   8.189   2.026   8.837  0.0000  0.0000  0.0000
15321SI     SI115321   2.502   5.936   9.027  0.0000  0.0000  0.0000
15322SI     SI115322   4.065   5.752   0.407  0.0000  0.0000  0.0000
15323SI     SI115323   1.223   4.061   8.834  0.0000  0.0000  0.0000
15324SI     SI115324   3.556   0.310   9.127  0.0000  0.0000  0.0000
15325SI     SI115325   4.613   0.612   8.873  0.0000  0.0000  0.0000
15326SI     SI115326   0.657   0.076   8.534  0.0000  0.0000  0.0000
15327SI     SI115327   3.212   0.342   0.251  0.0000  0.0000  0.0000
15328SI     SI115328   6.375   8.086   0.937  0.0000  0.0000  0.0000
15329SI     SI115329   3.515   0.368   0.331  0.0000  0.0000  0.0000
15330SI     SI115330   7.246   5.597   9.221  0.0000  0.0000  0.0000
15331SI     SI115331   5.181   5.451   8.804  0.0000  0.0000  0.0000
15332SI     SI115332   7.210   1.434   0.314  0.0000  0.0000  0.0000
15333SI     SI115333   2.195   4.992   0.490  0.0000  0.0000  0.0000
15334SI     SI115334   9.594   7.417   0.718  0.0000  0.0000  0.0000
15335SI     SI115335   9.174   7.265   1.066  0.0000  0.0000  0.0000
15336SI     SI115336   2.797   1.608   0.436  0.0000  0.0000  0.0000
15337SI     SI115337   4.630   7.644   1.096  0.0000  0.0000  0.0000
15338SI     SI115338   6.850   5.636   0.750  0.0000  0.0000  0.0000
15339SI     SI115339   6.573   8.734   9.262  0.0000  0.0000  0.0000
15340SI     SI115340   6.373   6.210   9.093  0.0000  0.0000  0.0000
15341SI     SI115341   0.616   0.114   8.842  0.0000  0.0000  0.0000
15342SI     SI115342   0.990   9.360   0.263  0.0000  0.0000  0.0000
15343SI     SI115343   5.087   8.025   8.725  0.0000  0.0000  0.0000
15344SI     SI115344   0.158   2.518   0.775  0.0000  0.0000  0.0000
15345SI     SI115345   0.020   3.989   8.361  0.0000  0.0000  0.0000
15346SI     SI115346   7.243   4.292   8.391  0.0000  0.0000  0.0000
15347SI     SI115347   1.789   9.378   0.786  0.0000  0.0000  0.0000
15348SI     SI115348   0.190   5.696   9.121  0.0000  0.0000  0.0000
15349SI     SI115349   0.000   0.542   0.418  0.0000  0.0000  0.0000
15350SI     SI115350   4.716   3.980   8.873  0.0000  0.0000  0.0000
15351SI     SI115351   8.667   6.789   1.064  0.0000  0.0000  0.0000
15352SI     SI115352   7.274   2.475   0.262  0.0000  0.0000  0.0000
15353SI     SI115353   8.019   1.043   8.748  0.0000  0.0000  0.0000
15354SI     SI115354   5.658   3.414   1.054  0.0000  0.0000  0.0000
15355SI     SI115355   0.061   4.443   0.072  0.0000  0.0000  0.0000
15356SI     SI115356   0.123   5.891   9.356  0.0000  0.0000  0.0000
15357SI     SI115357   7.831   1.627   8.860  0.0000  0.0000  0.0000
15358SI     SI115358   2.267   5.759   8.629  0.0000  0.0000  0.0000
15359SI     SI115359   5.710   5.999   8.499  0.0000  0.0000  0.0000
15360SI     SI115360   3.751   7.265   0.561  0.0000  0.0000  0.0000
15361SI     SI115361   4.681   1.717   0.447  0.0000  0.0000  0.0000
15362SI     SI115362   0.327   5.887   8.921  0.0000  0.0000  0.0000
15363SI     SI115363   4.346   3.904   9.228  0.0000  0.0000  0.0000
15364SI     SI115364   5.463   5.925   0.655  0.0000  0.0000  0.0000
15365SI     SI115365   6.084   7.275   0.549  0.0000  0.0000  0.0000
15366SI     SI115366   1.720   6.213   0.453  0.0000  0.0000  0.0000
15367SI     SI115367   2.219   0.443   9.278  0.0000  0.0000  0.0000
15368SI     SI115368   8.050   6.346   8.512  0.0000  0.0000  0.0000
15369SI     SI115369   7.370   6.304   0.350  0.0000  0.0000  0.0000
15370SI     SI115370   0.397   1.168   8.630  0.0000  0.0000  0.0000
15371SI     SI115371   9.138   4.328   0.403  0.0000  0.0000  0.0000
15372SI     SI115372   0.375   2.669   8.627  0.0000  0.0000  0.0000
15373SI     SI115373   9.278   8.962   9.592  0.0000  0.0000  0.0000
15374SI     SI115374   3.641   2.112   8.975  0.0000  0.0000  0.0000
15375SI     SI115375   3.935   3.590   9.414  0.0000  0.0000  0.0000
15376SI     SI115376   8.260   7.513   9.295  0.0000  0.0000  0.0000
15377SI     SI115377   4.039   9.119   9.586  0.0000  0.0000  0.0000
15378SI     SI115378   9.345   5.621   9.484  0.0000  0.0000  0.0000
15379SI     SI115379   4.655   7.724   8.584  0.0000  0.0000  0.0000
15380SI     SI115380   9.236   4.517   0.825  0.0000  0.0000  0.0000
15381SI     SI115381   1.123   6.743   9.102  0.0000  0.0000  0.0000
15382SI     SI115382   6.851   8.368   0.228  0.0000  0.0000  0.0000
15383SI     SI115383   7.082   5.611   8.709  0.0000  0.0000  0.0000
15384SI     SI115384   4.634   6.317   8.476  0.0000  0.0000  0.0000
15385SI     SI115385   7.543   0.544   8.882  0.0000  0.0000  0.0000
15386SI     SI115386   0.829   0.706   0.351  0.0000  0.0000  0.0000
15387SI     SI115387   7.572   4.119   8.791  0.0000  0.0000  0.0000
15388SI     SI115388   1.220   2.704   0.918  0.0000  0.0000  0.0000
15389SI     SI115389   6.714   9.188   8.856  0.0000  0.0000  0.0000
15390SI     SI115390   1.027   2.645   8.729  0.0000  0.0000  0.0000
15391SI     SI115391   9.211   8.548   8.710  0.0000  0.0000  0.0000
15392SI     SI115392   1.269   8.275   0.447  0.0000  0.0000  0.0000
15393SI     SI115393   1.056   5.454   8.564  0.0000  0.0000  0.0000
15394SI     SI115394   2.826   1.876   8.974  0.0000  0.0000  0.0000
15395SI     SI115395   1.946   2.832   9.303  0.0000  0.0000  0.0000
15396SI     SI115396   5.882   5.695   8.823  0.0000  0.0000  0.0000
15397SI     SI115397   4.416   2.613   0.560  0.0000  0.0000  0.0000
15398SI     SI115398   8.327   0.461   8.519  0.0000  0.0000  0.0000
15399SI     SI115399   1.301   3.471   8.732  0.0000  0.0000  0.0000
15400SI     SI115400   0.129   4.402   0.839  0.0000  0.0000  0.0000
15401SI     SI115401   8.256   2.496   8.687  0.0000  0.0000  0.0000
15402SI     SI115402   1.015   0.389   0.660  0.0000  0.0000  0.0000
15403SI     SI115403   8.039   6.769   8.653  0.0000  0.0000  0.0000
15404SI     SI115404   3.363   7.292   0.435  0.0000  0.0000  0.0000
15405SI     SI115405   1.254   8.495   8.795  0.0000  0.0000  0.0000
15406SI     SI115406   3.107   8.024   0.485  0.0000  0.0000  0.0000
15407SI     SI115407   9.045   0.074   9.115  0.0000  0.0000  0.0000
15408SI     SI115408   0.974   4.168   8.993  0.0000  0.0000  0.0000
15409SI     SI115409   2.071   8.854   8.252  0.0000  0.0000  0.0000
15410SI     SI115410   6.536   3.840   0.849  0.0000  0.0000  0.0000
15411SI     SI115411   5.459   0.332   8.671  0.0000  0.0000  0.0000
15412SI     SI115412   4.772   1.058   0.795  0.0000  0.0000  0.0000
15413SI     SI115413   3.756   1.595   8.971  0.0000  0.0000  0.0000
15414SI     SI115414   4.396   2.208   9.316  0.0000  0.0000  0.0000
15415SI     SI115415   3.518   1.396   9.504  0.0000  0.0000  0.0000
15416SI     SI115416   3.224   6.271   0.010  0.0000  0.0000  0.0000
15417SI     SI115417   9.160   7.118   0.633  0.0000  0.0000  0.0000
15418SI     SI115418   6.112   4.334   8.788  0.0000  0.0000  0.0000
15419SI     SI115419   5.874   8.871   9.552  0.0000  0.0000  0.0000
15420SI     SI115420   7.269   9.310   0.437  0.0000  0.0000  0.0000
15421SI     SI115421   4.101   7.158   1.025  0.0000  0.0000  0.0000
15422SI     SI115422   1.386   1.678   8.652  0.0000  0.0000  0.0000
15423SI     SI115423   7.768   6.578   0.631  0.0000  0.0000  0.0000
15424SI     SI115424   8.094   2.922   0.009  0.0000  0.0000  0.0000
15425SI     SI115425   2.382   2.266   8.671  0.0000  0.0000  0.0000
15426SI     SI115426   6.799   8.539   0.708  0.0000  0.0000  0.0000
15427SI     SI115427   8.504   6.475   8.824  0.0000  0.0000  0.0000
15428SI     SI115428   5.864   3.515   0.837  0.0000  0.0000  0.0000
15429SI     SI115429   3.321   4.471   1.004  0.0000  0.0000  0.0000
15430SI     SI115430   7.932   4.453   0.992  0.0000  0.0000  0.0000
15431SI     SI115431   1.749   5.727   9.291  0.0000  0.0000  0.0000
15432SI     SI115432   3.711   5.822   8.864  0.0000  0.0000  0.0000
15433SI     SI115433   0.131   5.769   0.028  0.0000  0.0000  0.0000
15434SI     SI115434   5.937   3.269   8.590  0.0000  0.0000  0.0000
15435SI     SI115435   4.550   9.594   8.555  0.0000  0.0000  0.0000
15436SI     SI115436   3.880   5.447   8.981  0.0000  0.0000  0.0000
15437SI     SI115437   4.640   2.230   0.614  0.0000  0.0000  0.0000
15438SI     SI115438   8.797   9.013   0.392  0.0000  0.0000  0.0000
15439SI     SI115439   4.474   8.463   8.437  0.0000  0.0000  0.0000
15440SI     SI115440   6.314   2.349   9.238  0.0000  0.0000  0.0000
15441SI     SI115441   5.178   1.499   0.360  0.0000  0.0000  0.0000
15442SI     SI115442   2.532   9.328   9.305  0.0000  0.0000  0.0000
15443SI     SI115443   0.227   7.272   0.836  0.0000  0.0000  0.0000
15444SI     SI115444   3.434   7.461   0.923  0.0000  0.0000  0.0000
15445SI     SI115445   1.217   5.422   0.919  0.0000  0.0000  0.0000
15446SI     SI115446   4.823   4.166   9.248  0.0000  0.0000  0.0000
15447SI     SI115447   4.912   9.563   0.858  0.0000  0.0000  0.0000
15448SI     SI115448   2.004   3.816   0.570  0.0000  0.0000  0.0000
15449SI     SI115449   4.686   9.502   9.062  0.0000  0.0000  0.0000
15450SI     SI115450   6.159   1.896   0.221  0.0000  0.0000  0.0000
15451SI     SI115451   3.155   5.283   0.213  0.0000  0.0000  0.0000
15452SI     SI115452   3.689   5.258   9.529  0.0000  0.0000  0.0000
15453SI     SI115453   1.646   6.913   8.590  0.0000  0.0000  0.0000
15454SI     SI115454   4.785   3.655   9.263  0.0000  0.0000  0.0000
15455SI     SI115455   5.264   1.746   0.880  0.0000  0.0000  0.0000
15456SI     SI115456   7.086   6.612   8.467  0.0000  0.0000  0.0000
15457SI     SI115457   4.768   7.738   0.463  0.0000  0.0000  0.0000
15458SI     SI115458   3.829   6.318   9.120  0.0000  0.0000  0.0000
15459SI     SI115459   8.682   3.750   0.973  0.0000  0.0000  0.0000
15460SI     SI115460   1.083   9.010   0.771  0.0000  0.0000  0.0000
15461SI     SI115461   0.672   4.505   1.085  0.0000  0.0000  0.0000
15462SI     SI115462   9.447   1.179   0.402  0.0000  0.0000  0.0000
15463SI     SI115463   2.574   4.830   9.578  0.0000  0.0000  0.0000
15464SI     SI115464   0.855   1.437   1.006  0.0000  0.0000  0.0000
15465SI     SI115465   9.286   1.081   0.145  0.0000  0.0000  0.0000
15466SI     SI115466   5.570   3.502   8.729  0.0000  0.0000  0.0000
15467SI     SI115467   7.907   0.594   9.117  0.0000  0.0000  0.0000
15468SI     SI115468   5.129   6.523   9.305  0.0000  0.0000  0.0000
15469SI     SI115469   3.607   2.882   0.625  0.0000  0.0000  0.0000
15470SI     SI115470   2.901   0.572   0.949  0.0000  0.0000  0.0000
15471SI     SI115471   8.302   9.374   0.819  0.0000  0.0000  0.0000
15472SI     SI115472   0.857   8.809   9.441  0.0000  0.0000  0.0000
15473SI     SI115473   2.387   0.416   1.073  0.0000  0.0000  0.0000
15474SI     SI115474   4.853   1.649   9.592  0.0000  0.0000  0.0000
15475SI     SI115475   7.885   8.419   8.685  0.0000  0.0000  0.0000
15476SI     SI115476   8.680   2.512   8.916  0.0000  0.0000  0.0000
15477SI     SI115477   9.564   1.252   8.868  0.0000  0.0000  0.0000
15478SI     SI115478   6.279   0.850   9.101  0.0000  0.0000  0.0000
15479SI     SI115479   7.220   1.212   0.547  0.0000  0.0000  0.0000
15480SI     SI115480   6.640   8.165   1.045  0.0000  0.0000  0.0000
15481SI     SI115481   7.846   5.066   8.785  0.0000  0.0000  0.0000
15482SI     SI115482   8.977   7.377   0.863  0.0000  0.0000  0.0000
15483SI     SI115483   9.328   7.254   8.659  0.0000  0.0000  0.0000
15484SI     SI115484   5.390   2.921   9.387  0.0000  0.0000  0.0000
15485SI     SI115485   5.046   4.089   0.865  0.0000  0.0000  0.0000
15486SI     SI115486   3.227   5.456   8.414  0.0000  0.0000  0.0000
15487SI     SI115487   7.295   2.342   8.828  0.0000  0.0000  0.0000
15488SI     SI115488   7.292   4.955   0.333  0.0000  0.0000  0.0000
15489SI     SI115489   0.528   2.182   0.017  0.0000  0.0000  0.0000
15490SI     SI115490   8.650   3.602   0.476  0.0000  0.0000  0.0000
15491SI     SI115491   5.539   8.982   0.358  0.0000  0.0000  0.0000
15492SI     SI115492   3.449   6.219   0.970  0.0000  0.0000  0.0000
15493SI     SI115493   8.089   5.700   0.506  0.0000  0.0000  0.0000
15494SI     SI115494   5.245   6.936   0.472  0.0000  0.0000  0.0000
15495SI     SI115495   3.561   1.411   8.598  0.0000  0.0000  0.0000
15496SI     SI115496   5.851   7.052   9.073  0.0000  0.0000  0.0000
15497SI     SI115497   3.172   2.663   0.264  0.0000  0.0000  0.0000
15498SI     SI115498   3.145   1.629   0.717  0.0000  0.0000  0.0000
15499SI     SI115499   1.318   7.529   1.203  0.0000  0.0000  0.0000
15500SI     SI115500   3.253   3.997   0.071  0.0000  0.0000  0.0000
15501SI     SI115501   8.002   5.694   0.208  0.0000  0.0000  0.0000
15502SI     SI115502   2.704   3.787   1.040  0.0000  0.0000  0.0000
15503SI     SI115503   9.277   7.015   9.133  0.0000  0.0000  0.0000
15504SI     SI115504   3.530   5.031   0.528  0.0000  0.0000  0.0000
15505SI     SI115505   3.943   4.826   0.767  0.0000  0.0000  0.0000
15506SI     SI115506   1.428   5.176   9.131  0.0000  0.0000  0.0000
15507SI     SI115507   2.409   4.760   0.520  0.0000  0.0000  0.0000
15508SI     SI115508   4.819   3.679   0.417  0.0000  0.0000  0.0000
15509SI     SI115509   3.171   9.288   8.788  0.0000  0.0000  0.0000
15510SI     SI115510   3.364   7.495   8.500  0.0000  0.0000  0.0000
15511SI     SI115511   6.859   0.682   9.501  0.0000  0.0000  0.0000
15512SI     SI115512   1.644   6.247   8.721  0.0000  0.0000  0.0000
15513SI     SI115513   1.036   3.204   9.498  0.0000  0.0000  0.0000
15514SI     SI115514   1.489   2.061   0.109  0.0000  0.0000  0.0000
15515SI     SI115515   4.128   9.476   1.205  0.0000  0.0000  0.0000
15516SI     SI115516   7.892   8.186   8.492  0.0000  0.0000  0.0000
15517SI     SI115517   0.750   8.710   9.162  0.0000  0.0000  0.0000
15518SI     SI115518   9.316   0.284   8.402  0.0000  0.0000  0.0000
15519SI     SI115519   3.977   6.069   9.186  0.0000  0.0000  0.0000
15520SI     SI115520   5.566   9.239   9.485  0.0000  0.0000  0.0000
15521SI     SI115521   7.211   9.511   9.089  0.0000  0.0000  0.0000
15522SI     SI115522   2.366   8.101   8.605  0.0000  0.0000  0.0000
15523SI     SI115523   8.768   4.023   0.872  0.0000  0.0000  0.0000
15524SI     SI115524   6.230   6.048   8.865  0.0000  0.0000  0.0000
15525SI     SI115525   6.816   9.272   0.802  0.0000  0.0000  0.0000
15526SI     SI115526   7.008   3.773   8.549  0.0000  0.0000  0.0000
15527SI     SI115527   3.124   3.879   8.408  0.0000  0.0000  0.0000
15528SI     SI115528   6.975   4.345   0.261  0.0000  0.0000  0.0000
15529SI     SI115529   7.458   6.400   8.977  0.0000  0.0000  0.0000
15530SI     SI115530   3.155   9.584   1.132  0.0000  0.0000  0.0000
15531SI     SI115531   6.970   6.509   0.553  0.0000  0.0000  0.0000
15532SI     SI115532   2.748   7.353   0.844  0.0000  0.0000  0.0000
15533SI     SI115533   9.401   6.888   9.380  0.0000  0.0000  0.0000
15534SI     SI115534   4.850   7.268   9.414  0.0000  0.0000  0.0000
15535SI     SI115535   4.807   6.975   0.209  0.0000  0.0000  0.0000
15536SI     SI115536   9.053   1.415   8.740  0.0000  0.0000  0.0000
15537SI     SI115537   6.027   3.729   0.976  0.0000  0.0000  0.0000
15538SI     SI115538   1.276   1.097   0.221  0.0000  0.0000  0.0000
15539SI     SI115539   1.028   2.025   1.033  0.0000  0.0000  0.0000
15540SI     SI115540   9.309   5.566   8.624  0.0000  0.0000  0.0000
15541SI     SI115541   7.592   5.092   0.865  0.0000  0.0000  0.0000
15542SI     SI115542   2.438   6.006   1.112  0.0000  0.0000  0.0000
15543SI     SI115543   2.200   0.151   9.314  0.0000  0.0000  0.0000
15544SI     SI115544   8.979   3.128   0.772  0.0000  0.0000  0.0000
15545SI     SI115545   8.932   9.394   0.156  0.0000  0.0000  0.0000
15546SI     SI115546   7.603   4.176   0.534  0.0000  0.0000  0.0000
15547SI     SI115547   1.774   6.872   9.541  0.0000  0.0000  0.0000
15548SI     SI115548   8.891   4.214   1.083  0.0000  0.0000  0.0000
15549SI     SI115549   9.506   7.511   8.673  0.0000  0.0000  0.0000
15550SI     SI115550   4.404   0.172   1.119  0.0000  0.0000  0.0000
15551SI     SI115551   5.282   8.458   9.225  0.0000  0.0000  0.0000
15552SI     SI115552   9.099   7.195   0.341  0.0000  0.0000  0.0000
15553SI     SI115553   8.887   3.277   9.244  0.0000  0.0000  0.0000
15554SI     SI115554   5.242   2.234   0.343  0.0000  0.0000  0.0000
15555SI     SI115555   6.294   4.614   9.144  0.0000  0.0000  0.0000
15556SI     SI115556   4.541   3.510   0.190  0.0000  0.0000  0.0000
15557SI     SI115557   1.426   1.761   1.126  0.0000  0.0000  0.0000
15558SI     SI115558   0.116   3.073   8.588  0.0000  0.0000  0.0000
15559SI     SI115559   0.171   8.877   0.104  0.0000  0.0000  0.0000
15560SI     SI115560   6.877   2.358   9.162  0.0000  0.0000  0.0000
15561SI     SI115561   6.948   4.409   0.561  0.0000  0.0000  0.0000
15562SI     SI115562   5.222   5.101   8.387  0.0000  0.0000  0.0000
15563SI     SI115563   3.696   6.992   8.721  0.0000  0.0000  0.0000
15564SI     SI115564   2.420   8.796   9.299  0.0000  0.0000  0.0000
15565SI     SI115565   8.655   2.641   0.735  0.0000  0.0000  0.0000
15566SI     SI115566   2.886   5.817   0.435  0.0000  0.0000  0.0000
15567SI     SI115567   6.141   0.783   8.693  0.0000  0.0000  0.0000
15568SI     SI115568   8.420   1.310   0.990  0.0000  0.0000  0.0000
15569SI     SI115569   5.072   4.839   8.812  0.0000  0.0000  0.0000
15570SI     SI115570   1.295   2.450   9.233  0.0000  0.0000  0.0000
15571SI     SI115571   8.692   6.574   0.627  0.0000  0.0000  0.0000
15572SI     SI115572   4.816   6.156   0.386  0.0000  0.0000  0.0000
15573SI     SI115573   2.010   7.400   9.177  0.0000  0.0000  0.0000
15574SI     SI115574   3.806   5.896   8.577  0.0000  0.0000  0.0000
15575SI     SI115575   7.332   9.193   1.094  0.0000  0.0000  0.0000
15576SI     SI115576   2.349   2.493   0.778  0.0000  0.0000  0.0000
15577SI     SI115577   1.375   9.603   0.485  0.0000  0.0000  0.0000
15578SI     SI115578   4.551   5.226   0.307  0.0000  0.0000  0.0000
15579SI     SI115579   4.371   4.301   8.555  0.0000  0.0000  0.0000
15580SI     SI115580   7.931   1.266   0.627  0.0000  0.0000  0.0000
15581SI     SI115581   4.282   4.313   0.054  0.0000  0.0000  0.0000
15582SI     SI115582   6.827   4.463   8.990  0.0000  0.0000  0.0000
15583SI     SI115583   3.871   6.473   1.006  0.0000  0.0000  0.0000
15584SI     SI115584   0.614   4.190   9.298  0.0000  0.0000  0.0000
15585SI     SI115585   5.391   6.520   9.465  0.0000  0.0000  0.0000
15586SI     SI115586   2.224   5.234   8.755  0.0000  0.0000  0.0000
15587SI     SI115587   8.472   0.020   0.831  0.0000  0.0000  0.0000
15588SI     SI115588   4.291   6.905   9.269  0.0000  0.0000  0.0000
15589SI     SI115589   7.045   5.103   0.204  0.0000  0.0000  0.0000
15590SI     SI115590   0.774   8.734   1.098  0.0000  0.0000  0.0000
15591SI     SI115591   1.298   0.205   0.989  0.0000  0.0000  0.0000
15592SI     SI115592   9.137   7.539   0.637  0.0000  0.0000  0.0000
15593SI     SI115593   2.432   1.042   9.106  0.0000  0.0000  0.0000
15594SI     SI115594   1.230   2.139   0.548  0.0000  0.0000  0.0000
15595SI     SI115595   1.822   4.198   0.625  0.0000  0.0000  0.0000
15596SI     SI115596   8.303   9.528   0.044  0.0000  0.0000  0.0000
15597SI     SI115597   6.333   1.444   0.616  0.0000  0.0000  0.0000
15598SI     SI115598   4.071   8.518   0.431  0.0000  0.0000  0.0000
15599SI     SI115599   0.916   4.216   0.117  0.0000  0.0000  0.0000
15600SI     SI115600   7.393   3.030   0.807  0.0000  0.0000  0.0000
15601SI     SI115601   8.923   8.998   8.763  0.0000  0.0000  0.0000
15602SI     SI115602   3.018   5.695   9.041  0.0000  0.0000  0.0000
15603SI     SI115603   4.842   7.282   8.666  0.0000  0.0000  0.0000
15604SI     SI115604   0.388   8.016   0.278  0.0000  0.0000  0.0000
15605SI     SI115605   5.968   2.702   8.603  0.0000  0.0000  0.0000
15606SI     SI115606   3.166   6.753   8.528  0.0000  0.0000  0.0000
15607SI     SI115607   1.445   2.648   1.112  0.0000  0.0000  0.0000
15608SI     SI115608   1.515   8.092   0.796  0.0000  0.0000  0.0000
15609SI     SI115609   1.802   2.345   0.806  0.0000  0.0000  0.0000
15610SI     SI115610   5.751   2.283   8.488  0.0000  0.0000  0.0000
15611SI     SI115611   0.647   2.275   0.773  0.0000  0.0000  0.0000
15612SI     SI115612   0.937   4.412   1.220  0.0000  0.0000  0.0000
15613SI     SI115613   2.675   5.107   0.025  0.0000  0.0000  0.0000
15614SI     SI115614   2.219   7.486   0.537  0.0000  0.0000  0.0000
15615SI     SI115615   0.889   8.424   9.160  0.0000  0.0000  0.0000
15616SI     SI115616   8.741   0.560   1.030  0.0000  0.0000  0.0000
15617SI     SI115617   5.872   1.204   8.695  0.0000  0.0000  0.0000
15618SI     SI115618   8.424   8.050   9.044  0.0000  0.0000  0.0000
15619SI     SI115619   5.572   7.485   9.486  0.0000  0.0000  0.0000
15620SI     SI115620   6.838   1.698   0.547  0.0000  0.0000  0.0000
15621SI     SI115621   8.509   7.471   8.476  0.0000  0.0000  0.0000
15622SI     SI115622   7.048   6.047   8.398  0.0000  0.0000  0.0000
15623SI     SI115623   7.772   3.885   0.122  0.0000  0.0000  0.0000
15624SI     SI115624   5.369   0.567   8.837  0.0000  0.0000  0.0000
15625SI     SI115625   7.295   2.536   9.370  0.0000  0.0000  0.0000
15626SI     SI115626   2.454   7.594   8.390  0.0000  0.0000  0.0000
15627SI     SI115627   2.379   2.851   0.101  0.0000  0.0000  0.0000
15628SI     SI115628   0.425   4.873   9.574  0.0000  0.0000  0.0000
15629SI     SI115629   2.682   8.641   0.678  0.0000  0.0000  0.0000
15630SI     SI115630   4.531   2.185   0.324  0.0000  0.0000  0.0000
15631SI     SI115631   3.784   7.435   8.610  0.0000  0.0000  0.0000
15632SI     SI115632   2.696   7.760   8.774  0.0000  0.0000  0.0000
15633SI     SI115633   0.239   1.910   0.847  0.0000  0.0000  0.0000
15634SI     SI115634   6.271   4.349   9.512  0.0000  0.0000  0.0000
15635SI     SI115635   9.021   0.992   9.023  0.0000  0.0000  0.0000
15636SI     SI115636   1.301   2.207   8.519  0.0000  0.0000  0.0000
15637SI     SI115637   3.183   4.002   0.466  0.0000  0.0000  0.0000
15638SI     SI115638   9.470   4.731   0.875  0.0000  0.0000  0.0000
15639SI     SI115639   6.589   3.545   0.878  0.0000  0.0000  0.0000
15640SI     SI115640   9.298   7.763   1.198  0.0000  0.0000  0.0000
15641SI     SI115641   5.784   5.972   1.085  0.0000  0.0000  0.0000
15642SI     SI115642   5.432   7.021   0.845  0.0000  0.0000  0.0000
15643SI     SI115643   8.831   8.120   0.886  0.0000  0.0000  0.0000
15644SI     SI115644   6.411   0.417   0.914  0.0000  0.0000  0.0000
15645SI     SI115645   0.786   3.439   0.489  0.0000  0.0000  0.0000
15646SI     SI115646   5.567   1.184   8.712  0.0000  0.0000  0.0000
15647SI     SI115647   1.631   3.098   8.225  0.0000  0.0000  0.0000
15648SI     SI115648   1.023   8.649   0.515  0.0000  0.0000  0.0000
15649SI     SI115649   2.134   4.731   0.147  0.0000  0.0000  0.0000
15650SI     SI115650   4.874   1.552   0.848  0.0000  0.0000  0.0000
15651SI     SI115651   3.775   5.882   0.422  0.0000  0.0000  0.0000
15652SI     SI115652   6.393   1.165   1.258  0.0000  0.0000  0.0000
15653SI     SI115653   4.590   0.716   8.438  0.0000  0.0000  0.0000
15654SI     SI115654   3.533   0.660   0.434  0.0000  0.0000  0.0000
15655SI     SI115655   1.834   6.647   0.138  0.0000  0.0000  0.0000
15656SI     SI115656   7.967   2.314   9.150  0.0000  0.0000  0.0000
15657SI     SI115657   8.193   6.967   0.861  0.0000  0.0000  0.0000
15658SI     SI115658   3.003   5.601   0.864  0.0000  0.0000  0.0000
15659SI     SI115659   5.254   5.920   8.420  0.0000  0.0000  0.0000
15660SI     SI115660   3.864   8.789   8.665  0.0000  0.0000  0.0000
15661SI     SI115661   3.830   2.127   0.265  0.0000  0.0000  0.0000
15662SI     SI115662   8.432   6.926   0.302  0.0000  0.0000  0.0000
15663SI     SI115663   7.347   8.437   0.177  0.0000  0.0000  0.0000
15664SI     SI115664   2.866   1.657   8.538  0.0000  0.0000  0.0000
15665SI     SI115665   6.890   3.652   9.442  0.0000  0.0000  0.0000
15666SI     SI115666   8.697   6.068   1.013  0.0000  0.0000  0.0000
15667SI     SI115667   6.477   5.955   9.231  0.0000  0.0000  0.0000
15668SI     SI115668   6.834   1.480   0.768  0.0000  0.0000  0.0000
15669SI     SI115669   9.379   3.771   9.575  0.0000  0.0000  0.0000
15670SI     SI115670   7.077   8.400   8.551  0.0000  0.0000  0.0000
15671SI     SI115671   8.612   5.119   0.785  0.0000  0.0000  0.0000
15672SI     SI115672   4.582   5.111   9.389  0.0000  0.0000  0.0000
15673SI     SI115673   6.300   7.187   8.999  0.0000  0.0000  0.0000
15674SI     SI115674   2.901   5.441   1.118  0.0000  0.0000  0.0000
15675SI     SI115675   3.059   1.480   0.325  0.0000  0.0000  0.0000
15676SI     SI115676   2.272   2.673   8.948  0.0000  0.0000  0.0000
15677SI     SI115677   5.069   8.767   0.567  0.0000  0.0000  0.0000
15678SI     SI115678   2.919   5.199   9.448  0.0000  0.0000  0.0000
15679SI     SI115679   2.460   3.023   0.783  0.0000  0.0000  0.0000
15680SI     SI115680   5.674   7.953   9.540  0.0000  0.0000  0.0000
15681SI     SI115681   0.165   0.304   0.315  0.0000  0.0000  0.0000
15682SI     SI115682   3.862   9.541   0.814  0.0000  0.0000  0.0000
15683SI     SI115683   4.178   0.366   0.742  0.0000  0.0000  0.0000
15684SI     SI115684   6.248   6.289   1.042  0.0000  0.0000  0.0000
15685SI     SI115685   4.285   1.895   0.603  0.0000  0.0000  0.0000
15686SI     SI115686   2.854   7.492   0.507  0.0000  0.0000  0.0000
15687SI     SI115687   4.825   9.486   8.484  0.0000  0.0000  0.0000
15688SI     SI115688   2.411   1.862   0.640  0.0000  0.0000  0.0000
15689SI     SI115689   8.605   1.306   0.565  0.0000  0.0000  0.0000
15690SI     SI115690   6.608   9.114   0.369  0.0000  0.0000  0.0000
15691SI     SI115691   1.450   3.224   8.657  0.0000  0.0000  0.0000
15692SI     SI115692   5.674   6.136   0.873  0.0000  0.0000  0.0000
15693SI     SI115693   0.358   9.191   8.754  0.0000  0.0000  0.0000
15694SI     SI115694   4.172   6.318   8.604  0.0000  0.0000  0.0000
15695SI     SI115695   5.465   3.958   0.286  0.0000  0.0000  0.0000
15696SI     SI115696   7.079   4.682   8.673  0.0000  0.0000  0.0000
15697SI     SI115697   4.728   5.109   8.448  0.0000  0.0000  0.0000
15698SI     SI115698   9.544   0.155   0.895  0.0000  0.0000  0.0000
15699SI     SI115699   1.881   4.768   0.604  0.0000  0.0000  0.0000
15700SI     SI115700   2.454   3.322   8.631  0.0000  0.0000  0.0000
15701SI     SI115701   2.811   3.735   0.256  0.0000  0.0000  0.0000
15702SI     SI115702   7.080   7.575   0.780  0.0000  0.0000  0.0000
15703SI     SI115703   1.075   8.597   8.567  0.0000  0.0000  0.0000
15704SI     SI115704   3.887   7.150   9.331  0.0000  0.0000  0.0000
15705SI     SI115705   1.840   6.801   0.408  0.0000  0.0000  0.0000
15706SI     SI115706   2.489   4.617   8.773  0.0000  0.0000  0.0000
15707SI     SI115707   0.633   7.258   9.431  0.0000  0.0000  0.0000
15708SI     SI115708   5.533   1.164   9.472  0.0000  0.0000  0.0000
15709SI     SI115709   6.933   6.968   0.157  0.0000  0.0000  0.0000
15710SI     SI115710   5.832   3.259   9.442  0.0000  0.0000  0.0000
15711SI     SI115711   7.317   1.144   8.511  0.0000  0.0000  0.0000
15712SI     SI115712   2.922   1.510   1.133  0.0000  0.0000  0.0000
15713SI     SI115713   7.485   2.027   0.237  0.0000  0.0000  0.0000
15714SI     SI115714   2.252   8.096   9.298  0.0000  0.0000  0.0000
15715SI     SI115715   3.510   8.955   0.303  0.0000  0.0000  0.0000
15716SI     SI115716   6.781   0.525   0.597  0.0000  0.0000  0.0000
15717SI     SI115717   6.979   6.083   8.845  0.0000  0.0000  0.0000
15718SI     SI115718   8.676   6.842   9.086  0.0000  0.0000  0.0000
15719SI     SI115719   8.223   5.448   8.751  0.0000  0.0000  0.0000
15720SI     SI115720   3.615   6.714   8.613  0.0000  0.0000  0.0000
15721SI     SI115721   2.852   8.007   8.676  0.0000  0.0000  0.0000
15722SI     SI115722   7.220   7.346   8.699  0.0000  0.0000  0.0000
15723SI     SI115723   8.416   5.361   0.802  0.0000  0.0000  0.0000
15724SI     SI115724   8.458   2.819   9.213  0.0000  0.0000  0.0000
15725SI     SI115725   4.769   4.444   8.842  0.0000  0.0000  0.0000
15726SI     SI115726   8.381   8.041   9.343  0.0000  0.0000  0.0000
15727SI     SI115727   5.136   4.405   1.148  0.0000  0.0000  0.0000
15728SI     SI115728   0.116   3.115   8.901  0.0000  0.0000  0.0000
15729SI     SI115729   6.905   3.567   0.876  0.0000  0.0000  0.0000
15730SI     SI115730   1.526   1.837   8.256  0.0000  0.0000  0.0000
15731SI     SI115731   6.413   3.360   8.672  0.0000  0.0000  0.0000
15732SI     SI115732   3.354   8.802   0.688  0.0000  0.0000  0.0000
15733SI     SI115733   2.823   6.197   8.759  0.0000  0.0000  0.0000
15734SI     SI115734   4.057   7.659   9.200  0.0000  0.0000  0.0000
15735SI     SI115735   6.606   9.088   0.924  0.0000  0.0000  0.0000
15736SI     SI115736   5.031   5.087   0.116  0.0000  0.0000  0.0000
15737SI     SI115737   2.444   0.920   9.599  0.0000  0.0000  0.0000
15738SI     SI115738   1.727   1.469   9.066  0.0000  0.0000  0.0000
15739SI     SI115739   8.096   3.884   0.539  0.0000  0.0000  0.0000
15740SI     SI115740   7.138   4.271   0.729  0.0000  0.0000  0.0000
15741SI     SI115741   7.758   6.777   1.041  0.0000  0.0000  0.0000
15742SI     SI115742   0.176   2.235   8.997  0.0000  0.0000  0.0000
15743SI     SI115743   4.236   7.829   0.583  0.0000  0.0000  0.0000
15744SI     SI115744   2.359   8.507   9.386  0.0000  0.0000  0.0000
15745SI     SI115745   6.307   0.181   9.156  0.0000  0.0000  0.0000
15746SI     SI115746   2.566   5.318   0.187  0.0000  0.0000  0.0000
15747SI     SI115747   0.404   8.913   0.853  0.0000  0.0000  0.0000
15748SI     SI115748   2.474   0.725   8.451  0.0000  0.0000  0.0000
15749SI     SI115749   2.748   4.925   9.135  0.0000  0.0000  0.0000
15750SI     SI115750   1.056   2.243   0.318  0.0000  0.0000  0.0000
15751SI     SI115751   4.930   8.125   9.213  0.0000  0.0000  0.0000
15752SI     SI115752   2.933   2.997   9.267  0.0000  0.0000  0.0000
15753SI     SI115753   4.224   8.639   0.908  0.0000  0.0000  0.0000
15754SI     SI115754   5.265   6.510   0.852  0.0000  0.0000  0.0000
15755SI     SI115755   8.958   1.123   8.750  0.0000  0.0000  0.0000
15756SI     SI115756   8.020   5.826   9.378  0.0000  0.0000  0.0000
15757SI     SI115757   8.094   0.735   0.808  0.0000  0.0000  0.0000
15758SI     SI115758   8.534   3.577   8.399  0.0000  0.0000  0.0000
15759SI     SI115759   9.464   0.083   9.588  0.0000  0.0000  0.0000
15760SI     SI115760   0.844   1.672   8.844  0.0000  0.0000  0.0000
15761SI     SI115761   7.764   8.150   0.111  0.0000  0.0000  0.0000
15762SI     SI115762   7.736   5.162   9.074  0.0000  0.0000  0.0000
15763SI     SI115763   5.608   2.720   0.225  0.0000  0.0000  0.0000
15764SI     SI115764   5.575   8.236   8.448  0.0000  0.0000  0.0000
15765SI     SI115765   6.132   1.870   9.248  0.0000  0.0000  0.0000
15766SI     SI115766   0.856   0.389   9.550  0.0000  0.0000  0.0000
15767SI     SI115767   4.390   8.829   0.562  0.0000  0.0000  0.0000
15768SI     SI115768   2.138   6.734   1.143  0.0000  0.0000  0.0000
15769SI     SI115769   2.793   9.605   0.085  0.0000  0.0000  0.0000
15770SI     SI115770   4.904   5.360   8.789  0.0000  0.0000  0.0000
15771SI     SI115771   6.839   2.211   0.031  0.0000  0.0000  0.0000
15772SI     SI115772   7.782   5.212   0.167  0.0000  0.0000  0.0000
15773SI     SI115773   1.385   4.950   8.926  0.0000  0.0000  0.0000
15774SI     SI115774   8.324   4.095   0.541  0.0000  0.0000  0.0000
15775SI     SI115775   8.963   8.283   0.202  0.0000  0.0000  0.0000
15776SI     SI115776   8.582   6.429   8.516  0.0000  0.0000  0.0000
15777SI     SI115777   0.716   4.476   0.785  0.0000  0.0000  0.0000
15778SI     SI115778   6.612   7.498   8.932  0.0000  0.0000  0.0000
15779SI     SI115779   7.118   7.060   9.527  0.0000  0.0000  0.0000
15780SI     SI115780   8.921   3.904   0.112  0.0000  0.0000  0.0000
15781SI     SI115781   8.367   7.669   0.857  0.0000  0.0000  0.0000
15782SI     SI115782   3.739   4.724   9.389  0.0000  0.0000  0.0000
15783SI     SI115783   5.363   6.873   0.180  0.0000  0.0000  0.0000
15784SI     SI115784   5.902   0.002   0.114  0.0000  0.0000  0.0000
15785SI     SI115785   3.272   4.886   0.450  0.0000  0.0000  0.0000
15786SI     SI115786   5.871   6.580   8.532  0.0000  0.0000  0.0000
15787SI     SI115787   2.789   1.755   1.022  0.0000  0.0000  0.0000
15788SI     SI115788   7.190   4.922   0.629  0.0000  0.0000  0.0000
15789SI     SI115789   9.023   1.329   1.075  0.0000  0.0000  0.0000
15790SI     SI115790   4.471   6.052   0.594  0.0000  0.0000  0.0000
15791SI     SI115791   7.833   7.516   1.065  0.0000  0.0000  0.0000
15792SI     SI115792   6.348   6.855   0.655  0.0000  0.0000  0.0000
15793SI     SI115793   8.665   2.146   8.623  0.0000  0.0000  0.0000
15794SI     SI115794   7.591   9.576   9.413  0.0000  0.0000  0.0000
15795SI     SI115795   5.514   6.995   1.140  0.0000  0.0000  0.0000
15796SI     SI115796   0.332   8.318   8.592  0.0000  0.0000  0.0000
15797SI     SI115797   7.456   3.765   1.188  0.0000  0.0000  0.0000
15798SI     SI115798   2.047   5.427   0.685  0.0000  0.0000  0.0000
15799SI     SI115799   6.280   8.777   0.341  0.0000  0.0000  0.0000
15800SI     SI115800   7.421   5.340   1.236  0.0000  0.0000  0.0000
15801SI     SI115801   2.792   8.488   0.930  0.0000  0.0000  0.0000
15802SI     SI115802   1.659   7.867   0.968  0.0000  0.0000  0.0000
15803SI     SI115803   7.543   0.863   8.871  0.0000  0.0000  0.0000
15804SI     SI115804   0.728   1.781   9.339  0.0000  0.0000  0.0000
15805SI     SI115805   6.644   7.835   0.389  0.0000  0.0000  0.0000
15806SI     SI115806   5.359   7.229   0.487  0.0000  0.0000  0.0000
15807SI     SI115807   3.956   3.754   0.455  0.0000  0.0000  0.0000
15808SI     SI115808   7.643   6.014   1.012  0.0000  0.0000  0.0000
15809SI     SI115809   0.281   3.602   0.118  0.0000  0.0000  0.0000
15810SI     SI115810   4.736   7.344   1.053  0.0000  0.0000  0.0000
15811SI     SI115811   6.103   4.565   9.386  0.0000  0.0000  0.0000
15812SI     SI115812   4.197   4.812   1.096  0.0000  0.0000  0.0000
15813SI     SI115813   5.104   2.545   0.575  0.0000  0.0000  0.0000
15814SI     SI115814   1.050   4.847   9.422  0.0000  0.0000  0.0000
15815SI     SI115815   7.611   7.175   0.154  0.0000  0.0000  0.0000
15816SI     SI115816   3.180   1.520   1.291  0.0000  0.0000  0.0000
15817SI     SI115817   6.640   5.425   1.141  0.0000  0.0000  0.0000
15818SI     SI115818   4.580   0.813   0.770  0.0000  0.0000  0.0000
15819SI     SI115819   0.370   0.292   0.718  0.0000  0.0000  0.0000
15820SI     SI115820   0.853   1.394   8.438  0.0000  0.0000  0.0000
15821SI     SI115821   1.352   8.560   9.430  0.0000  0.0000  0.0000
15822SI     SI115822   1.738   6.403   0.979  0.0000  0.0000  0.0000
15823SI     SI115823   9.259   8.492   9.454  0.0000  0.0000  0.0000
15824SI     SI115824   6.001   7.353   0.260  0.0000  0.0000  0.0000
15825SI     SI115825   7.660   7.515   9.468  0.0000  0.0000  0.0000
15826SI     SI115826   2.841   4.381   1.125  0.0000  0.0000  0.0000
15827SI     SI115827   5.729   2.243   8.862  0.0000  0.0000  0.0000
15828SI     SI115828   7.350   6.134   0.084  0.0000  0.0000  0.0000
15829SI     SI115829   6.545   8.497   9.437  0.0000  0.0000  0.0000
15830SI     SI115830   9.257   3.123   8.963  0.0000  0.0000  0.0000
15831SI     SI115831   7.621   9.203   9.079  0.0000  0.0000  0.0000
15832SI     SI115832   9.385   4.447   8.481  0.0000  0.0000  0.0000
15833SI     SI115833   1.013   8.008   8.894  0.0000  0.0000  0.0000
15834SI     SI115834   6.346   4.021   0.392  0.0000  0.0000  0.0000
15835SI     SI115835   4.471   3.578   0.914  0.0000  0.0000  0.0000
15836SI     SI115836   0.537   1.288   9.103  0.0000  0.0000  0.0000
15837SI     SI115837   0.666   7.505   8.926  0.0000  0.0000  0.0000
15838SI     SI115838   4.991   6.391   0.739  0.0000  0.0000  0.0000
15839SI     SI115839   3.069   2.886   9.518  0.0000  0.0000  0.0000
15840SI     SI115840   5.422   2.276   1.221  0.0000  0.0000  0.0000
15841SI     SI115841   5.269   5.553   0.860  0.0000  0.0000  0.0000
15842SI     SI115842   5.389   8.719   8.382  0.0000  0.0000  0.0000
15843SI     SI115843   8.476   4.453   0.767  0.0000  0.0000  0.0000
15844SI     SI115844   5.177   8.068   9.354  0.0000  0.0000  0.0000
15845SI     SI115845   0.370   2.866   0.455  0.0000  0.0000  0.0000
15846SI     SI115846   4.474   0.100   0.332  0.0000  0.0000  0.0000
15847SI     SI115847   0.738   0.969   8.377  0.0000  0.0000  0.0000
15848SI     SI115848   0.730   1.894   0.413  0.0000  0.0000  0.0000
15849SI     SI115849   7.792   9.577   0.052  0.0000  0.0000  0.0000
15850SI     SI115850   6.533   7.007   0.849  0.0000  0.0000  0.0000
15851SI     SI115851   3.199   7.807   8.779  0.0000  0.0000  0.0000
15852SI     SI115852   1.717   5.779   8.562  0.0000  0.0000  0.0000
15853SI     SI115853   1.662   1.852   0.688  0.0000  0.0000  0.0000
15854SI     SI115854   3.878   5.358   0.656  0.0000  0.0000  0.0000
15855SI     SI115855   6.361   2.657   0.081  0.0000  0.0000  0.0000
15856SI     SI115856   8.736   0.261   0.220  0.0000  0.0000  0.0000
15857SI     SI115857   7.821   5.450   0.884  0.0000  0.0000  0.0000
15858SI     SI115858   5.911   6.224   9.458  0.0000  0.0000  0.0000
15859SI     SI115859   9.017   8.804   0.312  0.0000  0.0000  0.0000
15860SI     SI115860   4.101   7.113   0.215  0.0000  0.0000  0.0000
15861SI     SI115861   4.226   9.327   0.098  0.0000  0.0000  0.0000
15862SI     SI115862   1.633   7.356   9.593  0.0000  0.0000  0.0000
15863SI     SI115863   9.071   2.595   0.618  0.0000  0.0000  0.0000
15864SI     SI115864   8.541   0.767   9.200  0.0000  0.0000  0.0000
15865SI     SI115865   8.484   1.768   0.791  0.0000  0.0000  0.0000
15866SI     SI115866   5.332   7.832   9.293  0.0000  0.0000  0.0000
15867SI     SI115867   9.216   0.606   9.228  0.0000  0.0000  0.0000
15868SI     SI115868   1.782   0.496   8.395  0.0000  0.0000  0.0000
15869SI     SI115869   6.457   1.116   0.950  0.0000  0.0000  0.0000
15870SI     SI115870   2.127   1.356   0.069  0.0000  0.0000  0.0000
15871SI     SI115871   1.436   3.346   0.069  0.0000  0.0000  0.0000
15872SI     SI115872   0.931   7.660   9.355  0.0000  0.0000  0.0000
15873SI     SI115873   8.495   1.304   8.928  0.0000  0.0000  0.0000
15874SI     SI115874   1.921   0.638   1.081  0.0000  0.0000  0.0000
15875SI     SI115875   0.979   5.423   0.081  0.0000  0.0000  0.0000
15876SI     SI115876   4.804   5.043   0.312  0.0000  0.0000  0.0000
15877SI     SI115877   7.089   5.993   0.168  0.0000  0.0000  0.0000
15878SI     SI115878   5.767   2.502   8.715  0.0000  0.0000  0.0000
15879SI     SI115879   2.027   0.676   9.350  0.0000  0.0000  0.0000
15880SI     SI115880   0.837   8.342   8.662  0.0000  0.0000  0.0000
15881SI     SI115881   8.604   8.554   8.951  0.0000  0.0000  0.0000
15882SI     SI115882   3.341   0.973   9.422  0.0000  0.0000  0.0000
15883SI     SI115883   8.545   3.546   9.091  0.0000  0.0000  0.0000
15884SI     SI115884   7.009   0.040   8.888  0.0000  0.0000  0.0000
15885SI     SI115885   9.597   4.820   0.596  0.0000  0.0000  0.0000
15886SI     SI115886   2.934   0.948   9.189  0.0000  0.0000  0.0000
15887SI     SI115887   2.433   4.708   0.230  0.0000  0.0000  0.0000
15888SI     SI115888   8.286   9.549   0.456  0.0000  0.0000  0.0000
15889SI     SI115889   4.084   0.581   8.385  0.0000  0.0000  0.0000
15890SI     SI115890   8.869   3.921   8.856  0.0000  0.0000  0.0000
15891SI     SI115891   4.529   9.037   0.389  0.0000  0.0000  0.0000
15892SI     SI115892   7.236   3.779   0.729  0.0000  0.0000  0.0000
15893SI     SI115893   3.119   8.268   9.418  0.0000  0.0000  0.0000
15894SI     SI115894   6.752   6.725   0.239  0.0000  0.0000  0.0000
15895SI     SI115895   5.638   4.087   0.649  0.0000  0.0000  0.0000
15896SI     SI115896   0.588   8.743   8.427  0.0000  0.0000  0.0000
15897SI     SI115897   6.838   9.235   0.507  0.0000  0.0000  0.0000
15898SI     SI115898   8.466   8.575   1.086  0.0000  0.0000  0.0000
15899SI     SI115899   7.098   5.342   8.862  0.0000  0.0000  0.0000
15900SI     SI115900   4.688   8.548   1.162  0.0000  0.0000  0.0000
15901SI     SI115901   6.687   6.071   9.418  0.0000  0.0000  0.0000
15902SI     SI115902   7.427   4.838   0.823  0.0000  0.0000  0.0000
15903SI     SI115903   5.481   6.331   9.253  0.0000  0.0000  0.0000
15904SI     SI115904   1.689   1.026   9.210  0.0000  0.0000  0.0000
15905SI     SI115905   1.153   5.436   0.327  0.0000  0.0000  0.0000
15906SI     SI115906   2.804   4.915   0.766  0.0000  0.0000  0.0000
15907SI     SI115907   0.658   0.489   8.336  0.0000  0.0000  0.0000
15908SI     SI115908   2.263   6.128   9.499  0.0000  0.0000  0.0000
15909SI     SI115909   5.543   4.146   0.943  0.0000  0.0000  0.0000
15910SI     SI115910   5.230   0.420   9.080  0.0000  0.0000  0.0000
15911SI     SI115911   7.173   0.480   9.167  0.0000  0.0000  0.0000
15912SI     SI115912   1.467   5.434   0.361  0.0000  0.0000  0.0000
15913SI     SI115913   0.897   6.634   0.647  0.0000  0.0000  0.0000
15914SI     SI115914   6.956   0.504   0.112  0.0000  0.0000  0.0000
15915SI     SI115915   9.385   4.114   0.978  0.0000  0.0000  0.0000
15916SI     SI115916   5.491   1.476   0.390  0.0000  0.0000  0.0000
15917SI     SI115917   3.804   1.821   0.643  0.0000  0.0000  0.0000
15918SI     SI115918   2.421   3.672   8.942  0.0000  0.0000  0.0000
15919SI     SI115919   6.338   0.958   0.278  0.0000  0.0000  0.0000
15920SI     SI115920   1.728   1.977   9.104  0.0000  0.0000  0.0000
15921SI     SI115921   8.494   1.625   8.562  0.0000  0.0000  0.0000
15922SI     SI115922   4.588   1.259   0.184  0.0000  0.0000  0.0000
15923SI     SI115923   0.771   1.663   8.548  0.0000  0.0000  0.0000
15924SI     SI115924   7.240   1.472   9.237  0.0000  0.0000  0.0000
15925SI     SI115925   0.906   7.176   8.620  0.0000  0.0000  0.0000
15926SI     SI115926   5.752   5.342   0.387  0.0000  0.0000  0.0000
15927SI     SI115927   6.695   2.037   8.806  0.0000  0.0000  0.0000
15928SI     SI115928   2.928   3.259   0.456  0.0000  0.0000  0.0000
15929SI     SI115929   5.459   4.480   8.576  0.0000  0.0000  0.0000
15930SI     SI115930   8.637   4.948   9.246  0.0000  0.0000  0.0000
15931SI     SI115931   0.259   7.873   0.701  0.0000  0.0000  0.0000
15932SI     SI115932   8.408   9.554   9.354  0.0000  0.0000  0.0000
15933SI     SI115933   1.494   0.259   0.029  0.0000  0.0000  0.0000
15934SI     SI115934   5.147   2.009   0.505  0.0000  0.0000  0.0000
15935SI     SI115935   7.356   5.861   0.608  0.0000  0.0000  0.0000
15936SI     SI115936   1.352   3.535   0.913  0.0000  0.0000  0.0000
15937SI     SI115937   2.354   9.178   8.486  0.0000  0.0000  0.0000
15938SI     SI115938   3.782   5.557   9.599  0.0000  0.0000  0.0000
15939SI     SI115939   9.033   8.836   9.009  0.0000  0.0000  0.0000
15940SI     SI115940   1.092   7.012   0.226  0.0000  0.0000  0.0000
15941SI     SI115941   7.598   2.017   1.010  0.0000  0.0000  0.0000
15942SI     SI115942   6.593   4.027   0.592  0.0000  0.0000  0.0000
15943SI     SI115943   1.003   3.668   8.955  0.0000  0.0000  0.0000
15944SI     SI115944   3.814   1.001   1.183  0.0000  0.0000  0.0000
15945SI     SI115945   1.990   5.594   8.962  0.0000  0.0000  0.0000
15946SI     SI115946   7.610   8.067   8.478  0.0000  0.0000  0.0000
15947SI     SI115947   5.672   6.151   0.051  0.0000  0.0000  0.0000
15948SI     SI115948   9.163   2.277   1.078  0.0000  0.0000  0.0000
15949SI     SI115949   3.840   6.519   9.537  0.0000  0.0000  0.0000
15950SI     SI115950   6.063   9.156   0.293  0.0000  0.0000  0.0000
15951SI     SI115951   3.347   5.397   0.664  0.0000  0.0000  0.0000
15952SI     SI115952   2.564   2.972   9.081  0.0000  0.0000  0.0000
15953SI     SI115953   4.345   6.802   0.386  0.0000  0.0000  0.0000
15954SI     SI115954   2.161   6.106   0.569  0.0000  0.0000  0.0000
15955SI     SI115955   3.519   8.766   9.039  0.0000  0.0000  0.0000
15956SI     SI115956   0.823   4.623   8.459  0.0000  0.0000  0.0000
15957SI     SI115957   4.992   6.043   9.054  0.0000  0.0000  0.0000
15958SI     SI115958   1.387   7.233   1.206  0.0000  0.0000  0.0000
15959SI     SI115959   8.191   2.322   8.940  0.0000  0.0000  0.0000
15960SI     SI115960   7.176   4.583   9.498  0.0000  0.0000  0.0000
15961SI     SI115961   1.605   1.753   0.432  0.0000  0.0000  0.0000
15962SI     SI115962   3.970   3.664   1.195  0.0000  0.0000  0.0000
15963SI     SI115963   4.328   4.364   9.103  0.0000  0.0000  0.0000
15964SI     SI115964   1.127   9.399   8.617  0.0000  0.0000  0.0000
15965SI     SI115965   5.065   8.690   1.084  0.0000  0.0000  0.0000
15966SI     SI115966   7.286   8.806   9.194  0.0000  0.0000  0.0000
15967SI     SI115967   4.096   6.473   9.127  0.0000  0.0000  0.0000
15968SI     SI115968   5.751   3.129   0.095  0.0000  0.0000  0.0000
15969SI     SI115969   8.336   6.702   0.107  0.0000  0.0000  0.0000
15970SI     SI115970   4.330   3.592   9.149  0.0000  0.0000  0.0000
15971SI     SI115971   0.968   8.003   0.940  0.0000  0.0000  0.0000
15972SI     SI115972   0.518   7.948   0.833  0.0000  0.0000  0.0000
15973SI     SI115973   1.159   4.285   0.510  0.0000  0.0000  0.0000
15974SI     SI115974   2.535   6.215   0.325  0.0000  0.0000  0.0000
15975SI     SI115975   2.797   2.960   8.441  0.0000  0.0000  0.0000
15976SI     SI115976   4.831   2.378   8.740  0.0000  0.0000  0.0000
15977SI     SI115977   6.805   2.939   0.464  0.0000  0.0000  0.0000
15978SI     SI115978   6.084   4.695   0.180  0.0000  0.0000  0.0000
15979SI     SI115979   4.876   5.202   9.471  0.0000  0.0000  0.0000
15980SI     SI115980   1.901   7.060   0.850  0.0000  0.0000  0.0000
15981SI     SI115981   1.530   9.091   9.585  0.0000  0.0000  0.0000
15982SI     SI115982   3.843   4.601   0.055  0.0000  0.0000  0.0000
15983SI     SI115983   5.425   9.134   8.509  0.0000  0.0000  0.0000
15984SI     SI115984   5.130   1.276   0.137  0.0000  0.0000  0.0000
15985SI     SI115985   8.326   5.484   9.483  0.0000  0.0000  0.0000
15986SI     SI115986   9.497   1.146   9.257  0.0000  0.0000  0.0000
15987SI     SI115987   5.418   8.743   9.270  0.0000  0.0000  0.0000
15988SI     SI115988   3.081   3.706   0.420  0.0000  0.0000  0.0000
15989SI     SI115989   9.091   9.489   8.415  0.0000  0.0000  0.0000
15990SI     SI115990   3.032   2.396   9.297  0.0000  0.0000  0.0000
15991SI     SI115991   7.357   8.584   0.661  0.0000  0.0000  0.0000
15992SI     SI115992   7.833   0.143   0.455  0.0000  0.0000  0.0000
15993SI     SI115993   8.031   3.571   9.200  0.0000  0.0000  0.0000
15994SI     SI115994   7.887   6.944   0.806  0.0000  0.0000  0.0000
15995SI     SI115995   4.201   5.081   0.967  0.0000  0.0000  0.0000
15996SI     SI115996   5.937   7.012   9.555  0.0000  0.0000  0.0000
15997SI     SI115997   0.670   6.087   0.369  0.0000  0.0000  0.0000
15998SI     SI115998   7.955   8.947   0.620  0.0000  0.0000  0.0000
15999SI     SI115999   6.152   3.867   9.293  0.0000  0.0000  0.0000
16000SI     SI116000   5.205   0.948   8.399  0.0000  0.0000  0.0000
16001SI     SI116001   8.406   4.050   0.034  0.0000  0.0000  0.0000
16002SI     SI116002   3.562   7.740   0.533  0.0000  0.0000  0.0000
16003SI     SI116003   7.657   0.884   0.927  0.0000  0.0000  0.0000
16004SI     SI116004   5.521   4.953   0.642  0.0000  0.0000  0.0000
16005SI     SI116005   7.513   3.144   0.408  0.0000  0.0000  0.0000
16006SI     SI116006   8.389   8.581   9.178  0.0000  0.0000  0.0000
16007SI     SI116007   1.504   4.315   8.461  0.0000  0.0000  0.0000
16008SI     SI116008   5.659   3.293   8.914  0.0000  0.0000  0.0000
16009SI     SI116009   4.583   9.218   0.965  0.0000  0.0000  0.0000
16010SI     SI116010   9.540   4.828   8.652  0.0000  0.0000  0.0000
16011SI     SI116011   5.552   1.029   0.944  0.0000  0.0000  0.0000
16012SI     SI116012   7.098   3.295   8.888  0.0000  0.0000  0.0000
16013SI     SI116013   1.548   1.269   0.584  0.0000  0.0000  0.0000
16014SI     SI116014   4.956   4.512   0.694  0.0000  0.0000  0.0000
16015SI     SI116015   4.818   5.089   0.626  0.0000  0.0000  0.0000
16016SI     SI116016   8.383   8.871   8.528  0.0000  0.0000  0.0000
16017SI     SI116017   6.010   1.210   8.417  0.0000  0.0000  0.0000
16018SI     SI116018   4.024   2.052   0.633  0.0000  0.0000  0.0000
16019SI     SI116019   9.510   8.201   0.128  0.0000  0.0000  0.0000
16020SI     SI116020   7.225   3.031   8.803  0.0000  0.0000  0.0000
16021SI     SI116021   1.861   7.897   9.051  0.0000  0.0000  0.0000
16022SI     SI116022   3.218   2.615   9.440  0.0000  0.0000  0.0000
16023SI     SI116023   1.306   4.014   1.135  0.0000  0.0000  0.0000
16024SI     SI116024   8.119   8.668   9.268  0.0000  0.0000  0.0000
16025SI     SI116025   8.110   4.267   1.153  0.0000  0.0000  0.0000
16026SI     SI116026   7.913   2.543   0.580  0.0000  0.0000  0.0000
16027SI     SI116027   9.104   8.753   9.453  0.0000  0.0000  0.0000
16028SI     SI116028   3.975   4.848   1.288  0.0000  0.0000  0.0000
16029SI     SI116029   5.372   2.855   8.715  0.0000  0.0000  0.0000
16030SI     SI116030   1.505   5.405   8.936  0.0000  0.0000  0.0000
16031SI     SI116031   2.613   9.423   0.673  0.0000  0.0000  0.0000
16032SI     SI116032   7.631   6.276   8.760  0.0000  0.0000  0.0000
16033SI     SI116033   9.009   0.069   0.763  0.0000  0.0000  0.0000
16034SI     SI116034   1.997   6.156   8.374  0.0000  0.0000  0.0000
16035SI     SI116035   6.260   2.105   9.410  0.0000  0.0000  0.0000
16036SI     SI116036   7.776   3.269   0.278  0.0000  0.0000  0.0000
16037SI     SI116037   5.734   2.774   0.887  0.0000  0.0000  0.0000
16038SI     SI116038   4.098   8.129   0.200  0.0000  0.0000  0.0000
16039SI     SI116039   6.034   3.493   9.523  0.0000  0.0000  0.0000
16040SI     SI116040   1.781   3.191   9.523  0.0000  0.0000  0.0000
16041SI     SI116041   7.559   9.367   1.215  0.0000  0.0000  0.0000
16042SI     SI116042   2.520   1.472   9.391  0.0000  0.0000  0.0000
16043SI     SI116043   2.287   6.762   0.879  0.0000  0.0000  0.0000
16044SI     SI116044   0.991   6.118   0.027  0.0000  0.0000  0.0000
16045SI     SI116045   9.490   5.088   8.776  0.0000  0.0000  0.0000
16046SI     SI116046   5.965   6.497   9.352  0.0000  0.0000  0.0000
16047SI     SI116047   7.626   8.385   0.243  0.0000  0.0000  0.0000
16048SI     SI116048   8.588   3.076   8.831  0.0000  0.0000  0.0000
16049SI     SI116049   7.259   0.935   1.225  0.0000  0.0000  0.0000
16050SI     SI116050   5.081   7.532   0.239  0.0000  0.0000  0.0000
16051SI     SI116051   9.288   6.490   8.612  0.0000  0.0000  0.0000
16052SI     SI116052   4.040   7.131   0.534  0.0000  0.0000  0.0000
16053SI     SI116053   3.628   7.837   9.071  0.0000  0.0000  0.0000
16054SI     SI116054   7.736   8.683   9.354  0.0000  0.0000  0.0000
16055SI     SI116055   9.109   8.210   0.781  0.0000  0.0000  0.0000
16056SI     SI116056   3.301   3.550   9.292  0.0000  0.0000  0.0000
16057SI     SI116057   6.695   2.395   1.211  0.0000  0.0000  0.0000
16058SI     SI116058   3.866   6.238   0.056  0.0000  0.0000  0.0000
16059SI     SI116059   9.598   1.604   9.461  0.0000  0.0000  0.0000
16060SI     SI116060   2.149   0.668   8.858  0.0000  0.0000  0.0000
16061SI     SI116061   4.617   8.079   8.863  0.0000  0.0000  0.0000
16062SI     SI116062   3.484   5.065   8.616  0.0000  0.0000  0.0000
16063SI     SI116063   8.780   2.653   0.307  0.0000  0.0000  0.0000
16064SI     SI116064   5.303   5.029   0.423  0.0000  0.0000  0.0000
16065SI     SI116065   2.383   8.775   0.358  0.0000  0.0000  0.0000
16066SI     SI116066   0.082   6.844   9.382  0.0000  0.0000  0.0000
16067SI     SI116067   1.870   0.928   0.969  0.0000  0.0000  0.0000
16068SI     SI116068   5.636   6.718   0.546  0.0000  0.0000  0.0000
16069SI     SI116069   1.356   3.603   1.208  0.0000  0.0000  0.0000
16070SI     SI116070   7.887   4.569   8.939  0.0000  0.0000  0.0000
16071SI     SI116071   8.536   5.480   8.787  0.0000  0.0000  0.0000
16072SI     SI116072   4.367   7.563   1.242  0.0000  0.0000  0.0000
16073SI     SI116073   1.925   4.389   8.690  0.0000  0.0000  0.0000
16074SI     SI116074   3.108   1.957   9.516  0.0000  0.0000  0.0000
16075SI     SI116075   3.826   5.445   8.671  0.0000  0.0000  0.0000
16076SI     SI116076   9.555   1.860   0.739  0.0000  0.0000  0.0000
16077SI     SI116077   9.350   1.813   0.284  0.0000  0.0000  0.0000
16078SI     SI116078   6.400   7.636   0.038  0.0000  0.0000  0.0000
16079SI     SI116079   7.750   2.496   0.312  0.0000  0.0000  0.0000
16080SI     SI116080   6.387   3.538   0.452  0.0000  0.0000  0.0000
16081SI     SI116081   0.579   0.186   1.121  0.0000  0.0000  0.0000
16082SI     SI116082   7.071   4.498   0.930  0.0000  0.0000  0.0000
16083SI     SI116083   4.834   7.753   9.526  0.0000  0.0000  0.0000
16084SI     SI116084   8.010   9.522   0.596  0.0000  0.0000  0.0000
16085SI     SI116085   6.801   5.693   9.067  0.0000  0.0000  0.0000
16086SI     SI116086   1.446   1.575   9.457  0.0000  0.0000  0.0000
16087SI     SI116087   7.835   4.680   8.428  0.0000  0.0000  0.0000
16088SI     SI116088   8.615   7.028   0.068  0.0000  0.0000  0.0000
16089SI     SI116089   3.017   5.965   8.661  0.0000  0.0000  0.0000
16090SI     SI116090   3.875   7.159   8.546  0.0000  0.0000  0.0000
16091SI     SI116091   4.526   8.438   9.460  0.0000  0.0000  0.0000
16092SI     SI116092   0.908   3.934   0.473  0.0000  0.0000  0.0000
16093SI     SI116093   8.461   7.264   0.861  0.0000  0.0000  0.0000
16094SI     SI116094   1.805   0.310   0.009  0.0000  0.0000  0.0000
16095SI     SI116095   4.867   6.476   8.338  0.0000  0.0000  0.0000
16096SI     SI116096   6.672   3.528   8.918  0.0000  0.0000  0.0000
16097SI     SI116097   5.514   1.290   9.009  0.0000  0.0000  0.0000
16098SI     SI116098   5.311   5.398   0.597  0.0000  0.0000  0.0000
16099SI     SI116099   5.017   6.822   0.791  0.0000  0.0000  0.0000
16100SI     SI116100   5.480   4.747   1.150  0.0000  0.0000  0.0000
16101SI     SI116101   5.232   7.792   0.180  0.0000  0.0000  0.0000
16102SI     SI116102   8.239   1.685   9.146  0.0000  0.0000  0.0000
16103SI     SI116103   2.955   1.234   0.660  0.0000  0.0000  0.0000
16104SI     SI116104   2.879   3.959   8.581  0.0000  0.0000  0.0000
16105SI     SI116105   5.957   0.663   0.991  0.0000  0.0000  0.0000
16106SI     SI116106   4.700   1.451   8.552  0.0000  0.0000  0.0000
16107SI     SI116107   1.851   5.878   0.095  0.0000  0.0000  0.0000
16108SI     SI116108   3.900   5.149   9.322  0.0000  0.0000  0.0000
16109SI     SI116109   9.169   0.808   9.449  0.0000  0.0000  0.0000
16110SI     SI116110   1.300   7.534   0.331  0.0000  0.0000  0.0000
16111SI     SI116111   6.475   0.159   8.897  0.0000  0.0000  0.0000
16112SI     SI116112   7.243   0.511   8.863  0.0000  0.0000  0.0000
16113SI     SI116113   9.473   4.776   9.080  0.0000  0.0000  0.0000
16114SI     SI116114   1.685   6.373   0.194  0.0000  0.0000  0.0000
16115SI     SI116115   4.767   4.149   8.415  0.0000  0.0000  0.0000
16116SI     SI116116   7.029   7.862   8.506  0.0000  0.0000  0.0000
16117SI     SI116117   6.627   5.243   0.194  0.0000  0.0000  0.0000
16118SI     SI116118   8.369   6.006   9.073  0.0000  0.0000  0.0000
16119SI     SI116119   9.576   6.544   0.607  0.0000  0.0000  0.0000
16120SI     SI116120   6.161   3.636   8.560  0.0000  0.0000  0.0000
16121SI     SI116121   4.548   5.464   0.098  0.0000  0.0000  0.0000
16122SI     SI116122   8.166   8.335   0.878  0.0000  0.0000  0.0000
16123SI     SI116123   5.350   8.442   8.929  0.0000  0.0000  0.0000
16124SI     SI116124   3.591   8.258   9.354  0.0000  0.0000  0.0000
16125SI     SI116125   5.247   7.525   0.964  0.0000  0.0000  0.0000
16126SI     SI116126   2.699   7.858   0.976  0.0000  0.0000  0.0000
16127SI     SI116127   1.498   1.986   9.429  0.0000  0.0000  0.0000
16128SI     SI116128   2.197   8.960   9.461  0.0000  0.0000  0.0000
16129SI     SI116129   9.281   0.440   0.588  0.0000  0.0000  0.0000
16130SI     SI116130   2.526   9.463   9.596  0.0000  0.0000  0.0000
16131SI     SI116131   4.470   1.353   1.069  0.0000  0.0000  0.0000
16132SI     SI116132   2.643   1.713   9.535  0.0000  0.0000  0.0000
16133SI     SI116133   0.881   7.812   1.182  0.0000  0.0000  0.0000
16134SI     SI116134   7.500   8.696   8.458  0.0000  0.0000  0.0000
16135SI     SI116135   0.454   7.069   8.564  0.0000  0.0000  0.0000
16136SI     SI116136   7.760   9.342   0.977  0.0000  0.0000  0.0000
16137SI     SI116137   3.421   7.725   0.788  0.0000  0.0000  0.0000
16138SI     SI116138   6.542   1.380   0.837  0.0000  0.0000  0.0000
16139SI     SI116139   8.162   1.397   9.094  0.0000  0.0000  0.0000
16140SI     SI116140   7.531   6.274   9.256  0.0000  0.0000  0.0000
16141SI     SI116141   0.746   2.702   8.872  0.0000  0.0000  0.0000
16142SI     SI116142   3.850   8.299   9.176  0.0000  0.0000  0.0000
16143SI     SI116143   2.319   8.206   0.453  0.0000  0.0000  0.0000
16144SI     SI116144   7.751   7.329   9.237  0.0000  0.0000  0.0000
16145SI     SI116145   0.651   5.766   8.668  0.0000  0.0000  0.0000
16146SI     SI116146   0.991   8.441   0.067  0.0000  0.0000  0.0000
16147SI     SI116147   8.193   8.203   8.608  0.0000  0.0000  0.0000
16148SI     SI116148   6.804   3.241   0.506  0.0000  0.0000  0.0000
16149SI     SI116149   5.689   5.795   0.472  0.0000  0.0000  0.0000
16150SI     SI116150   1.485   1.483   0.136  0.0000  0.0000  0.0000
16151SI     SI116151   5.579   7.204   8.397  0.0000  0.0000  0.0000
16152SI     SI116152   3.356   5.238   8.830  0.0000  0.0000  0.0000
16153SI     SI116153   8.770   2.194   0.672  0.0000  0.0000  0.0000
16154SI     SI116154   0.984   5.289   0.536  0.0000  0.0000  0.0000
16155SI     SI116155   0.680   7.031   8.765  0.0000  0.0000  0.0000
16156SI     SI116156   7.043   1.450   8.651  0.0000  0.0000  0.0000
16157SI     SI116157   0.602   5.931   9.058  0.0000  0.0000  0.0000
16158SI     SI116158   4.909   9.011   8.411  0.0000  0.0000  0.0000
16159SI     SI116159   6.580   3.452   0.062  0.0000  0.0000  0.0000
16160SI     SI116160   8.858   7.808   0.328  0.0000  0.0000  0.0000
16161SI     SI116161   1.374   6.869   0.907  0.0000  0.0000  0.0000
16162SI     SI116162   1.906   8.849   9.481  0.0000  0.0000  0.0000
16163SI     SI116163   4.016   2.683   9.219  0.0000  0.0000  0.0000
16164SI     SI116164   6.211   3.758   8.845  0.0000  0.0000  0.0000
16165SI     SI116165   6.977   5.080   9.324  0.0000  0.0000  0.0000
16166SI     SI116166   4.563   7.896   9.565  0.0000  0.0000  0.0000
16167SI     SI116167   8.071   8.954   8.971  0.0000  0.0000  0.0000
16168SI     SI116168   2.437   1.872   0.323  0.0000  0.0000  0.0000
16169SI     SI116169   2.126   0.200   8.823  0.0000  0.0000  0.0000
16170SI     SI116170   5.343   4.797   0.232  0.0000  0.0000  0.0000
16171SI     SI116171   6.606   1.888   8.560  0.0000  0.0000  0.0000
16172SI     SI116172   0.901   6.828   0.079  0.0000  0.0000  0.0000
16173SI     SI116173   3.909   4.091   9.142  0.0000  0.0000  0.0000
16174SI     SI116174   8.534   6.829   0.583  0.0000  0.0000  0.0000
16175SI     SI116175   0.955   2.763   0.249  0.0000  0.0000  0.0000
16176SI     SI116176   9.142   5.783   0.992  0.0000  0.0000  0.0000
16177SI     SI116177   6.319   1.681   1.285  0.0000  0.0000  0.0000
16178SI     SI116178   4.466   3.005   8.849  0.0000  0.0000  0.0000
16179SI     SI116179   3.334   7.728   0.155  0.0000  0.0000  0.0000
16180SI     SI116180   2.899   2.644   8.841  0.0000  0.0000  0.0000
16181SI     SI116181   7.806   8.565   0.869  0.0000  0.0000  0.0000
16182SI     SI116182   2.428   3.700   1.177  0.0000  0.0000  0.0000
16183SI     SI116183   5.342   4.821   0.873  0.0000  0.0000  0.0000
16184SI     SI116184   7.428   2.011   0.738  0.0000  0.0000  0.0000
16185SI     SI116185   7.481   8.082   9.042  0.0000  0.0000  0.0000
16186SI     SI116186   8.220   1.766   0.609  0.0000  0.0000  0.0000
16187SI     SI116187   0.035   9.060   0.682  0.0000  0.0000  0.0000
16188SI     SI116188   5.814   0.349   9.277  0.0000  0.0000  0.0000
16189SI     SI116189   2.317   7.492   0.831  0.0000  0.0000  0.0000
16190SI     SI116190   1.616   9.387   9.172  0.0000  0.0000  0.0000
16191SI     SI116191   7.131   8.825   8.719  0.0000  0.0000  0.0000
16192SI     SI116192   0.111   2.777   0.601  0.0000  0.0000  0.0000
16193SI     SI116193   6.141   5.293   8.759  0.0000  0.0000  0.0000
16194SI     SI116194   4.921   0.220   0.681  0.0000  0.0000  0.0000
16195SI     SI116195   2.124   0.998   0.809  0.0000  0.0000  0.0000
16196SI     SI116196   4.187   4.420   9.383  0.0000  0.0000  0.0000
16197SI     SI116197   7.549   8.140   0.697  0.0000  0.0000  0.0000
16198SI     SI116198   9.087   5.586   0.060  0.0000  0.0000  0.0000
16199SI     SI116199   3.971   7.526   8.837  0.0000  0.0000  0.0000
16200SI     SI116200   0.576   2.372   0.274  0.0000  0.0000  0.0000
16201SI     SI116201   6.379   2.960   0.096  0.0000  0.0000  0.0000
16202SI     SI116202   1.653   5.067   9.320  0.0000  0.0000  0.0000
16203SI     SI116203   9.047   0.897   0.242  0.0000  0.0000  0.0000
16204SI     SI116204   8.295   2.773   8.834  0.0000  0.0000  0.0000
16205SI     SI116205   9.149   5.366   0.757  0.0000  0.0000  0.0000
16206SI     SI116206   9.508   8.501   0.019  0.0000  0.0000  0.0000
16207SI     SI116207   0.588   3.880   0.921  0.0000  0.0000  0.0000
16208SI     SI116208   8.168   6.672   9.129  0.0000  0.0000  0.0000
16209SI     SI116209   2.566   8.286   1.028  0.0000  0.0000  0.0000
16210SI     SI116210   0.723   1.855   9.047  0.0000  0.0000  0.0000
16211SI     SI116211   0.302   7.576   9.605  0.0000  0.0000  0.0000
16212SI     SI116212   5.709   3.088   8.457  0.0000  0.0000  0.0000
16213SI     SI116213   5.006   3.086   8.488  0.0000  0.0000  0.0000
16214SI     SI116214   6.550   2.028   9.366  0.0000  0.0000  0.0000
16215SI     SI116215   4.370   1.516   8.985  0.0000  0.0000  0.0000
16216SI     SI116216   8.709   5.620   1.193  0.0000  0.0000  0.0000
16217SI     SI116217   2.993   7.743   0.965  0.0000  0.0000  0.0000
16218SI     SI116218   2.385   4.132   1.144  0.0000  0.0000  0.0000
16219SI     SI116219   4.522   7.761   0.665  0.0000  0.0000  0.0000
16220SI     SI116220   1.115   2.392   1.275  0.0000  0.0000  0.0000
16221SI     SI116221   6.589   4.092   8.579  0.0000  0.0000  0.0000
16222SI     SI116222   8.148   2.624   9.546  0.0000  0.0000  0.0000
16223SI     SI116223   7.707   8.843   0.005  0.0000  0.0000  0.0000
16224SI     SI116224   2.696   2.191   0.477  0.0000  0.0000  0.0000
16225SI     SI116225   2.848   4.326   9.379  0.0000  0.0000  0.0000
16226SI     SI116226   1.477   6.906   9.525  0.0000  0.0000  0.0000
16227SI     SI116227   8.941   4.761   0.163  0.0000  0.0000  0.0000
16228SI     SI116228   1.154   1.872   9.044  0.0000  0.0000  0.0000
16229SI     SI116229   7.200   5.819   8.255  0.0000  0.0000  0.0000
16230SI     SI116230   3.330   0.057   0.909  0.0000  0.0000  0.0000
16231SI     SI116231   5.522   8.913   1.321  0.0000  0.0000  0.0000
16232SI     SI116232   0.850   2.948   0.479  0.0000  0.0000  0.0000
16233SI     SI116233   4.615   8.091   1.122  0.0000  0.0000  0.0000
16234SI     SI116234   1.181   7.812   9.278  0.0000  0.0000  0.0000
16235SI     SI116235   4.114   0.165   9.456  0.0000  0.0000  0.0000
16236SI     SI116236   2.040   3.189   0.093  0.0000  0.0000  0.0000
16237SI     SI116237   0.350   9.331   1.031  0.0000  0.0000  0.0000
16238SI     SI116238   3.261   6.755   0.253  0.0000  0.0000  0.0000
16239SI     SI116239   7.919   5.400   1.177  0.0000  0.0000  0.0000
16240SI     SI116240   8.878   0.661   8.615  0.0000  0.0000  0.0000
16241SI     SI116241   0.184   1.864   9.428  0.0000  0.0000  0.0000
16242SI     SI116242   5.243   3.748   9.278  0.0000  0.0000  0.0000
16243SI     SI116243   2.926   6.058   1.008  0.0000  0.0000  0.0000
16244SI     SI116244   3.706   5.755   9.368  0.0000  0.0000  0.0000
16245SI     SI116245   6.005   0.220   9.079  0.0000  0.0000  0.0000
16246SI     SI116246   4.636   9.344   1.240  0.0000  0.0000  0.0000
16247SI     SI116247   3.380   1.656   8.690  0.0000  0.0000  0.0000
16248SI     SI116248   8.949   3.530   0.564  0.0000  0.0000  0.0000
16249SI     SI116249   2.663   0.971   0.606  0.0000  0.0000  0.0000
16250SI     SI116250   2.989   8.646   9.559  0.0000  0.0000  0.0000
16251SI     SI116251   7.144   3.032   0.991  0.0000  0.0000  0.0000
16252SI     SI116252   3.517   7.435   8.773  0.0000  0.0000  0.0000
16253SI     SI116253   0.818   5.970   8.836  0.0000  0.0000  0.0000
16254SI     SI116254   5.883   3.005   0.725  0.0000  0.0000  0.0000
16255SI     SI116255   5.984   4.368   0.778  0.0000  0.0000  0.0000
16256SI     SI116256   9.594   2.386   8.809  0.0000  0.0000  0.0000
16257SI     SI116257   8.503   5.043   8.586  0.0000  0.0000  0.0000
16258SI     SI116258   6.126   1.895   8.717  0.0000  0.0000  0.0000
16259SI     SI116259   8.546   4.123   0.312  0.0000  0.0000  0.0000
16260SI     SI116260   6.705   9.218   9.567  0.0000  0.0000  0.0000
16261SI     SI116261   8.042   1.541   0.519  0.0000  0.0000  0.0000
16262SI     SI116262   4.863   8.486   8.816  0.0000  0.0000  0.0000
16263SI     SI116263   3.251   6.596   1.383  0.0000  0.0000  0.0000
16264SI     SI116264   1.807   2.380   1.100  0.0000  0.0000  0.0000
16265SI     SI116265   0.082   5.056   0.200  0.0000  0.0000  0.0000
16266SI     SI116266   4.283   5.981   0.821  0.0000  0.0000  0.0000
16267SI     SI116267   2.808   2.180   0.869  0.0000  0.0000  0.0000
16268SI     SI116268   3.494   0.320   8.656  0.0000  0.0000  0.0000
16269SI     SI116269   5.652   9.592   0.773  0.0000  0.0000  0.0000
16270SI     SI116270   9.531   6.079   0.674  0.0000  0.0000  0.0000
16271SI     SI116271   8.911   2.067   9.053  0.0000  0.0000  0.0000
16272SI     SI116272   4.270   1.229   8.911  0.0000  0.0000  0.0000
16273SI     SI116273   3.532   2.266   9.395  0.0000  0.0000  0.0000
16274SI     SI116274   0.525   2.387   8.603  0.0000  0.0000  0.0000
16275SI     SI116275   8.563   2.855   0.382  0.0000  0.0000  0.0000
16276SI     SI116276   2.239   3.105   8.729  0.0000  0.0000  0.0000
16277SI     SI116277   3.194   9.033   9.272  0.0000  0.0000  0.0000
16278SI     SI116278   8.874   8.128   8.782  0.0000  0.0000  0.0000
16279SI     SI116279   1.083   9.576   0.451  0.0000  0.0000  0.0000
16280TPSG   HA216280   4.798   4.607   8.057  0.0000  0.0000  0.0000
16280TPSG   CA216281   4.825   4.515   8.006  0.0000  0.0000  0.0000
16280TPSG   CA116282   4.850   4.396   8.076  0.0000  0.0000  0.0000
16280TPSG    Si16283   4.850   4.396   8.262  0.0000  0.0000  0.0000
16280TPSG   CA616284   4.891   4.282   8.004  0.0000  0.0000  0.0000
16280TPSG   HH616285   4.906   4.186   8.053  0.0000  0.0000  0.0000
16280TPSG   CA516286   4.914   4.289   7.865  0.0000  0.0000  0.0000
16280TPSG   HA516287   4.946   4.202   7.810  0.0000  0.0000  0.0000
16280TPSG   CA416288   4.891   4.410   7.797  0.0000  0.0000  0.0000
16280TPSG   HA416289   4.910   4.416   7.690  0.0000  0.0000  0.0000
16280TPSG   CA316290   4.844   4.522   7.867  0.0000  0.0000  0.0000
16280TPSG   HA316291   4.827   4.615   7.813  0.0000  0.0000  0.0000
16280TPSG    O116292   4.966   4.396   8.146  0.0000  0.0000  0.0000
16280TPSG    H616293   4.966   4.396   8.048  0.0000  0.0000  0.0000
16281TPSG   HA216294   3.760   0.316   1.604  0.0000  0.0000  0.0000
16281TPSG   CA216295   3.787   0.408   1.655  0.0000  0.0000  0.0000
16281TPSG   CA116296   3.812   0.527   1.585  0.0000  0.0000  0.0000
16281TPSG    Si16297   3.812   0.527   1.399  0.0000  0.0000  0.0000
16281TPSG   CA616298   3.853   0.641   1.657  0.0000  0.0000  0.0000
16281TPSG   HH616299   3.868   0.737   1.608  0.0000  0.0000  0.0000
16281TPSG   CA516300   3.876   0.634   1.796  0.0000  0.0000  0.0000
16281TPSG   HA516301   3.908   0.721   1.851  0.0000  0.0000  0.0000
16281TPSG   CA416302   3.853   0.513   1.864  0.0000  0.0000  0.0000
16281TPSG   HA416303   3.872   0.507   1.971  0.0000  0.0000  0.0000
16281TPSG   CA316304   3.806   0.401   1.794  0.0000  0.0000  0.0000
16281TPSG   HA316305   3.789   0.308   1.848  0.0000  0.0000  0.0000
16281TPSG    O116306   3.928   0.527   1.515  0.0000  0.0000  0.0000
16281TPSG    H616307   3.928   0.527   1.613  0.0000  0.0000  0.0000
16282TPSG   HA216308   1.071   2.458   1.614  0.0000  0.0000  0.0000
16282TPSG   CA216309   1.098   2.550   1.665  0.0000  0.0000  0.0000
16282TPSG   CA116310   1.123   2.669   1.595  0.0000  0.0000  0.0000
16282TPSG    Si16311   1.123   2.669   1.409  0.0000  0.0000  0.0000
16282TPSG   CA616312   1.164   2.783   1.667  0.0000  0.0000  0.0000
16282TPSG   HH616313   1.179   2.879   1.618  0.0000  0.0000  0.0000
16282TPSG   CA516314   1.187   2.776   1.806  0.0000  0.0000  0.0000
16282TPSG   HA516315   1.219   2.863   1.861  0.0000  0.0000  0.0000
16282TPSG   CA416316   1.164   2.655   1.874  0.0000  0.0000  0.0000
16282TPSG   HA416317   1.183   2.649   1.981  0.0000  0.0000  0.0000
16282TPSG   CA316318   1.117   2.543   1.804  0.0000  0.0000  0.0000
16282TPSG   HA316319   1.100   2.450   1.858  0.0000  0.0000  0.0000
16282TPSG    O116320   1.239   2.669   1.525  0.0000  0.0000  0.0000
16282TPSG    H616321   1.239   2.669   1.623  0.0000  0.0000  0.0000
16283TPSG   HA216322   7.523   3.008   1.492  0.0000  0.0000  0.0000
16283TPSG   CA216323   7.550   3.100   1.543  0.0000  0.0000  0.0000
16283TPSG   CA116324   7.575   3.219   1.473  0.0000  0.0000  0.0000
16283TPSG    Si16325   7.575   3.219   1.287  0.0000  0.0000  0.0000
16283TPSG   CA616326   7.616   3.333   1.545  0.0000  0.0000  0.0000
16283TPSG   HH616327   7.631   3.429   1.496  0.0000  0.0000  0.0000
16283TPSG   CA516328   7.639   3.326   1.684  0.0000  0.0000  0.0000
16283TPSG   HA516329   7.671   3.413   1.739  0.0000  0.0000  0.0000
16283TPSG   CA416330   7.616   3.205   1.752  0.0000  0.0000  0.0000
16283TPSG   HA416331   7.635   3.199   1.859  0.0000  0.0000  0.0000
16283TPSG   CA316332   7.569   3.093   1.682  0.0000  0.0000  0.0000
16283TPSG   HA316333   7.552   3.000   1.736  0.0000  0.0000  0.0000
16283TPSG    O116334   7.691   3.219   1.403  0.0000  0.0000  0.0000
16283TPSG    H616335   7.691   3.219   1.501  0.0000  0.0000  0.0000
16284TPSG   HA216336   4.375   0.953   7.964  0.0000  0.0000  0.0000
16284TPSG   CA216337   4.402   0.861   7.913  0.0000  0.0000  0.0000
16284TPSG   CA116338   4.427   0.742   7.983  0.0000  0.0000  0.0000
16284TPSG    Si16339   4.427   0.742   8.169  0.0000  0.0000  0.0000
16284TPSG   CA616340   4.468   0.628   7.911  0.0000  0.0000  0.0000
16284TPSG   HH616341   4.483   0.532   7.960  0.0000  0.0000  0.0000
16284TPSG   CA516342   4.491   0.635   7.772  0.0000  0.0000  0.0000
16284TPSG   HA516343   4.523   0.548   7.717  0.0000  0.0000  0.0000
16284TPSG   CA416344   4.468   0.756   7.704  0.0000  0.0000  0.0000
16284TPSG   HA416345   4.487   0.762   7.597  0.0000  0.0000  0.0000
16284TPSG   CA316346   4.421   0.868   7.774  0.0000  0.0000  0.0000
16284TPSG   HA316347   4.404   0.961   7.720  0.0000  0.0000  0.0000
16284TPSG    O116348   4.543   0.742   8.053  0.0000  0.0000  0.0000
16284TPSG    H616349   4.543   0.742   7.955  0.0000  0.0000  0.0000
16285TPSG   HA216350   5.011   1.760   1.613  0.0000  0.0000  0.0000
16285TPSG   CA216351   5.038   1.852   1.664  0.0000  0.0000  0.0000
16285TPSG   CA116352   5.063   1.971   1.594  0.0000  0.0000  0.0000
16285TPSG    Si16353   5.063   1.971   1.408  0.0000  0.0000  0.0000
16285TPSG   CA616354   5.104   2.085   1.666  0.0000  0.0000  0.0000
16285TPSG   HH616355   5.119   2.181   1.617  0.0000  0.0000  0.0000
16285TPSG   CA516356   5.127   2.078   1.805  0.0000  0.0000  0.0000
16285TPSG   HA516357   5.159   2.165   1.860  0.0000  0.0000  0.0000
16285TPSG   CA416358   5.104   1.957   1.873  0.0000  0.0000  0.0000
16285TPSG   HA416359   5.123   1.951   1.980  0.0000  0.0000  0.0000
16285TPSG   CA316360   5.057   1.845   1.803  0.0000  0.0000  0.0000
16285TPSG   HA316361   5.040   1.752   1.857  0.0000  0.0000  0.0000
16285TPSG    O116362   5.179   1.971   1.524  0.0000  0.0000  0.0000
16285TPSG    H616363   5.179   1.971   1.622  0.0000  0.0000  0.0000
16286TPSG   HA216364   1.372   4.517   1.585  0.0000  0.0000  0.0000
16286TPSG   CA216365   1.399   4.609   1.636  0.0000  0.0000  0.0000
16286TPSG   CA116366   1.424   4.728   1.566  0.0000  0.0000  0.0000
16286TPSG    Si16367   1.424   4.728   1.380  0.0000  0.0000  0.0000
16286TPSG   CA616368   1.465   4.842   1.638  0.0000  0.0000  0.0000
16286TPSG   HH616369   1.480   4.938   1.589  0.0000  0.0000  0.0000
16286TPSG   CA516370   1.488   4.835   1.777  0.0000  0.0000  0.0000
16286TPSG   HA516371   1.520   4.922   1.832  0.0000  0.0000  0.0000
16286TPSG   CA416372   1.465   4.714   1.845  0.0000  0.0000  0.0000
16286TPSG   HA416373   1.484   4.708   1.952  0.0000  0.0000  0.0000
16286TPSG   CA316374   1.418   4.602   1.775  0.0000  0.0000  0.0000
16286TPSG   HA316375   1.401   4.509   1.829  0.0000  0.0000  0.0000
16286TPSG    O116376   1.540   4.728   1.496  0.0000  0.0000  0.0000
16286TPSG    H616377   1.540   4.728   1.594  0.0000  0.0000  0.0000
16287TPSG   HA216378   0.148   3.687   1.535  0.0000  0.0000  0.0000
16287TPSG   CA216379   0.175   3.779   1.586  0.0000  0.0000  0.0000
16287TPSG   CA116380   0.200   3.898   1.516  0.0000  0.0000  0.0000
16287TPSG    Si16381   0.200   3.898   1.330  0.0000  0.0000  0.0000
16287TPSG   CA616382   0.241   4.012   1.588  0.0000  0.0000  0.0000
16287TPSG   HH616383   0.256   4.108   1.539  0.0000  0.0000  0.0000
16287TPSG   CA516384   0.264   4.005   1.727  0.0000  0.0000  0.0000
16287TPSG   HA516385   0.296   4.092   1.782  0.0000  0.0000  0.0000
16287TPSG   CA416386   0.241   3.884   1.795  0.0000  0.0000  0.0000
16287TPSG   HA416387   0.260   3.878   1.902  0.0000  0.0000  0.0000
16287TPSG   CA316388   0.194   3.772   1.725  0.0000  0.0000  0.0000
16287TPSG   HA316389   0.177   3.679   1.779  0.0000  0.0000  0.0000
16287TPSG    O116390   0.316   3.898   1.446  0.0000  0.0000  0.0000
16287TPSG    H616391   0.316   3.898   1.544  0.0000  0.0000  0.0000
16288TPSG   HA216392   0.894   2.805   8.078  0.0000  0.0000  0.0000
16288TPSG   CA216393   0.921   2.713   8.027  0.0000  0.0000  0.0000
16288TPSG   CA116394   0.946   2.594   8.097  0.0000  0.0000  0.0000
16288TPSG    Si16395   0.946   2.594   8.283  0.0000  0.0000  0.0000
16288TPSG   CA616396   0.987   2.480   8.025  0.0000  0.0000  0.0000
16288TPSG   HH616397   1.002   2.384   8.074  0.0000  0.0000  0.0000
16288TPSG   CA516398   1.010   2.487   7.886  0.0000  0.0000  0.0000
16288TPSG   HA516399   1.042   2.400   7.831  0.0000  0.0000  0.0000
16288TPSG   CA416400   0.987   2.608   7.818  0.0000  0.0000  0.0000
16288TPSG   HA416401   1.006   2.614   7.711  0.0000  0.0000  0.0000
16288TPSG   CA316402   0.940   2.720   7.888  0.0000  0.0000  0.0000
16288TPSG   HA316403   0.923   2.813   7.834  0.0000  0.0000  0.0000
16288TPSG    O116404   1.062   2.594   8.167  0.0000  0.0000  0.0000
16288TPSG    H616405   1.062   2.594   8.069  0.0000  0.0000  0.0000
16289TPSG   HA216406   6.176   8.952   1.511  0.0000  0.0000  0.0000
16289TPSG   CA216407   6.203   9.044   1.562  0.0000  0.0000  0.0000
16289TPSG   CA116408   6.228   9.163   1.492  0.0000  0.0000  0.0000
16289TPSG    Si16409   6.228   9.163   1.306  0.0000  0.0000  0.0000
16289TPSG   CA616410   6.269   9.277   1.564  0.0000  0.0000  0.0000
16289TPSG   HH616411   6.284   9.373   1.515  0.0000  0.0000  0.0000
16289TPSG   CA516412   6.292   9.270   1.703  0.0000  0.0000  0.0000
16289TPSG   HA516413   6.324   9.357   1.758  0.0000  0.0000  0.0000
16289TPSG   CA416414   6.269   9.149   1.771  0.0000  0.0000  0.0000
16289TPSG   HA416415   6.288   9.143   1.878  0.0000  0.0000  0.0000
16289TPSG   CA316416   6.222   9.037   1.701  0.0000  0.0000  0.0000
16289TPSG   HA316417   6.205   8.944   1.755  0.0000  0.0000  0.0000
16289TPSG    O116418   6.344   9.163   1.422  0.0000  0.0000  0.0000
16289TPSG    H616419   6.344   9.163   1.520  0.0000  0.0000  0.0000
16290TPSG   HA216420   4.278   5.597   8.037  0.0000  0.0000  0.0000
16290TPSG   CA216421   4.305   5.505   7.986  0.0000  0.0000  0.0000
16290TPSG   CA116422   4.330   5.386   8.056  0.0000  0.0000  0.0000
16290TPSG    Si16423   4.330   5.386   8.242  0.0000  0.0000  0.0000
16290TPSG   CA616424   4.371   5.272   7.984  0.0000  0.0000  0.0000
16290TPSG   HH616425   4.386   5.176   8.033  0.0000  0.0000  0.0000
16290TPSG   CA516426   4.394   5.279   7.845  0.0000  0.0000  0.0000
16290TPSG   HA516427   4.426   5.192   7.790  0.0000  0.0000  0.0000
16290TPSG   CA416428   4.371   5.400   7.777  0.0000  0.0000  0.0000
16290TPSG   HA416429   4.390   5.406   7.670  0.0000  0.0000  0.0000
16290TPSG   CA316430   4.324   5.512   7.847  0.0000  0.0000  0.0000
16290TPSG   HA316431   4.307   5.605   7.793  0.0000  0.0000  0.0000
16290TPSG    O116432   4.446   5.386   8.126  0.0000  0.0000  0.0000
16290TPSG    H616433   4.446   5.386   8.028  0.0000  0.0000  0.0000
16291TPSG   HA216434   4.315   9.182   1.602  0.0000  0.0000  0.0000
16291TPSG   CA216435   4.342   9.274   1.653  0.0000  0.0000  0.0000
16291TPSG   CA116436   4.367   9.393   1.583  0.0000  0.0000  0.0000
16291TPSG    Si16437   4.367   9.393   1.397  0.0000  0.0000  0.0000
16291TPSG   CA616438   4.408   9.507   1.655  0.0000  0.0000  0.0000
16291TPSG   HH616439   4.423   9.603   1.606  0.0000  0.0000  0.0000
16291TPSG   CA516440   4.431   9.500   1.794  0.0000  0.0000  0.0000
16291TPSG   HA516441   4.463   9.587   1.849  0.0000  0.0000  0.0000
16291TPSG   CA416442   4.408   9.379   1.862  0.0000  0.0000  0.0000
16291TPSG   HA416443   4.427   9.373   1.969  0.0000  0.0000  0.0000
16291TPSG   CA316444   4.361   9.267   1.792  0.0000  0.0000  0.0000
16291TPSG   HA316445   4.344   9.174   1.846  0.0000  0.0000  0.0000
16291TPSG    O116446   4.483   9.393   1.513  0.0000  0.0000  0.0000
16291TPSG    H616447   4.483   9.393   1.611  0.0000  0.0000  0.0000
16292TPSG   HA216448   8.239   0.805   8.036  0.0000  0.0000  0.0000
16292TPSG   CA216449   8.266   0.713   7.985  0.0000  0.0000  0.0000
16292TPSG   CA116450   8.291   0.594   8.055  0.0000  0.0000  0.0000
16292TPSG    Si16451   8.291   0.594   8.241  0.0000  0.0000  0.0000
16292TPSG   CA616452   8.332   0.480   7.983  0.0000  0.0000  0.0000
16292TPSG   HH616453   8.347   0.384   8.032  0.0000  0.0000  0.0000
16292TPSG   CA516454   8.355   0.487   7.844  0.0000  0.0000  0.0000
16292TPSG   HA516455   8.387   0.400   7.789  0.0000  0.0000  0.0000
16292TPSG   CA416456   8.332   0.608   7.776  0.0000  0.0000  0.0000
16292TPSG   HA416457   8.351   0.614   7.669  0.0000  0.0000  0.0000
16292TPSG   CA316458   8.285   0.720   7.846  0.0000  0.0000  0.0000
16292TPSG   HA316459   8.268   0.813   7.792  0.0000  0.0000  0.0000
16292TPSG    O116460   8.407   0.594   8.125  0.0000  0.0000  0.0000
16292TPSG    H616461   8.407   0.594   8.027  0.0000  0.0000  0.0000
16293TPSG   HA216462   0.830   2.811   1.511  0.0000  0.0000  0.0000
16293TPSG   CA216463   0.857   2.903   1.562  0.0000  0.0000  0.0000
16293TPSG   CA116464   0.882   3.022   1.492  0.0000  0.0000  0.0000
16293TPSG    Si16465   0.882   3.022   1.306  0.0000  0.0000  0.0000
16293TPSG   CA616466   0.923   3.136   1.564  0.0000  0.0000  0.0000
16293TPSG   HH616467   0.938   3.232   1.515  0.0000  0.0000  0.0000
16293TPSG   CA516468   0.946   3.129   1.703  0.0000  0.0000  0.0000
16293TPSG   HA516469   0.978   3.216   1.758  0.0000  0.0000  0.0000
16293TPSG   CA416470   0.923   3.008   1.771  0.0000  0.0000  0.0000
16293TPSG   HA416471   0.942   3.002   1.878  0.0000  0.0000  0.0000
16293TPSG   CA316472   0.876   2.896   1.701  0.0000  0.0000  0.0000
16293TPSG   HA316473   0.859   2.803   1.755  0.0000  0.0000  0.0000
16293TPSG    O116474   0.998   3.022   1.422  0.0000  0.0000  0.0000
16293TPSG    H616475   0.998   3.022   1.520  0.0000  0.0000  0.0000
16294TPSG   HA216476   7.937   6.385   8.060  0.0000  0.0000  0.0000
16294TPSG   CA216477   7.964   6.293   8.009  0.0000  0.0000  0.0000
16294TPSG   CA116478   7.989   6.174   8.079  0.0000  0.0000  0.0000
16294TPSG    Si16479   7.989   6.174   8.265  0.0000  0.0000  0.0000
16294TPSG   CA616480   8.030   6.060   8.007  0.0000  0.0000  0.0000
16294TPSG   HH616481   8.045   5.964   8.056  0.0000  0.0000  0.0000
16294TPSG   CA516482   8.053   6.067   7.868  0.0000  0.0000  0.0000
16294TPSG   HA516483   8.085   5.980   7.813  0.0000  0.0000  0.0000
16294TPSG   CA416484   8.030   6.188   7.800  0.0000  0.0000  0.0000
16294TPSG   HA416485   8.049   6.194   7.693  0.0000  0.0000  0.0000
16294TPSG   CA316486   7.983   6.300   7.870  0.0000  0.0000  0.0000
16294TPSG   HA316487   7.966   6.393   7.816  0.0000  0.0000  0.0000
16294TPSG    O116488   8.105   6.174   8.149  0.0000  0.0000  0.0000
16294TPSG    H616489   8.105   6.174   8.051  0.0000  0.0000  0.0000
16295TPSG   HA216490   0.548   8.842   1.592  0.0000  0.0000  0.0000
16295TPSG   CA216491   0.575   8.934   1.643  0.0000  0.0000  0.0000
16295TPSG   CA116492   0.600   9.053   1.573  0.0000  0.0000  0.0000
16295TPSG    Si16493   0.600   9.053   1.387  0.0000  0.0000  0.0000
16295TPSG   CA616494   0.641   9.167   1.645  0.0000  0.0000  0.0000
16295TPSG   HH616495   0.656   9.263   1.596  0.0000  0.0000  0.0000
16295TPSG   CA516496   0.664   9.160   1.784  0.0000  0.0000  0.0000
16295TPSG   HA516497   0.696   9.247   1.839  0.0000  0.0000  0.0000
16295TPSG   CA416498   0.641   9.039   1.852  0.0000  0.0000  0.0000
16295TPSG   HA416499   0.660   9.033   1.959  0.0000  0.0000  0.0000
16295TPSG   CA316500   0.594   8.927   1.782  0.0000  0.0000  0.0000
16295TPSG   HA316501   0.577   8.834   1.836  0.0000  0.0000  0.0000
16295TPSG    O116502   0.716   9.053   1.503  0.0000  0.0000  0.0000
16295TPSG    H616503   0.716   9.053   1.601  0.0000  0.0000  0.0000
16296TPSG   HA216504   6.008   0.608   8.077  0.0000  0.0000  0.0000
16296TPSG   CA216505   6.035   0.516   8.026  0.0000  0.0000  0.0000
16296TPSG   CA116506   6.060   0.397   8.096  0.0000  0.0000  0.0000
16296TPSG    Si16507   6.060   0.397   8.282  0.0000  0.0000  0.0000
16296TPSG   CA616508   6.101   0.283   8.024  0.0000  0.0000  0.0000
16296TPSG   HH616509   6.116   0.187   8.073  0.0000  0.0000  0.0000
16296TPSG   CA516510   6.124   0.290   7.885  0.0000  0.0000  0.0000
16296TPSG   HA516511   6.156   0.203   7.830  0.0000  0.0000  0.0000
16296TPSG   CA416512   6.101   0.411   7.817  0.0000  0.0000  0.0000
16296TPSG   HA416513   6.120   0.417   7.710  0.0000  0.0000  0.0000
16296TPSG   CA316514   6.054   0.523   7.887  0.0000  0.0000  0.0000
16296TPSG   HA316515   6.037   0.616   7.833  0.0000  0.0000  0.0000
16296TPSG    O116516   6.176   0.397   8.166  0.0000  0.0000  0.0000
16296TPSG    H616517   6.176   0.397   8.068  0.0000  0.0000  0.0000
16297TPSG   HA216518   4.836   9.386   7.956  0.0000  0.0000  0.0000
16297TPSG   CA216519   4.863   9.294   7.905  0.0000  0.0000  0.0000
16297TPSG   CA116520   4.888   9.175   7.975  0.0000  0.0000  0.0000
16297TPSG    Si16521   4.888   9.175   8.161  0.0000  0.0000  0.0000
16297TPSG   CA616522   4.929   9.061   7.903  0.0000  0.0000  0.0000
16297TPSG   HH616523   4.944   8.965   7.952  0.0000  0.0000  0.0000
16297TPSG   CA516524   4.952   9.068   7.764  0.0000  0.0000  0.0000
16297TPSG   HA516525   4.984   8.981   7.709  0.0000  0.0000  0.0000
16297TPSG   CA416526   4.929   9.189   7.696  0.0000  0.0000  0.0000
16297TPSG   HA416527   4.948   9.195   7.589  0.0000  0.0000  0.0000
16297TPSG   CA316528   4.882   9.301   7.766  0.0000  0.0000  0.0000
16297TPSG   HA316529   4.865   9.394   7.712  0.0000  0.0000  0.0000
16297TPSG    O116530   5.004   9.175   8.045  0.0000  0.0000  0.0000
16297TPSG    H616531   5.004   9.175   7.947  0.0000  0.0000  0.0000
16298TPSG   HA216532   4.893   0.482   7.980  0.0000  0.0000  0.0000
16298TPSG   CA216533   4.920   0.390   7.929  0.0000  0.0000  0.0000
16298TPSG   CA116534   4.945   0.271   7.999  0.0000  0.0000  0.0000
16298TPSG    Si16535   4.945   0.271   8.185  0.0000  0.0000  0.0000
16298TPSG   CA616536   4.986   0.157   7.927  0.0000  0.0000  0.0000
16298TPSG   HH616537   5.001   0.061   7.976  0.0000  0.0000  0.0000
16298TPSG   CA516538   5.009   0.164   7.788  0.0000  0.0000  0.0000
16298TPSG   HA516539   5.041   0.077   7.733  0.0000  0.0000  0.0000
16298TPSG   CA416540   4.986   0.285   7.720  0.0000  0.0000  0.0000
16298TPSG   HA416541   5.005   0.291   7.613  0.0000  0.0000  0.0000
16298TPSG   CA316542   4.939   0.397   7.790  0.0000  0.0000  0.0000
16298TPSG   HA316543   4.922   0.490   7.736  0.0000  0.0000  0.0000
16298TPSG    O116544   5.061   0.271   8.069  0.0000  0.0000  0.0000
16298TPSG    H616545   5.061   0.271   7.971  0.0000  0.0000  0.0000
16299TPSG   HA216546   6.145   4.758   8.091  0.0000  0.0000  0.0000
16299TPSG   CA216547   6.172   4.666   8.040  0.0000  0.0000  0.0000
16299TPSG   CA116548   6.197   4.547   8.110  0.0000  0.0000  0.0000
16299TPSG    Si16549   6.197   4.547   8.296  0.0000  0.0000  0.0000
16299TPSG   CA616550   6.238   4.433   8.038  0.0000  0.0000  0.0000
16299TPSG   HH616551   6.253   4.337   8.087  0.0000  0.0000  0.0000
16299TPSG   CA516552   6.261   4.440   7.899  0.0000  0.0000  0.0000
16299TPSG   HA516553   6.293   4.353   7.844  0.0000  0.0000  0.0000
16299TPSG   CA416554   6.238   4.561   7.831  0.0000  0.0000  0.0000
16299TPSG   HA416555   6.257   4.567   7.724  0.0000  0.0000  0.0000
16299TPSG   CA316556   6.191   4.673   7.901  0.0000  0.0000  0.0000
16299TPSG   HA316557   6.174   4.766   7.847  0.0000  0.0000  0.0000
16299TPSG    O116558   6.313   4.547   8.180  0.0000  0.0000  0.0000
16299TPSG    H616559   6.313   4.547   8.082  0.0000  0.0000  0.0000
16300TPSG   HA216560   5.602   2.877   7.956  0.0000  0.0000  0.0000
16300TPSG   CA216561   5.629   2.785   7.905  0.0000  0.0000  0.0000
16300TPSG   CA116562   5.654   2.666   7.975  0.0000  0.0000  0.0000
16300TPSG    Si16563   5.654   2.666   8.161  0.0000  0.0000  0.0000
16300TPSG   CA616564   5.695   2.552   7.903  0.0000  0.0000  0.0000
16300TPSG   HH616565   5.710   2.456   7.952  0.0000  0.0000  0.0000
16300TPSG   CA516566   5.718   2.559   7.764  0.0000  0.0000  0.0000
16300TPSG   HA516567   5.750   2.472   7.709  0.0000  0.0000  0.0000
16300TPSG   CA416568   5.695   2.680   7.696  0.0000  0.0000  0.0000
16300TPSG   HA416569   5.714   2.686   7.589  0.0000  0.0000  0.0000
16300TPSG   CA316570   5.648   2.792   7.766  0.0000  0.0000  0.0000
16300TPSG   HA316571   5.631   2.885   7.712  0.0000  0.0000  0.0000
16300TPSG    O116572   5.770   2.666   8.045  0.0000  0.0000  0.0000
16300TPSG    H616573   5.770   2.666   7.947  0.0000  0.0000  0.0000
16301TPSG   HA216574   2.879   6.529   8.099  0.0000  0.0000  0.0000
16301TPSG   CA216575   2.906   6.437   8.048  0.0000  0.0000  0.0000
16301TPSG   CA116576   2.931   6.318   8.118  0.0000  0.0000  0.0000
16301TPSG    Si16577   2.931   6.318   8.304  0.0000  0.0000  0.0000
16301TPSG   CA616578   2.972   6.204   8.046  0.0000  0.0000  0.0000
16301TPSG   HH616579   2.987   6.108   8.095  0.0000  0.0000  0.0000
16301TPSG   CA516580   2.995   6.211   7.907  0.0000  0.0000  0.0000
16301TPSG   HA516581   3.027   6.124   7.852  0.0000  0.0000  0.0000
16301TPSG   CA416582   2.972   6.332   7.839  0.0000  0.0000  0.0000
16301TPSG   HA416583   2.991   6.338   7.732  0.0000  0.0000  0.0000
16301TPSG   CA316584   2.925   6.444   7.909  0.0000  0.0000  0.0000
16301TPSG   HA316585   2.908   6.537   7.855  0.0000  0.0000  0.0000
16301TPSG    O116586   3.047   6.318   8.188  0.0000  0.0000  0.0000
16301TPSG    H616587   3.047   6.318   8.090  0.0000  0.0000  0.0000
16302TPSG   HA216588   0.038   3.968   7.956  0.0000  0.0000  0.0000
16302TPSG   CA216589   0.065   3.876   7.905  0.0000  0.0000  0.0000
16302TPSG   CA116590   0.090   3.757   7.975  0.0000  0.0000  0.0000
16302TPSG    Si16591   0.090   3.757   8.161  0.0000  0.0000  0.0000
16302TPSG   CA616592   0.131   3.643   7.903  0.0000  0.0000  0.0000
16302TPSG   HH616593   0.146   3.547   7.952  0.0000  0.0000  0.0000
16302TPSG   CA516594   0.154   3.650   7.764  0.0000  0.0000  0.0000
16302TPSG   HA516595   0.186   3.563   7.709  0.0000  0.0000  0.0000
16302TPSG   CA416596   0.131   3.771   7.696  0.0000  0.0000  0.0000
16302TPSG   HA416597   0.150   3.777   7.589  0.0000  0.0000  0.0000
16302TPSG   CA316598   0.084   3.883   7.766  0.0000  0.0000  0.0000
16302TPSG   HA316599   0.067   3.976   7.712  0.0000  0.0000  0.0000
16302TPSG    O116600   0.206   3.757   8.045  0.0000  0.0000  0.0000
16302TPSG    H616601   0.206   3.757   7.947  0.0000  0.0000  0.0000
16303TPSG   HA216602   1.982   1.511   1.532  0.0000  0.0000  0.0000
16303TPSG   CA216603   2.009   1.603   1.583  0.0000  0.0000  0.0000
16303TPSG   CA116604   2.034   1.722   1.513  0.0000  0.0000  0.0000
16303TPSG    Si16605   2.034   1.722   1.327  0.0000  0.0000  0.0000
16303TPSG   CA616606   2.075   1.836   1.585  0.0000  0.0000  0.0000
16303TPSG   HH616607   2.090   1.932   1.536  0.0000  0.0000  0.0000
16303TPSG   CA516608   2.098   1.829   1.724  0.0000  0.0000  0.0000
16303TPSG   HA516609   2.130   1.916   1.779  0.0000  0.0000  0.0000
16303TPSG   CA416610   2.075   1.708   1.792  0.0000  0.0000  0.0000
16303TPSG   HA416611   2.094   1.702   1.899  0.0000  0.0000  0.0000
16303TPSG   CA316612   2.028   1.596   1.722  0.0000  0.0000  0.0000
16303TPSG   HA316613   2.011   1.503   1.776  0.0000  0.0000  0.0000
16303TPSG    O116614   2.150   1.722   1.443  0.0000  0.0000  0.0000
16303TPSG    H616615   2.150   1.722   1.541  0.0000  0.0000  0.0000
16304TPSG   HA216616   2.910   8.494   7.975  0.0000  0.0000  0.0000
16304TPSG   CA216617   2.937   8.402   7.924  0.0000  0.0000  0.0000
16304TPSG   CA116618   2.962   8.283   7.994  0.0000  0.0000  0.0000
16304TPSG    Si16619   2.962   8.283   8.180  0.0000  0.0000  0.0000
16304TPSG   CA616620   3.003   8.169   7.922  0.0000  0.0000  0.0000
16304TPSG   HH616621   3.018   8.073   7.971  0.0000  0.0000  0.0000
16304TPSG   CA516622   3.026   8.176   7.783  0.0000  0.0000  0.0000
16304TPSG   HA516623   3.058   8.089   7.728  0.0000  0.0000  0.0000
16304TPSG   CA416624   3.003   8.297   7.715  0.0000  0.0000  0.0000
16304TPSG   HA416625   3.022   8.303   7.608  0.0000  0.0000  0.0000
16304TPSG   CA316626   2.956   8.409   7.785  0.0000  0.0000  0.0000
16304TPSG   HA316627   2.939   8.502   7.731  0.0000  0.0000  0.0000
16304TPSG    O116628   3.078   8.283   8.064  0.0000  0.0000  0.0000
16304TPSG    H616629   3.078   8.283   7.966  0.0000  0.0000  0.0000
16305TPSG   HA216630   1.091   3.837   8.082  0.0000  0.0000  0.0000
16305TPSG   CA216631   1.118   3.745   8.031  0.0000  0.0000  0.0000
16305TPSG   CA116632   1.143   3.626   8.101  0.0000  0.0000  0.0000
16305TPSG    Si16633   1.143   3.626   8.287  0.0000  0.0000  0.0000
16305TPSG   CA616634   1.184   3.512   8.029  0.0000  0.0000  0.0000
16305TPSG   HH616635   1.199   3.416   8.078  0.0000  0.0000  0.0000
16305TPSG   CA516636   1.207   3.519   7.890  0.0000  0.0000  0.0000
16305TPSG   HA516637   1.239   3.432   7.835  0.0000  0.0000  0.0000
16305TPSG   CA416638   1.184   3.640   7.822  0.0000  0.0000  0.0000
16305TPSG   HA416639   1.203   3.646   7.715  0.0000  0.0000  0.0000
16305TPSG   CA316640   1.137   3.752   7.892  0.0000  0.0000  0.0000
16305TPSG   HA316641   1.120   3.845   7.838  0.0000  0.0000  0.0000
16305TPSG    O116642   1.259   3.626   8.171  0.0000  0.0000  0.0000
16305TPSG    H616643   1.259   3.626   8.073  0.0000  0.0000  0.0000
16306TPSG   HA216644   1.351   9.431   8.038  0.0000  0.0000  0.0000
16306TPSG   CA216645   1.378   9.339   7.987  0.0000  0.0000  0.0000
16306TPSG   CA116646   1.403   9.220   8.057  0.0000  0.0000  0.0000
16306TPSG    Si16647   1.403   9.220   8.243  0.0000  0.0000  0.0000
16306TPSG   CA616648   1.444   9.106   7.985  0.0000  0.0000  0.0000
16306TPSG   HH616649   1.459   9.010   8.034  0.0000  0.0000  0.0000
16306TPSG   CA516650   1.467   9.113   7.846  0.0000  0.0000  0.0000
16306TPSG   HA516651   1.499   9.026   7.791  0.0000  0.0000  0.0000
16306TPSG   CA416652   1.444   9.234   7.778  0.0000  0.0000  0.0000
16306TPSG   HA416653   1.463   9.240   7.671  0.0000  0.0000  0.0000
16306TPSG   CA316654   1.397   9.346   7.848  0.0000  0.0000  0.0000
16306TPSG   HA316655   1.380   9.439   7.794  0.0000  0.0000  0.0000
16306TPSG    O116656   1.519   9.220   8.127  0.0000  0.0000  0.0000
16306TPSG    H616657   1.519   9.220   8.029  0.0000  0.0000  0.0000
16307TPSG   HA216658   7.887   1.376   1.467  0.0000  0.0000  0.0000
16307TPSG   CA216659   7.914   1.468   1.518  0.0000  0.0000  0.0000
16307TPSG   CA116660   7.939   1.587   1.448  0.0000  0.0000  0.0000
16307TPSG    Si16661   7.939   1.587   1.262  0.0000  0.0000  0.0000
16307TPSG   CA616662   7.980   1.701   1.520  0.0000  0.0000  0.0000
16307TPSG   HH616663   7.995   1.797   1.471  0.0000  0.0000  0.0000
16307TPSG   CA516664   8.003   1.694   1.659  0.0000  0.0000  0.0000
16307TPSG   HA516665   8.035   1.781   1.714  0.0000  0.0000  0.0000
16307TPSG   CA416666   7.980   1.573   1.727  0.0000  0.0000  0.0000
16307TPSG   HA416667   7.999   1.567   1.834  0.0000  0.0000  0.0000
16307TPSG   CA316668   7.933   1.461   1.657  0.0000  0.0000  0.0000
16307TPSG   HA316669   7.916   1.368   1.711  0.0000  0.0000  0.0000
16307TPSG    O116670   8.055   1.587   1.378  0.0000  0.0000  0.0000
16307TPSG    H616671   8.055   1.587   1.476  0.0000  0.0000  0.0000
16308TPSG   HA216672   2.301   8.799   7.996  0.0000  0.0000  0.0000
16308TPSG   CA216673   2.328   8.707   7.945  0.0000  0.0000  0.0000
16308TPSG   CA116674   2.353   8.588   8.015  0.0000  0.0000  0.0000
16308TPSG    Si16675   2.353   8.588   8.201  0.0000  0.0000  0.0000
16308TPSG   CA616676   2.394   8.474   7.943  0.0000  0.0000  0.0000
16308TPSG   HH616677   2.409   8.378   7.992  0.0000  0.0000  0.0000
16308TPSG   CA516678   2.417   8.481   7.804  0.0000  0.0000  0.0000
16308TPSG   HA516679   2.449   8.394   7.749  0.0000  0.0000  0.0000
16308TPSG   CA416680   2.394   8.602   7.736  0.0000  0.0000  0.0000
16308TPSG   HA416681   2.413   8.608   7.629  0.0000  0.0000  0.0000
16308TPSG   CA316682   2.347   8.714   7.806  0.0000  0.0000  0.0000
16308TPSG   HA316683   2.330   8.807   7.752  0.0000  0.0000  0.0000
16308TPSG    O116684   2.469   8.588   8.085  0.0000  0.0000  0.0000
16308TPSG    H616685   2.469   8.588   7.987  0.0000  0.0000  0.0000
16309TPSG   HA216686   9.446   2.032   8.024  0.0000  0.0000  0.0000
16309TPSG   CA216687   9.473   1.940   7.973  0.0000  0.0000  0.0000
16309TPSG   CA116688   9.498   1.821   8.043  0.0000  0.0000  0.0000
16309TPSG    Si16689   9.498   1.821   8.229  0.0000  0.0000  0.0000
16309TPSG   CA616690   9.539   1.707   7.971  0.0000  0.0000  0.0000
16309TPSG   HH616691   9.554   1.611   8.020  0.0000  0.0000  0.0000
16309TPSG   CA516692   9.562   1.714   7.832  0.0000  0.0000  0.0000
16309TPSG   HA516693   9.594   1.627   7.777  0.0000  0.0000  0.0000
16309TPSG   CA416694   9.539   1.835   7.764  0.0000  0.0000  0.0000
16309TPSG   HA416695   9.558   1.841   7.657  0.0000  0.0000  0.0000
16309TPSG   CA316696   9.492   1.947   7.834  0.0000  0.0000  0.0000
16309TPSG   HA316697   9.475   2.040   7.780  0.0000  0.0000  0.0000
16309TPSG    O116698   9.614   1.821   8.113  0.0000  0.0000  0.0000
16309TPSG    H616699   9.614   1.821   8.015  0.0000  0.0000  0.0000
16310TPSG   HA216700   4.450   4.312   1.482  0.0000  0.0000  0.0000
16310TPSG   CA216701   4.477   4.404   1.533  0.0000  0.0000  0.0000
16310TPSG   CA116702   4.502   4.523   1.463  0.0000  0.0000  0.0000
16310TPSG    Si16703   4.502   4.523   1.277  0.0000  0.0000  0.0000
16310TPSG   CA616704   4.543   4.637   1.535  0.0000  0.0000  0.0000
16310TPSG   HH616705   4.558   4.733   1.486  0.0000  0.0000  0.0000
16310TPSG   CA516706   4.566   4.630   1.674  0.0000  0.0000  0.0000
16310TPSG   HA516707   4.598   4.717   1.729  0.0000  0.0000  0.0000
16310TPSG   CA416708   4.543   4.509   1.742  0.0000  0.0000  0.0000
16310TPSG   HA416709   4.562   4.503   1.849  0.0000  0.0000  0.0000
16310TPSG   CA316710   4.496   4.397   1.672  0.0000  0.0000  0.0000
16310TPSG   HA316711   4.479   4.304   1.726  0.0000  0.0000  0.0000
16310TPSG    O116712   4.618   4.523   1.393  0.0000  0.0000  0.0000
16310TPSG    H616713   4.618   4.523   1.491  0.0000  0.0000  0.0000
16311TPSG   HA216714   1.796   6.956   7.988  0.0000  0.0000  0.0000
16311TPSG   CA216715   1.823   6.864   7.937  0.0000  0.0000  0.0000
16311TPSG   CA116716   1.848   6.745   8.007  0.0000  0.0000  0.0000
16311TPSG    Si16717   1.848   6.745   8.193  0.0000  0.0000  0.0000
16311TPSG   CA616718   1.889   6.631   7.935  0.0000  0.0000  0.0000
16311TPSG   HH616719   1.904   6.535   7.984  0.0000  0.0000  0.0000
16311TPSG   CA516720   1.912   6.638   7.796  0.0000  0.0000  0.0000
16311TPSG   HA516721   1.944   6.551   7.741  0.0000  0.0000  0.0000
16311TPSG   CA416722   1.889   6.759   7.728  0.0000  0.0000  0.0000
16311TPSG   HA416723   1.908   6.765   7.621  0.0000  0.0000  0.0000
16311TPSG   CA316724   1.842   6.871   7.798  0.0000  0.0000  0.0000
16311TPSG   HA316725   1.825   6.964   7.744  0.0000  0.0000  0.0000
16311TPSG    O116726   1.964   6.745   8.077  0.0000  0.0000  0.0000
16311TPSG    H616727   1.964   6.745   7.979  0.0000  0.0000  0.0000
16312TPSG   HA216728   1.567   0.836   1.533  0.0000  0.0000  0.0000
16312TPSG   CA216729   1.528   0.923   1.584  0.0000  0.0000  0.0000
16312TPSG   CA116730   1.471   1.031   1.514  0.0000  0.0000  0.0000
16312TPSG    Si16731   1.471   1.031   1.328  0.0000  0.0000  0.0000
16312TPSG   CA616732   1.429   1.145   1.586  0.0000  0.0000  0.0000
16312TPSG   HH616733   1.379   1.228   1.537  0.0000  0.0000  0.0000
16312TPSG   CA516734   1.451   1.153   1.725  0.0000  0.0000  0.0000
16312TPSG   HA516735   1.420   1.242   1.780  0.0000  0.0000  0.0000
16312TPSG   CA416736   1.511   1.047   1.793  0.0000  0.0000  0.0000
16312TPSG   HA416737   1.530   1.054   1.900  0.0000  0.0000  0.0000
16312TPSG   CA316738   1.547   0.931   1.723  0.0000  0.0000  0.0000
16312TPSG   HA316739   1.594   0.848   1.777  0.0000  0.0000  0.0000
16312TPSG    O116740   1.560   1.106   1.444  0.0000  0.0000  0.0000
16312TPSG    H616741   1.560   1.106   1.542  0.0000  0.0000  0.0000
16313TPSG   HA216742   2.748   3.814   8.071  0.0000  0.0000  0.0000
16313TPSG   CA216743   2.775   3.722   8.020  0.0000  0.0000  0.0000
16313TPSG   CA116744   2.800   3.603   8.090  0.0000  0.0000  0.0000
16313TPSG    Si16745   2.800   3.603   8.276  0.0000  0.0000  0.0000
16313TPSG   CA616746   2.841   3.489   8.018  0.0000  0.0000  0.0000
16313TPSG   HH616747   2.856   3.393   8.067  0.0000  0.0000  0.0000
16313TPSG   CA516748   2.864   3.496   7.879  0.0000  0.0000  0.0000
16313TPSG   HA516749   2.896   3.409   7.824  0.0000  0.0000  0.0000
16313TPSG   CA416750   2.841   3.617   7.811  0.0000  0.0000  0.0000
16313TPSG   HA416751   2.860   3.623   7.704  0.0000  0.0000  0.0000
16313TPSG   CA316752   2.794   3.729   7.881  0.0000  0.0000  0.0000
16313TPSG   HA316753   2.777   3.822   7.827  0.0000  0.0000  0.0000
16313TPSG    O116754   2.916   3.603   8.160  0.0000  0.0000  0.0000
16313TPSG    H616755   2.916   3.603   8.062  0.0000  0.0000  0.0000
16314TPSG   HA216756   1.330   6.960   8.035  0.0000  0.0000  0.0000
16314TPSG   CA216757   1.357   6.868   7.984  0.0000  0.0000  0.0000
16314TPSG   CA116758   1.382   6.749   8.054  0.0000  0.0000  0.0000
16314TPSG    Si16759   1.382   6.749   8.240  0.0000  0.0000  0.0000
16314TPSG   CA616760   1.423   6.635   7.982  0.0000  0.0000  0.0000
16314TPSG   HH616761   1.438   6.539   8.031  0.0000  0.0000  0.0000
16314TPSG   CA516762   1.446   6.642   7.843  0.0000  0.0000  0.0000
16314TPSG   HA516763   1.478   6.555   7.788  0.0000  0.0000  0.0000
16314TPSG   CA416764   1.423   6.763   7.775  0.0000  0.0000  0.0000
16314TPSG   HA416765   1.442   6.769   7.668  0.0000  0.0000  0.0000
16314TPSG   CA316766   1.376   6.875   7.845  0.0000  0.0000  0.0000
16314TPSG   HA316767   1.359   6.968   7.791  0.0000  0.0000  0.0000
16314TPSG    O116768   1.498   6.749   8.124  0.0000  0.0000  0.0000
16314TPSG    H616769   1.498   6.749   8.026  0.0000  0.0000  0.0000
16315TPSG   HA216770   3.855   6.549   1.558  0.0000  0.0000  0.0000
16315TPSG   CA216771   3.882   6.641   1.609  0.0000  0.0000  0.0000
16315TPSG   CA116772   3.907   6.760   1.539  0.0000  0.0000  0.0000
16315TPSG    Si16773   3.907   6.760   1.353  0.0000  0.0000  0.0000
16315TPSG   CA616774   3.948   6.874   1.611  0.0000  0.0000  0.0000
16315TPSG   HH616775   3.963   6.970   1.562  0.0000  0.0000  0.0000
16315TPSG   CA516776   3.971   6.867   1.750  0.0000  0.0000  0.0000
16315TPSG   HA516777   4.003   6.954   1.805  0.0000  0.0000  0.0000
16315TPSG   CA416778   3.948   6.746   1.818  0.0000  0.0000  0.0000
16315TPSG   HA416779   3.967   6.740   1.925  0.0000  0.0000  0.0000
16315TPSG   CA316780   3.901   6.634   1.748  0.0000  0.0000  0.0000
16315TPSG   HA316781   3.884   6.541   1.802  0.0000  0.0000  0.0000
16315TPSG    O116782   4.023   6.760   1.469  0.0000  0.0000  0.0000
16315TPSG    H616783   4.023   6.760   1.567  0.0000  0.0000  0.0000
16316TPSG   HA216784   7.905   0.473   8.052  0.0000  0.0000  0.0000
16316TPSG   CA216785   7.932   0.381   8.001  0.0000  0.0000  0.0000
16316TPSG   CA116786   7.957   0.262   8.071  0.0000  0.0000  0.0000
16316TPSG    Si16787   7.957   0.262   8.257  0.0000  0.0000  0.0000
16316TPSG   CA616788   7.998   0.148   7.999  0.0000  0.0000  0.0000
16316TPSG   HH616789   8.013   0.052   8.048  0.0000  0.0000  0.0000
16316TPSG   CA516790   8.021   0.155   7.860  0.0000  0.0000  0.0000
16316TPSG   HA516791   8.053   0.068   7.805  0.0000  0.0000  0.0000
16316TPSG   CA416792   7.998   0.276   7.792  0.0000  0.0000  0.0000
16316TPSG   HA416793   8.017   0.282   7.685  0.0000  0.0000  0.0000
16316TPSG   CA316794   7.951   0.388   7.862  0.0000  0.0000  0.0000
16316TPSG   HA316795   7.934   0.481   7.808  0.0000  0.0000  0.0000
16316TPSG    O116796   8.073   0.262   8.141  0.0000  0.0000  0.0000
16316TPSG    H616797   8.073   0.262   8.043  0.0000  0.0000  0.0000
16317TPSG   HA216798   8.927   2.142   1.507  0.0000  0.0000  0.0000
16317TPSG   CA216799   8.954   2.234   1.558  0.0000  0.0000  0.0000
16317TPSG   CA116800   8.979   2.353   1.488  0.0000  0.0000  0.0000
16317TPSG    Si16801   8.979   2.353   1.302  0.0000  0.0000  0.0000
16317TPSG   CA616802   9.020   2.467   1.560  0.0000  0.0000  0.0000
16317TPSG   HH616803   9.035   2.563   1.511  0.0000  0.0000  0.0000
16317TPSG   CA516804   9.043   2.460   1.699  0.0000  0.0000  0.0000
16317TPSG   HA516805   9.075   2.547   1.754  0.0000  0.0000  0.0000
16317TPSG   CA416806   9.020   2.339   1.767  0.0000  0.0000  0.0000
16317TPSG   HA416807   9.039   2.333   1.874  0.0000  0.0000  0.0000
16317TPSG   CA316808   8.973   2.227   1.697  0.0000  0.0000  0.0000
16317TPSG   HA316809   8.956   2.134   1.751  0.0000  0.0000  0.0000
16317TPSG    O116810   9.095   2.353   1.418  0.0000  0.0000  0.0000
16317TPSG    H616811   9.095   2.353   1.516  0.0000  0.0000  0.0000
16318TPSG   HA216812   8.763   6.771   1.479  0.0000  0.0000  0.0000
16318TPSG   CA216813   8.790   6.863   1.530  0.0000  0.0000  0.0000
16318TPSG   CA116814   8.815   6.982   1.460  0.0000  0.0000  0.0000
16318TPSG    Si16815   8.815   6.982   1.274  0.0000  0.0000  0.0000
16318TPSG   CA616816   8.856   7.096   1.532  0.0000  0.0000  0.0000
16318TPSG   HH616817   8.871   7.192   1.483  0.0000  0.0000  0.0000
16318TPSG   CA516818   8.879   7.089   1.671  0.0000  0.0000  0.0000
16318TPSG   HA516819   8.911   7.176   1.726  0.0000  0.0000  0.0000
16318TPSG   CA416820   8.856   6.968   1.739  0.0000  0.0000  0.0000
16318TPSG   HA416821   8.875   6.962   1.846  0.0000  0.0000  0.0000
16318TPSG   CA316822   8.809   6.856   1.669  0.0000  0.0000  0.0000
16318TPSG   HA316823   8.792   6.763   1.723  0.0000  0.0000  0.0000
16318TPSG    O116824   8.931   6.982   1.390  0.0000  0.0000  0.0000
16318TPSG    H616825   8.931   6.982   1.488  0.0000  0.0000  0.0000
16319TPSG   HA216826   3.598   1.528   1.578  0.0000  0.0000  0.0000
16319TPSG   CA216827   3.625   1.620   1.629  0.0000  0.0000  0.0000
16319TPSG   CA116828   3.650   1.739   1.559  0.0000  0.0000  0.0000
16319TPSG    Si16829   3.650   1.739   1.373  0.0000  0.0000  0.0000
16319TPSG   CA616830   3.691   1.853   1.631  0.0000  0.0000  0.0000
16319TPSG   HH616831   3.706   1.949   1.582  0.0000  0.0000  0.0000
16319TPSG   CA516832   3.714   1.846   1.770  0.0000  0.0000  0.0000
16319TPSG   HA516833   3.746   1.933   1.825  0.0000  0.0000  0.0000
16319TPSG   CA416834   3.691   1.725   1.838  0.0000  0.0000  0.0000
16319TPSG   HA416835   3.710   1.719   1.945  0.0000  0.0000  0.0000
16319TPSG   CA316836   3.644   1.613   1.768  0.0000  0.0000  0.0000
16319TPSG   HA316837   3.627   1.520   1.822  0.0000  0.0000  0.0000
16319TPSG    O116838   3.766   1.739   1.489  0.0000  0.0000  0.0000
16319TPSG    H616839   3.766   1.739   1.587  0.0000  0.0000  0.0000
16320TPSG   HA216840   3.635   6.947   1.490  0.0000  0.0000  0.0000
16320TPSG   CA216841   3.662   7.039   1.541  0.0000  0.0000  0.0000
16320TPSG   CA116842   3.687   7.158   1.471  0.0000  0.0000  0.0000
16320TPSG    Si16843   3.687   7.158   1.285  0.0000  0.0000  0.0000
16320TPSG   CA616844   3.728   7.272   1.543  0.0000  0.0000  0.0000
16320TPSG   HH616845   3.743   7.368   1.494  0.0000  0.0000  0.0000
16320TPSG   CA516846   3.751   7.265   1.682  0.0000  0.0000  0.0000
16320TPSG   HA516847   3.783   7.352   1.737  0.0000  0.0000  0.0000
16320TPSG   CA416848   3.728   7.144   1.750  0.0000  0.0000  0.0000
16320TPSG   HA416849   3.747   7.138   1.857  0.0000  0.0000  0.0000
16320TPSG   CA316850   3.681   7.032   1.680  0.0000  0.0000  0.0000
16320TPSG   HA316851   3.664   6.939   1.734  0.0000  0.0000  0.0000
16320TPSG    O116852   3.803   7.158   1.401  0.0000  0.0000  0.0000
16320TPSG    H616853   3.803   7.158   1.499  0.0000  0.0000  0.0000
16321TPSG   HA216854   0.685   7.880   8.054  0.0000  0.0000  0.0000
16321TPSG   CA216855   0.712   7.788   8.003  0.0000  0.0000  0.0000
16321TPSG   CA116856   0.737   7.669   8.073  0.0000  0.0000  0.0000
16321TPSG    Si16857   0.737   7.669   8.259  0.0000  0.0000  0.0000
16321TPSG   CA616858   0.778   7.555   8.001  0.0000  0.0000  0.0000
16321TPSG   HH616859   0.793   7.459   8.050  0.0000  0.0000  0.0000
16321TPSG   CA516860   0.801   7.562   7.862  0.0000  0.0000  0.0000
16321TPSG   HA516861   0.833   7.475   7.807  0.0000  0.0000  0.0000
16321TPSG   CA416862   0.778   7.683   7.794  0.0000  0.0000  0.0000
16321TPSG   HA416863   0.797   7.689   7.687  0.0000  0.0000  0.0000
16321TPSG   CA316864   0.731   7.795   7.864  0.0000  0.0000  0.0000
16321TPSG   HA316865   0.714   7.888   7.810  0.0000  0.0000  0.0000
16321TPSG    O116866   0.853   7.669   8.143  0.0000  0.0000  0.0000
16321TPSG    H616867   0.853   7.669   8.045  0.0000  0.0000  0.0000
16322TPSG   HA216868   1.716   6.483   7.979  0.0000  0.0000  0.0000
16322TPSG   CA216869   1.743   6.391   7.928  0.0000  0.0000  0.0000
16322TPSG   CA116870   1.768   6.272   7.998  0.0000  0.0000  0.0000
16322TPSG    Si16871   1.768   6.272   8.184  0.0000  0.0000  0.0000
16322TPSG   CA616872   1.809   6.158   7.926  0.0000  0.0000  0.0000
16322TPSG   HH616873   1.824   6.062   7.975  0.0000  0.0000  0.0000
16322TPSG   CA516874   1.832   6.165   7.787  0.0000  0.0000  0.0000
16322TPSG   HA516875   1.864   6.078   7.732  0.0000  0.0000  0.0000
16322TPSG   CA416876   1.809   6.286   7.719  0.0000  0.0000  0.0000
16322TPSG   HA416877   1.828   6.292   7.612  0.0000  0.0000  0.0000
16322TPSG   CA316878   1.762   6.398   7.789  0.0000  0.0000  0.0000
16322TPSG   HA316879   1.745   6.491   7.735  0.0000  0.0000  0.0000
16322TPSG    O116880   1.884   6.272   8.068  0.0000  0.0000  0.0000
16322TPSG    H616881   1.884   6.272   7.970  0.0000  0.0000  0.0000
16323TPSG   HA216882   6.409   8.891   8.080  0.0000  0.0000  0.0000
16323TPSG   CA216883   6.436   8.799   8.029  0.0000  0.0000  0.0000
16323TPSG   CA116884   6.461   8.680   8.099  0.0000  0.0000  0.0000
16323TPSG    Si16885   6.461   8.680   8.285  0.0000  0.0000  0.0000
16323TPSG   CA616886   6.502   8.566   8.027  0.0000  0.0000  0.0000
16323TPSG   HH616887   6.517   8.470   8.076  0.0000  0.0000  0.0000
16323TPSG   CA516888   6.525   8.573   7.888  0.0000  0.0000  0.0000
16323TPSG   HA516889   6.557   8.486   7.833  0.0000  0.0000  0.0000
16323TPSG   CA416890   6.502   8.694   7.820  0.0000  0.0000  0.0000
16323TPSG   HA416891   6.521   8.700   7.713  0.0000  0.0000  0.0000
16323TPSG   CA316892   6.455   8.806   7.890  0.0000  0.0000  0.0000
16323TPSG   HA316893   6.438   8.899   7.836  0.0000  0.0000  0.0000
16323TPSG    O116894   6.577   8.680   8.169  0.0000  0.0000  0.0000
16323TPSG    H616895   6.577   8.680   8.071  0.0000  0.0000  0.0000
16324TPSG   HA216896   3.137   0.468   8.028  0.0000  0.0000  0.0000
16324TPSG   CA216897   3.164   0.376   7.977  0.0000  0.0000  0.0000
16324TPSG   CA116898   3.189   0.257   8.047  0.0000  0.0000  0.0000
16324TPSG    Si16899   3.189   0.257   8.233  0.0000  0.0000  0.0000
16324TPSG   CA616900   3.230   0.143   7.975  0.0000  0.0000  0.0000
16324TPSG   HH616901   3.245   0.047   8.024  0.0000  0.0000  0.0000
16324TPSG   CA516902   3.253   0.150   7.836  0.0000  0.0000  0.0000
16324TPSG   HA516903   3.285   0.063   7.781  0.0000  0.0000  0.0000
16324TPSG   CA416904   3.230   0.271   7.768  0.0000  0.0000  0.0000
16324TPSG   HA416905   3.249   0.277   7.661  0.0000  0.0000  0.0000
16324TPSG   CA316906   3.183   0.383   7.838  0.0000  0.0000  0.0000
16324TPSG   HA316907   3.166   0.476   7.784  0.0000  0.0000  0.0000
16324TPSG    O116908   3.305   0.257   8.117  0.0000  0.0000  0.0000
16324TPSG    H616909   3.305   0.257   8.019  0.0000  0.0000  0.0000
16325TPSG   HA216910   3.585   3.672   8.009  0.0000  0.0000  0.0000
16325TPSG   CA216911   3.612   3.580   7.958  0.0000  0.0000  0.0000
16325TPSG   CA116912   3.637   3.461   8.028  0.0000  0.0000  0.0000
16325TPSG    Si16913   3.637   3.461   8.214  0.0000  0.0000  0.0000
16325TPSG   CA616914   3.678   3.347   7.956  0.0000  0.0000  0.0000
16325TPSG   HH616915   3.693   3.251   8.005  0.0000  0.0000  0.0000
16325TPSG   CA516916   3.701   3.354   7.817  0.0000  0.0000  0.0000
16325TPSG   HA516917   3.733   3.267   7.762  0.0000  0.0000  0.0000
16325TPSG   CA416918   3.678   3.475   7.749  0.0000  0.0000  0.0000
16325TPSG   HA416919   3.697   3.481   7.642  0.0000  0.0000  0.0000
16325TPSG   CA316920   3.631   3.587   7.819  0.0000  0.0000  0.0000
16325TPSG   HA316921   3.614   3.680   7.765  0.0000  0.0000  0.0000
16325TPSG    O116922   3.753   3.461   8.098  0.0000  0.0000  0.0000
16325TPSG    H616923   3.753   3.461   8.000  0.0000  0.0000  0.0000
16326TPSG   HA216924   3.718   3.961   1.536  0.0000  0.0000  0.0000
16326TPSG   CA216925   3.652   4.029   1.587  0.0000  0.0000  0.0000
16326TPSG   CA116926   3.561   4.111   1.517  0.0000  0.0000  0.0000
16326TPSG    Si16927   3.561   4.111   1.331  0.0000  0.0000  0.0000
16326TPSG   CA616928   3.483   4.204   1.589  0.0000  0.0000  0.0000
16326TPSG   HH616929   3.408   4.265   1.540  0.0000  0.0000  0.0000
16326TPSG   CA516930   3.500   4.219   1.728  0.0000  0.0000  0.0000
16326TPSG   HA516931   3.441   4.291   1.783  0.0000  0.0000  0.0000
16326TPSG   CA416932   3.593   4.140   1.796  0.0000  0.0000  0.0000
16326TPSG   HA416933   3.608   4.153   1.903  0.0000  0.0000  0.0000
16326TPSG   CA316934   3.667   4.043   1.726  0.0000  0.0000  0.0000
16326TPSG   HA316935   3.739   3.981   1.780  0.0000  0.0000  0.0000
16326TPSG    O116936   3.619   4.211   1.447  0.0000  0.0000  0.0000
16326TPSG    H616937   3.619   4.211   1.545  0.0000  0.0000  0.0000
16327TPSG   HA216938   2.053   9.137   1.570  0.0000  0.0000  0.0000
16327TPSG   CA216939   2.080   9.229   1.621  0.0000  0.0000  0.0000
16327TPSG   CA116940   2.105   9.348   1.551  0.0000  0.0000  0.0000
16327TPSG    Si16941   2.105   9.348   1.365  0.0000  0.0000  0.0000
16327TPSG   CA616942   2.146   9.462   1.623  0.0000  0.0000  0.0000
16327TPSG   HH616943   2.161   9.558   1.574  0.0000  0.0000  0.0000
16327TPSG   CA516944   2.169   9.455   1.762  0.0000  0.0000  0.0000
16327TPSG   HA516945   2.201   9.542   1.817  0.0000  0.0000  0.0000
16327TPSG   CA416946   2.146   9.334   1.830  0.0000  0.0000  0.0000
16327TPSG   HA416947   2.165   9.328   1.937  0.0000  0.0000  0.0000
16327TPSG   CA316948   2.099   9.222   1.760  0.0000  0.0000  0.0000
16327TPSG   HA316949   2.082   9.129   1.814  0.0000  0.0000  0.0000
16327TPSG    O116950   2.221   9.348   1.481  0.0000  0.0000  0.0000
16327TPSG    H616951   2.221   9.348   1.579  0.0000  0.0000  0.0000
16328TPSG   HA216952   9.021   0.701   8.153  0.0000  0.0000  0.0000
16328TPSG   CA216953   8.982   0.614   8.102  0.0000  0.0000  0.0000
16328TPSG   CA116954   8.925   0.506   8.172  0.0000  0.0000  0.0000
16328TPSG    Si16955   8.925   0.506   8.358  0.0000  0.0000  0.0000
16328TPSG   CA616956   8.883   0.392   8.100  0.0000  0.0000  0.0000
16328TPSG   HH616957   8.833   0.309   8.149  0.0000  0.0000  0.0000
16328TPSG   CA516958   8.905   0.384   7.961  0.0000  0.0000  0.0000
16328TPSG   HA516959   8.874   0.295   7.906  0.0000  0.0000  0.0000
16328TPSG   CA416960   8.965   0.490   7.893  0.0000  0.0000  0.0000
16328TPSG   HA416961   8.984   0.483   7.786  0.0000  0.0000  0.0000
16328TPSG   CA316962   9.001   0.606   7.963  0.0000  0.0000  0.0000
16328TPSG   HA316963   9.048   0.689   7.909  0.0000  0.0000  0.0000
16328TPSG    O116964   9.014   0.431   8.242  0.0000  0.0000  0.0000
16328TPSG    H616965   9.014   0.431   8.144  0.0000  0.0000  0.0000
16329TPSG   HA216966   0.481   1.585   1.485  0.0000  0.0000  0.0000
16329TPSG   CA216967   0.508   1.677   1.536  0.0000  0.0000  0.0000
16329TPSG   CA116968   0.533   1.796   1.466  0.0000  0.0000  0.0000
16329TPSG    Si16969   0.533   1.796   1.280  0.0000  0.0000  0.0000
16329TPSG   CA616970   0.574   1.910   1.538  0.0000  0.0000  0.0000
16329TPSG   HH616971   0.589   2.006   1.489  0.0000  0.0000  0.0000
16329TPSG   CA516972   0.597   1.903   1.677  0.0000  0.0000  0.0000
16329TPSG   HA516973   0.629   1.990   1.732  0.0000  0.0000  0.0000
16329TPSG   CA416974   0.574   1.782   1.745  0.0000  0.0000  0.0000
16329TPSG   HA416975   0.593   1.776   1.852  0.0000  0.0000  0.0000
16329TPSG   CA316976   0.527   1.670   1.675  0.0000  0.0000  0.0000
16329TPSG   HA316977   0.510   1.577   1.729  0.0000  0.0000  0.0000
16329TPSG    O116978   0.649   1.796   1.396  0.0000  0.0000  0.0000
16329TPSG    H616979   0.649   1.796   1.494  0.0000  0.0000  0.0000
16330TPSG   HA216980   5.834   1.094   8.088  0.0000  0.0000  0.0000
16330TPSG   CA216981   5.748   1.052   8.037  0.0000  0.0000  0.0000
16330TPSG   CA116982   5.635   1.006   8.107  0.0000  0.0000  0.0000
16330TPSG    Si16983   5.635   1.006   8.293  0.0000  0.0000  0.0000
16330TPSG   CA616984   5.530   0.946   8.035  0.0000  0.0000  0.0000
16330TPSG   HH616985   5.438   0.914   8.084  0.0000  0.0000  0.0000
16330TPSG   CA516986   5.541   0.925   7.896  0.0000  0.0000  0.0000
16330TPSG   HA516987   5.460   0.878   7.841  0.0000  0.0000  0.0000
16330TPSG   CA416988   5.656   0.968   7.828  0.0000  0.0000  0.0000
16330TPSG   HA416989   5.665   0.950   7.721  0.0000  0.0000  0.0000
16330TPSG   CA316990   5.758   1.034   7.898  0.0000  0.0000  0.0000
16330TPSG   HA316991   5.846   1.067   7.844  0.0000  0.0000  0.0000
16330TPSG    O116992   5.655   0.892   8.177  0.0000  0.0000  0.0000
16330TPSG    H616993   5.655   0.892   8.079  0.0000  0.0000  0.0000
16331TPSG   HA216994   7.179   1.587   7.946  0.0000  0.0000  0.0000
16331TPSG   CA216995   7.206   1.495   7.895  0.0000  0.0000  0.0000
16331TPSG   CA116996   7.231   1.376   7.965  0.0000  0.0000  0.0000
16331TPSG    Si16997   7.231   1.376   8.151  0.0000  0.0000  0.0000
16331TPSG   CA616998   7.272   1.262   7.893  0.0000  0.0000  0.0000
16331TPSG   HH616999   7.287   1.166   7.942  0.0000  0.0000  0.0000
16331TPSG   CA517000   7.295   1.269   7.754  0.0000  0.0000  0.0000
16331TPSG   HA517001   7.327   1.182   7.699  0.0000  0.0000  0.0000
16331TPSG   CA417002   7.272   1.390   7.686  0.0000  0.0000  0.0000
16331TPSG   HA417003   7.291   1.396   7.579  0.0000  0.0000  0.0000
16331TPSG   CA317004   7.225   1.502   7.756  0.0000  0.0000  0.0000
16331TPSG   HA317005   7.208   1.595   7.702  0.0000  0.0000  0.0000
16331TPSG    O117006   7.347   1.376   8.035  0.0000  0.0000  0.0000
16331TPSG    H617007   7.347   1.376   7.937  0.0000  0.0000  0.0000
16332TPSG   HA217008   2.430   1.987   1.618  0.0000  0.0000  0.0000
16332TPSG   CA217009   2.457   2.079   1.669  0.0000  0.0000  0.0000
16332TPSG   CA117010   2.482   2.198   1.599  0.0000  0.0000  0.0000
16332TPSG    Si17011   2.482   2.198   1.413  0.0000  0.0000  0.0000
16332TPSG   CA617012   2.523   2.312   1.671  0.0000  0.0000  0.0000
16332TPSG   HH617013   2.538   2.408   1.622  0.0000  0.0000  0.0000
16332TPSG   CA517014   2.546   2.305   1.810  0.0000  0.0000  0.0000
16332TPSG   HA517015   2.578   2.392   1.865  0.0000  0.0000  0.0000
16332TPSG   CA417016   2.523   2.184   1.878  0.0000  0.0000  0.0000
16332TPSG   HA417017   2.542   2.178   1.985  0.0000  0.0000  0.0000
16332TPSG   CA317018   2.476   2.072   1.808  0.0000  0.0000  0.0000
16332TPSG   HA317019   2.459   1.979   1.862  0.0000  0.0000  0.0000
16332TPSG    O117020   2.598   2.198   1.529  0.0000  0.0000  0.0000
16332TPSG    H617021   2.598   2.198   1.627  0.0000  0.0000  0.0000
16333TPSG   HA217022   1.590   5.578   1.540  0.0000  0.0000  0.0000
16333TPSG   CA217023   1.617   5.670   1.591  0.0000  0.0000  0.0000
16333TPSG   CA117024   1.642   5.789   1.521  0.0000  0.0000  0.0000
16333TPSG    Si17025   1.642   5.789   1.335  0.0000  0.0000  0.0000
16333TPSG   CA617026   1.683   5.903   1.593  0.0000  0.0000  0.0000
16333TPSG   HH617027   1.698   5.999   1.544  0.0000  0.0000  0.0000
16333TPSG   CA517028   1.706   5.896   1.732  0.0000  0.0000  0.0000
16333TPSG   HA517029   1.738   5.983   1.787  0.0000  0.0000  0.0000
16333TPSG   CA417030   1.683   5.775   1.800  0.0000  0.0000  0.0000
16333TPSG   HA417031   1.702   5.769   1.907  0.0000  0.0000  0.0000
16333TPSG   CA317032   1.636   5.663   1.730  0.0000  0.0000  0.0000
16333TPSG   HA317033   1.619   5.570   1.784  0.0000  0.0000  0.0000
16333TPSG    O117034   1.758   5.789   1.451  0.0000  0.0000  0.0000
16333TPSG    H617035   1.758   5.789   1.549  0.0000  0.0000  0.0000
16334TPSG   HA217036   6.823   5.826   1.518  0.0000  0.0000  0.0000
16334TPSG   CA217037   6.850   5.918   1.569  0.0000  0.0000  0.0000
16334TPSG   CA117038   6.875   6.037   1.499  0.0000  0.0000  0.0000
16334TPSG    Si17039   6.875   6.037   1.313  0.0000  0.0000  0.0000
16334TPSG   CA617040   6.916   6.151   1.571  0.0000  0.0000  0.0000
16334TPSG   HH617041   6.931   6.247   1.522  0.0000  0.0000  0.0000
16334TPSG   CA517042   6.939   6.144   1.710  0.0000  0.0000  0.0000
16334TPSG   HA517043   6.971   6.231   1.765  0.0000  0.0000  0.0000
16334TPSG   CA417044   6.916   6.023   1.778  0.0000  0.0000  0.0000
16334TPSG   HA417045   6.935   6.017   1.885  0.0000  0.0000  0.0000
16334TPSG   CA317046   6.869   5.911   1.708  0.0000  0.0000  0.0000
16334TPSG   HA317047   6.852   5.818   1.762  0.0000  0.0000  0.0000
16334TPSG    O117048   6.991   6.037   1.429  0.0000  0.0000  0.0000
16334TPSG    H617049   6.991   6.037   1.527  0.0000  0.0000  0.0000
16335TPSG   HA217050   2.128   7.768   8.040  0.0000  0.0000  0.0000
16335TPSG   CA217051   2.155   7.676   7.989  0.0000  0.0000  0.0000
16335TPSG   CA117052   2.180   7.557   8.059  0.0000  0.0000  0.0000
16335TPSG    Si17053   2.180   7.557   8.245  0.0000  0.0000  0.0000
16335TPSG   CA617054   2.221   7.443   7.987  0.0000  0.0000  0.0000
16335TPSG   HH617055   2.236   7.347   8.036  0.0000  0.0000  0.0000
16335TPSG   CA517056   2.244   7.450   7.848  0.0000  0.0000  0.0000
16335TPSG   HA517057   2.276   7.363   7.793  0.0000  0.0000  0.0000
16335TPSG   CA417058   2.221   7.571   7.780  0.0000  0.0000  0.0000
16335TPSG   HA417059   2.240   7.577   7.673  0.0000  0.0000  0.0000
16335TPSG   CA317060   2.174   7.683   7.850  0.0000  0.0000  0.0000
16335TPSG   HA317061   2.157   7.776   7.796  0.0000  0.0000  0.0000
16335TPSG    O117062   2.296   7.557   8.129  0.0000  0.0000  0.0000
16335TPSG    H617063   2.296   7.557   8.031  0.0000  0.0000  0.0000
16336TPSG   HA217064   1.897   1.588   7.984  0.0000  0.0000  0.0000
16336TPSG   CA217065   1.924   1.496   7.933  0.0000  0.0000  0.0000
16336TPSG   CA117066   1.949   1.377   8.003  0.0000  0.0000  0.0000
16336TPSG    Si17067   1.949   1.377   8.189  0.0000  0.0000  0.0000
16336TPSG   CA617068   1.990   1.263   7.931  0.0000  0.0000  0.0000
16336TPSG   HH617069   2.005   1.167   7.980  0.0000  0.0000  0.0000
16336TPSG   CA517070   2.013   1.270   7.792  0.0000  0.0000  0.0000
16336TPSG   HA517071   2.045   1.183   7.737  0.0000  0.0000  0.0000
16336TPSG   CA417072   1.990   1.391   7.724  0.0000  0.0000  0.0000
16336TPSG   HA417073   2.009   1.397   7.617  0.0000  0.0000  0.0000
16336TPSG   CA317074   1.943   1.503   7.794  0.0000  0.0000  0.0000
16336TPSG   HA317075   1.926   1.596   7.740  0.0000  0.0000  0.0000
16336TPSG    O117076   2.065   1.377   8.073  0.0000  0.0000  0.0000
16336TPSG    H617077   2.065   1.377   7.975  0.0000  0.0000  0.0000
16337TPSG   HA217078   8.534   2.181   7.968  0.0000  0.0000  0.0000
16337TPSG   CA217079   8.561   2.089   7.917  0.0000  0.0000  0.0000
16337TPSG   CA117080   8.586   1.970   7.987  0.0000  0.0000  0.0000
16337TPSG    Si17081   8.586   1.970   8.173  0.0000  0.0000  0.0000
16337TPSG   CA617082   8.627   1.856   7.915  0.0000  0.0000  0.0000
16337TPSG   HH617083   8.642   1.760   7.964  0.0000  0.0000  0.0000
16337TPSG   CA517084   8.650   1.863   7.776  0.0000  0.0000  0.0000
16337TPSG   HA517085   8.682   1.776   7.721  0.0000  0.0000  0.0000
16337TPSG   CA417086   8.627   1.984   7.708  0.0000  0.0000  0.0000
16337TPSG   HA417087   8.646   1.990   7.601  0.0000  0.0000  0.0000
16337TPSG   CA317088   8.580   2.096   7.778  0.0000  0.0000  0.0000
16337TPSG   HA317089   8.563   2.189   7.724  0.0000  0.0000  0.0000
16337TPSG    O117090   8.702   1.970   8.057  0.0000  0.0000  0.0000
16337TPSG    H617091   8.702   1.970   7.959  0.0000  0.0000  0.0000
16338TPSG   HA217092   7.296   2.484   8.008  0.0000  0.0000  0.0000
16338TPSG   CA217093   7.323   2.392   7.957  0.0000  0.0000  0.0000
16338TPSG   CA117094   7.348   2.273   8.027  0.0000  0.0000  0.0000
16338TPSG    Si17095   7.348   2.273   8.213  0.0000  0.0000  0.0000
16338TPSG   CA617096   7.389   2.159   7.955  0.0000  0.0000  0.0000
16338TPSG   HH617097   7.404   2.063   8.004  0.0000  0.0000  0.0000
16338TPSG   CA517098   7.412   2.166   7.816  0.0000  0.0000  0.0000
16338TPSG   HA517099   7.444   2.079   7.761  0.0000  0.0000  0.0000
16338TPSG   CA417100   7.389   2.287   7.748  0.0000  0.0000  0.0000
16338TPSG   HA417101   7.408   2.293   7.641  0.0000  0.0000  0.0000
16338TPSG   CA317102   7.342   2.399   7.818  0.0000  0.0000  0.0000
16338TPSG   HA317103   7.325   2.492   7.764  0.0000  0.0000  0.0000
16338TPSG    O117104   7.464   2.273   8.097  0.0000  0.0000  0.0000
16338TPSG    H617105   7.464   2.273   7.999  0.0000  0.0000  0.0000
16339TPSG   HA217106   8.952  -0.040   1.495  0.0000  0.0000  0.0000
16339TPSG   CA217107   8.979   0.052   1.546  0.0000  0.0000  0.0000
16339TPSG   CA117108   9.004   0.171   1.476  0.0000  0.0000  0.0000
16339TPSG    Si17109   9.004   0.171   1.290  0.0000  0.0000  0.0000
16339TPSG   CA617110   9.045   0.285   1.548  0.0000  0.0000  0.0000
16339TPSG   HH617111   9.060   0.381   1.499  0.0000  0.0000  0.0000
16339TPSG   CA517112   9.068   0.278   1.687  0.0000  0.0000  0.0000
16339TPSG   HA517113   9.100   0.365   1.742  0.0000  0.0000  0.0000
16339TPSG   CA417114   9.045   0.157   1.755  0.0000  0.0000  0.0000
16339TPSG   HA417115   9.064   0.151   1.862  0.0000  0.0000  0.0000
16339TPSG   CA317116   8.998   0.045   1.685  0.0000  0.0000  0.0000
16339TPSG   HA317117   8.981  -0.048   1.739  0.0000  0.0000  0.0000
16339TPSG    O117118   9.120   0.171   1.406  0.0000  0.0000  0.0000
16339TPSG    H617119   9.120   0.171   1.504  0.0000  0.0000  0.0000
16340TPSG   HA217120   9.479   3.304   1.429  0.0000  0.0000  0.0000
16340TPSG   CA217121   9.506   3.396   1.480  0.0000  0.0000  0.0000
16340TPSG   CA117122   9.531   3.515   1.410  0.0000  0.0000  0.0000
16340TPSG    Si17123   9.531   3.515   1.224  0.0000  0.0000  0.0000
16340TPSG   CA617124   9.572   3.629   1.482  0.0000  0.0000  0.0000
16340TPSG   HH617125   9.587   3.725   1.433  0.0000  0.0000  0.0000
16340TPSG   CA517126   9.595   3.622   1.621  0.0000  0.0000  0.0000
16340TPSG   HA517127   9.627   3.709   1.676  0.0000  0.0000  0.0000
16340TPSG   CA417128   9.572   3.501   1.689  0.0000  0.0000  0.0000
16340TPSG   HA417129   9.591   3.495   1.796  0.0000  0.0000  0.0000
16340TPSG   CA317130   9.525   3.389   1.619  0.0000  0.0000  0.0000
16340TPSG   HA317131   9.508   3.296   1.673  0.0000  0.0000  0.0000
16340TPSG    O117132   9.647   3.515   1.340  0.0000  0.0000  0.0000
16340TPSG    H617133   9.647   3.515   1.438  0.0000  0.0000  0.0000
16341TPSG   HA217134   4.157   3.353   1.576  0.0000  0.0000  0.0000
16341TPSG   CA217135   4.184   3.445   1.627  0.0000  0.0000  0.0000
16341TPSG   CA117136   4.209   3.564   1.557  0.0000  0.0000  0.0000
16341TPSG    Si17137   4.209   3.564   1.371  0.0000  0.0000  0.0000
16341TPSG   CA617138   4.250   3.678   1.629  0.0000  0.0000  0.0000
16341TPSG   HH617139   4.265   3.774   1.580  0.0000  0.0000  0.0000
16341TPSG   CA517140   4.273   3.671   1.768  0.0000  0.0000  0.0000
16341TPSG   HA517141   4.305   3.758   1.823  0.0000  0.0000  0.0000
16341TPSG   CA417142   4.250   3.550   1.836  0.0000  0.0000  0.0000
16341TPSG   HA417143   4.269   3.544   1.943  0.0000  0.0000  0.0000
16341TPSG   CA317144   4.203   3.438   1.766  0.0000  0.0000  0.0000
16341TPSG   HA317145   4.186   3.345   1.820  0.0000  0.0000  0.0000
16341TPSG    O117146   4.325   3.564   1.487  0.0000  0.0000  0.0000
16341TPSG    H617147   4.325   3.564   1.585  0.0000  0.0000  0.0000
16342TPSG   HA217148   4.717   7.566   1.552  0.0000  0.0000  0.0000
16342TPSG   CA217149   4.744   7.658   1.603  0.0000  0.0000  0.0000
16342TPSG   CA117150   4.769   7.777   1.533  0.0000  0.0000  0.0000
16342TPSG    Si17151   4.769   7.777   1.347  0.0000  0.0000  0.0000
16342TPSG   CA617152   4.810   7.891   1.605  0.0000  0.0000  0.0000
16342TPSG   HH617153   4.825   7.987   1.556  0.0000  0.0000  0.0000
16342TPSG   CA517154   4.833   7.884   1.744  0.0000  0.0000  0.0000
16342TPSG   HA517155   4.865   7.971   1.799  0.0000  0.0000  0.0000
16342TPSG   CA417156   4.810   7.763   1.812  0.0000  0.0000  0.0000
16342TPSG   HA417157   4.829   7.757   1.919  0.0000  0.0000  0.0000
16342TPSG   CA317158   4.763   7.651   1.742  0.0000  0.0000  0.0000
16342TPSG   HA317159   4.746   7.558   1.796  0.0000  0.0000  0.0000
16342TPSG    O117160   4.885   7.777   1.463  0.0000  0.0000  0.0000
16342TPSG    H617161   4.885   7.777   1.561  0.0000  0.0000  0.0000
16343TPSG   HA217162   1.816   0.988   1.576  0.0000  0.0000  0.0000
16343TPSG   CA217163   1.843   1.080   1.627  0.0000  0.0000  0.0000
16343TPSG   CA117164   1.868   1.199   1.557  0.0000  0.0000  0.0000
16343TPSG    Si17165   1.868   1.199   1.371  0.0000  0.0000  0.0000
16343TPSG   CA617166   1.909   1.313   1.629  0.0000  0.0000  0.0000
16343TPSG   HH617167   1.924   1.409   1.580  0.0000  0.0000  0.0000
16343TPSG   CA517168   1.932   1.306   1.768  0.0000  0.0000  0.0000
16343TPSG   HA517169   1.964   1.393   1.823  0.0000  0.0000  0.0000
16343TPSG   CA417170   1.909   1.185   1.836  0.0000  0.0000  0.0000
16343TPSG   HA417171   1.928   1.179   1.943  0.0000  0.0000  0.0000
16343TPSG   CA317172   1.862   1.073   1.766  0.0000  0.0000  0.0000
16343TPSG   HA317173   1.845   0.980   1.820  0.0000  0.0000  0.0000
16343TPSG    O117174   1.984   1.199   1.487  0.0000  0.0000  0.0000
16343TPSG    H617175   1.984   1.199   1.585  0.0000  0.0000  0.0000
16344TPSG   HA217176   6.505   3.957   7.986  0.0000  0.0000  0.0000
16344TPSG   CA217177   6.532   3.865   7.935  0.0000  0.0000  0.0000
16344TPSG   CA117178   6.557   3.746   8.005  0.0000  0.0000  0.0000
16344TPSG    Si17179   6.557   3.746   8.191  0.0000  0.0000  0.0000
16344TPSG   CA617180   6.598   3.632   7.933  0.0000  0.0000  0.0000
16344TPSG   HH617181   6.613   3.536   7.982  0.0000  0.0000  0.0000
16344TPSG   CA517182   6.621   3.639   7.794  0.0000  0.0000  0.0000
16344TPSG   HA517183   6.653   3.552   7.739  0.0000  0.0000  0.0000
16344TPSG   CA417184   6.598   3.760   7.726  0.0000  0.0000  0.0000
16344TPSG   HA417185   6.617   3.766   7.619  0.0000  0.0000  0.0000
16344TPSG   CA317186   6.551   3.872   7.796  0.0000  0.0000  0.0000
16344TPSG   HA317187   6.534   3.965   7.742  0.0000  0.0000  0.0000
16344TPSG    O117188   6.673   3.746   8.075  0.0000  0.0000  0.0000
16344TPSG    H617189   6.673   3.746   7.977  0.0000  0.0000  0.0000
16345TPSG   HA217190   9.535   0.903   1.558  0.0000  0.0000  0.0000
16345TPSG   CA217191   9.496   0.990   1.609  0.0000  0.0000  0.0000
16345TPSG   CA117192   9.439   1.098   1.539  0.0000  0.0000  0.0000
16345TPSG    Si17193   9.439   1.098   1.353  0.0000  0.0000  0.0000
16345TPSG   CA617194   9.397   1.212   1.611  0.0000  0.0000  0.0000
16345TPSG   HH617195   9.347   1.295   1.562  0.0000  0.0000  0.0000
16345TPSG   CA517196   9.419   1.220   1.750  0.0000  0.0000  0.0000
16345TPSG   HA517197   9.388   1.309   1.805  0.0000  0.0000  0.0000
16345TPSG   CA417198   9.479   1.114   1.818  0.0000  0.0000  0.0000
16345TPSG   HA417199   9.498   1.121   1.925  0.0000  0.0000  0.0000
16345TPSG   CA317200   9.515   0.998   1.748  0.0000  0.0000  0.0000
16345TPSG   HA317201   9.562   0.915   1.802  0.0000  0.0000  0.0000
16345TPSG    O117202   9.528   1.173   1.469  0.0000  0.0000  0.0000
16345TPSG    H617203   9.528   1.173   1.567  0.0000  0.0000  0.0000
16346TPSG   HA217204   4.662   5.813   8.003  0.0000  0.0000  0.0000
16346TPSG   CA217205   4.689   5.721   7.952  0.0000  0.0000  0.0000
16346TPSG   CA117206   4.714   5.602   8.022  0.0000  0.0000  0.0000
16346TPSG    Si17207   4.714   5.602   8.208  0.0000  0.0000  0.0000
16346TPSG   CA617208   4.755   5.488   7.950  0.0000  0.0000  0.0000
16346TPSG   HH617209   4.770   5.392   7.999  0.0000  0.0000  0.0000
16346TPSG   CA517210   4.778   5.495   7.811  0.0000  0.0000  0.0000
16346TPSG   HA517211   4.810   5.408   7.756  0.0000  0.0000  0.0000
16346TPSG   CA417212   4.755   5.616   7.743  0.0000  0.0000  0.0000
16346TPSG   HA417213   4.774   5.622   7.636  0.0000  0.0000  0.0000
16346TPSG   CA317214   4.708   5.728   7.813  0.0000  0.0000  0.0000
16346TPSG   HA317215   4.691   5.821   7.759  0.0000  0.0000  0.0000
16346TPSG    O117216   4.830   5.602   8.092  0.0000  0.0000  0.0000
16346TPSG    H617217   4.830   5.602   7.994  0.0000  0.0000  0.0000
16347TPSG   HA217218   5.249   4.377   1.550  0.0000  0.0000  0.0000
16347TPSG   CA217219   5.276   4.469   1.601  0.0000  0.0000  0.0000
16347TPSG   CA117220   5.301   4.588   1.531  0.0000  0.0000  0.0000
16347TPSG    Si17221   5.301   4.588   1.345  0.0000  0.0000  0.0000
16347TPSG   CA617222   5.342   4.702   1.603  0.0000  0.0000  0.0000
16347TPSG   HH617223   5.357   4.798   1.554  0.0000  0.0000  0.0000
16347TPSG   CA517224   5.365   4.695   1.742  0.0000  0.0000  0.0000
16347TPSG   HA517225   5.397   4.782   1.797  0.0000  0.0000  0.0000
16347TPSG   CA417226   5.342   4.574   1.810  0.0000  0.0000  0.0000
16347TPSG   HA417227   5.361   4.568   1.917  0.0000  0.0000  0.0000
16347TPSG   CA317228   5.295   4.462   1.740  0.0000  0.0000  0.0000
16347TPSG   HA317229   5.278   4.369   1.794  0.0000  0.0000  0.0000
16347TPSG    O117230   5.417   4.588   1.461  0.0000  0.0000  0.0000
16347TPSG    H617231   5.417   4.588   1.559  0.0000  0.0000  0.0000
16348TPSG   HA217232   8.233   4.507   1.627  0.0000  0.0000  0.0000
16348TPSG   CA217233   8.260   4.599   1.678  0.0000  0.0000  0.0000
16348TPSG   CA117234   8.285   4.718   1.608  0.0000  0.0000  0.0000
16348TPSG    Si17235   8.285   4.718   1.422  0.0000  0.0000  0.0000
16348TPSG   CA617236   8.326   4.832   1.680  0.0000  0.0000  0.0000
16348TPSG   HH617237   8.341   4.928   1.631  0.0000  0.0000  0.0000
16348TPSG   CA517238   8.349   4.825   1.819  0.0000  0.0000  0.0000
16348TPSG   HA517239   8.381   4.912   1.874  0.0000  0.0000  0.0000
16348TPSG   CA417240   8.326   4.704   1.887  0.0000  0.0000  0.0000
16348TPSG   HA417241   8.345   4.698   1.994  0.0000  0.0000  0.0000
16348TPSG   CA317242   8.279   4.592   1.817  0.0000  0.0000  0.0000
16348TPSG   HA317243   8.262   4.499   1.871  0.0000  0.0000  0.0000
16348TPSG    O117244   8.401   4.718   1.538  0.0000  0.0000  0.0000
16348TPSG    H617245   8.401   4.718   1.636  0.0000  0.0000  0.0000
16349TPSG   HA217246   1.436   8.303   1.632  0.0000  0.0000  0.0000
16349TPSG   CA217247   1.463   8.395   1.683  0.0000  0.0000  0.0000
16349TPSG   CA117248   1.488   8.514   1.613  0.0000  0.0000  0.0000
16349TPSG    Si17249   1.488   8.514   1.427  0.0000  0.0000  0.0000
16349TPSG   CA617250   1.529   8.628   1.685  0.0000  0.0000  0.0000
16349TPSG   HH617251   1.544   8.724   1.636  0.0000  0.0000  0.0000
16349TPSG   CA517252   1.552   8.621   1.824  0.0000  0.0000  0.0000
16349TPSG   HA517253   1.584   8.708   1.879  0.0000  0.0000  0.0000
16349TPSG   CA417254   1.529   8.500   1.892  0.0000  0.0000  0.0000
16349TPSG   HA417255   1.548   8.494   1.999  0.0000  0.0000  0.0000
16349TPSG   CA317256   1.482   8.388   1.822  0.0000  0.0000  0.0000
16349TPSG   HA317257   1.465   8.295   1.876  0.0000  0.0000  0.0000
16349TPSG    O117258   1.604   8.514   1.543  0.0000  0.0000  0.0000
16349TPSG    H617259   1.604   8.514   1.641  0.0000  0.0000  0.0000
16350TPSG   HA217260   3.335   0.178   1.562  0.0000  0.0000  0.0000
16350TPSG   CA217261   3.362   0.270   1.613  0.0000  0.0000  0.0000
16350TPSG   CA117262   3.387   0.389   1.543  0.0000  0.0000  0.0000
16350TPSG    Si17263   3.387   0.389   1.357  0.0000  0.0000  0.0000
16350TPSG   CA617264   3.428   0.503   1.615  0.0000  0.0000  0.0000
16350TPSG   HH617265   3.443   0.599   1.566  0.0000  0.0000  0.0000
16350TPSG   CA517266   3.451   0.496   1.754  0.0000  0.0000  0.0000
16350TPSG   HA517267   3.483   0.583   1.809  0.0000  0.0000  0.0000
16350TPSG   CA417268   3.428   0.375   1.822  0.0000  0.0000  0.0000
16350TPSG   HA417269   3.447   0.369   1.929  0.0000  0.0000  0.0000
16350TPSG   CA317270   3.381   0.263   1.752  0.0000  0.0000  0.0000
16350TPSG   HA317271   3.364   0.170   1.806  0.0000  0.0000  0.0000
16350TPSG    O117272   3.503   0.389   1.473  0.0000  0.0000  0.0000
16350TPSG    H617273   3.503   0.389   1.571  0.0000  0.0000  0.0000
16351TPSG   HA217274  -0.031   6.018   8.131  0.0000  0.0000  0.0000
16351TPSG   CA217275  -0.004   5.926   8.080  0.0000  0.0000  0.0000
16351TPSG   CA117276   0.021   5.807   8.150  0.0000  0.0000  0.0000
16351TPSG    Si17277   0.021   5.807   8.336  0.0000  0.0000  0.0000
16351TPSG   CA617278   0.062   5.693   8.078  0.0000  0.0000  0.0000
16351TPSG   HH617279   0.077   5.597   8.127  0.0000  0.0000  0.0000
16351TPSG   CA517280   0.085   5.700   7.939  0.0000  0.0000  0.0000
16351TPSG   HA517281   0.117   5.613   7.884  0.0000  0.0000  0.0000
16351TPSG   CA417282   0.062   5.821   7.871  0.0000  0.0000  0.0000
16351TPSG   HA417283   0.081   5.827   7.764  0.0000  0.0000  0.0000
16351TPSG   CA317284   0.015   5.933   7.941  0.0000  0.0000  0.0000
16351TPSG   HA317285  -0.002   6.026   7.887  0.0000  0.0000  0.0000
16351TPSG    O117286   0.137   5.807   8.220  0.0000  0.0000  0.0000
16351TPSG    H617287   0.137   5.807   8.122  0.0000  0.0000  0.0000
16352TPSG   HA217288   1.790   4.983   1.596  0.0000  0.0000  0.0000
16352TPSG   CA217289   1.817   5.075   1.647  0.0000  0.0000  0.0000
16352TPSG   CA117290   1.842   5.194   1.577  0.0000  0.0000  0.0000
16352TPSG    Si17291   1.842   5.194   1.391  0.0000  0.0000  0.0000
16352TPSG   CA617292   1.883   5.308   1.649  0.0000  0.0000  0.0000
16352TPSG   HH617293   1.898   5.404   1.600  0.0000  0.0000  0.0000
16352TPSG   CA517294   1.906   5.301   1.788  0.0000  0.0000  0.0000
16352TPSG   HA517295   1.938   5.388   1.843  0.0000  0.0000  0.0000
16352TPSG   CA417296   1.883   5.180   1.856  0.0000  0.0000  0.0000
16352TPSG   HA417297   1.902   5.174   1.963  0.0000  0.0000  0.0000
16352TPSG   CA317298   1.836   5.068   1.786  0.0000  0.0000  0.0000
16352TPSG   HA317299   1.819   4.975   1.840  0.0000  0.0000  0.0000
16352TPSG    O117300   1.958   5.194   1.507  0.0000  0.0000  0.0000
16352TPSG    H617301   1.958   5.194   1.605  0.0000  0.0000  0.0000
16353TPSG   HA217302   5.190   7.025   1.533  0.0000  0.0000  0.0000
16353TPSG   CA217303   5.184   7.120   1.584  0.0000  0.0000  0.0000
16353TPSG   CA117304   5.167   7.241   1.514  0.0000  0.0000  0.0000
16353TPSG    Si17305   5.167   7.241   1.328  0.0000  0.0000  0.0000
16353TPSG   CA617306   5.167   7.362   1.586  0.0000  0.0000  0.0000
16353TPSG   HH617307   5.148   7.457   1.537  0.0000  0.0000  0.0000
16353TPSG   CA517308   5.190   7.363   1.725  0.0000  0.0000  0.0000
16353TPSG   HA517309   5.191   7.456   1.780  0.0000  0.0000  0.0000
16353TPSG   CA417310   5.210   7.242   1.793  0.0000  0.0000  0.0000
16353TPSG   HA417311   5.230   7.243   1.900  0.0000  0.0000  0.0000
16353TPSG   CA317312   5.204   7.121   1.723  0.0000  0.0000  0.0000
16353TPSG   HA317313   5.220   7.028   1.777  0.0000  0.0000  0.0000
16353TPSG    O117314   5.276   7.281   1.444  0.0000  0.0000  0.0000
16353TPSG    H617315   5.276   7.281   1.542  0.0000  0.0000  0.0000
16354TPSG   HA217316   5.981   7.180   7.996  0.0000  0.0000  0.0000
16354TPSG   CA217317   6.008   7.088   7.945  0.0000  0.0000  0.0000
16354TPSG   CA117318   6.033   6.969   8.015  0.0000  0.0000  0.0000
16354TPSG    Si17319   6.033   6.969   8.201  0.0000  0.0000  0.0000
16354TPSG   CA617320   6.074   6.855   7.943  0.0000  0.0000  0.0000
16354TPSG   HH617321   6.089   6.759   7.992  0.0000  0.0000  0.0000
16354TPSG   CA517322   6.097   6.862   7.804  0.0000  0.0000  0.0000
16354TPSG   HA517323   6.129   6.775   7.749  0.0000  0.0000  0.0000
16354TPSG   CA417324   6.074   6.983   7.736  0.0000  0.0000  0.0000
16354TPSG   HA417325   6.093   6.989   7.629  0.0000  0.0000  0.0000
16354TPSG   CA317326   6.027   7.095   7.806  0.0000  0.0000  0.0000
16354TPSG   HA317327   6.010   7.188   7.752  0.0000  0.0000  0.0000
16354TPSG    O117328   6.149   6.969   8.085  0.0000  0.0000  0.0000
16354TPSG    H617329   6.149   6.969   7.987  0.0000  0.0000  0.0000
16355TPSG   HA217330   8.873   8.582   1.527  0.0000  0.0000  0.0000
16355TPSG   CA217331   8.900   8.674   1.578  0.0000  0.0000  0.0000
16355TPSG   CA117332   8.925   8.793   1.508  0.0000  0.0000  0.0000
16355TPSG    Si17333   8.925   8.793   1.322  0.0000  0.0000  0.0000
16355TPSG   CA617334   8.966   8.907   1.580  0.0000  0.0000  0.0000
16355TPSG   HH617335   8.981   9.003   1.531  0.0000  0.0000  0.0000
16355TPSG   CA517336   8.989   8.900   1.719  0.0000  0.0000  0.0000
16355TPSG   HA517337   9.021   8.987   1.774  0.0000  0.0000  0.0000
16355TPSG   CA417338   8.966   8.779   1.787  0.0000  0.0000  0.0000
16355TPSG   HA417339   8.985   8.773   1.894  0.0000  0.0000  0.0000
16355TPSG   CA317340   8.919   8.667   1.717  0.0000  0.0000  0.0000
16355TPSG   HA317341   8.902   8.574   1.771  0.0000  0.0000  0.0000
16355TPSG    O117342   9.041   8.793   1.438  0.0000  0.0000  0.0000
16355TPSG    H617343   9.041   8.793   1.536  0.0000  0.0000  0.0000
16356TPSG   HA217344   1.790   2.800   8.106  0.0000  0.0000  0.0000
16356TPSG   CA217345   1.817   2.708   8.055  0.0000  0.0000  0.0000
16356TPSG   CA117346   1.842   2.589   8.125  0.0000  0.0000  0.0000
16356TPSG    Si17347   1.842   2.589   8.311  0.0000  0.0000  0.0000
16356TPSG   CA617348   1.883   2.475   8.053  0.0000  0.0000  0.0000
16356TPSG   HH617349   1.898   2.379   8.102  0.0000  0.0000  0.0000
16356TPSG   CA517350   1.906   2.482   7.914  0.0000  0.0000  0.0000
16356TPSG   HA517351   1.938   2.395   7.859  0.0000  0.0000  0.0000
16356TPSG   CA417352   1.883   2.603   7.846  0.0000  0.0000  0.0000
16356TPSG   HA417353   1.902   2.609   7.739  0.0000  0.0000  0.0000
16356TPSG   CA317354   1.836   2.715   7.916  0.0000  0.0000  0.0000
16356TPSG   HA317355   1.819   2.808   7.862  0.0000  0.0000  0.0000
16356TPSG    O117356   1.958   2.589   8.195  0.0000  0.0000  0.0000
16356TPSG    H617357   1.958   2.589   8.097  0.0000  0.0000  0.0000
16357TPSG   HA217358   5.975   4.058   8.024  0.0000  0.0000  0.0000
16357TPSG   CA217359   6.002   3.966   7.973  0.0000  0.0000  0.0000
16357TPSG   CA117360   6.027   3.847   8.043  0.0000  0.0000  0.0000
16357TPSG    Si17361   6.027   3.847   8.229  0.0000  0.0000  0.0000
16357TPSG   CA617362   6.068   3.733   7.971  0.0000  0.0000  0.0000
16357TPSG   HH617363   6.083   3.637   8.020  0.0000  0.0000  0.0000
16357TPSG   CA517364   6.091   3.740   7.832  0.0000  0.0000  0.0000
16357TPSG   HA517365   6.123   3.653   7.777  0.0000  0.0000  0.0000
16357TPSG   CA417366   6.068   3.861   7.764  0.0000  0.0000  0.0000
16357TPSG   HA417367   6.087   3.867   7.657  0.0000  0.0000  0.0000
16357TPSG   CA317368   6.021   3.973   7.834  0.0000  0.0000  0.0000
16357TPSG   HA317369   6.004   4.066   7.780  0.0000  0.0000  0.0000
16357TPSG    O117370   6.143   3.847   8.113  0.0000  0.0000  0.0000
16357TPSG    H617371   6.143   3.847   8.015  0.0000  0.0000  0.0000
16358TPSG   HA217372   8.586   0.304   8.049  0.0000  0.0000  0.0000
16358TPSG   CA217373   8.613   0.212   7.998  0.0000  0.0000  0.0000
16358TPSG   CA117374   8.638   0.093   8.068  0.0000  0.0000  0.0000
16358TPSG    Si17375   8.638   0.093   8.254  0.0000  0.0000  0.0000
16358TPSG   CA617376   8.679  -0.021   7.996  0.0000  0.0000  0.0000
16358TPSG   HH617377   8.694  -0.117   8.045  0.0000  0.0000  0.0000
16358TPSG   CA517378   8.702  -0.014   7.857  0.0000  0.0000  0.0000
16358TPSG   HA517379   8.734  -0.101   7.802  0.0000  0.0000  0.0000
16358TPSG   CA417380   8.679   0.107   7.789  0.0000  0.0000  0.0000
16358TPSG   HA417381   8.698   0.113   7.682  0.0000  0.0000  0.0000
16358TPSG   CA317382   8.632   0.219   7.859  0.0000  0.0000  0.0000
16358TPSG   HA317383   8.615   0.312   7.805  0.0000  0.0000  0.0000
16358TPSG    O117384   8.754   0.093   8.138  0.0000  0.0000  0.0000
16358TPSG    H617385   8.754   0.093   8.040  0.0000  0.0000  0.0000
16359TPSG   HA217386   7.359   0.506   8.042  0.0000  0.0000  0.0000
16359TPSG   CA217387   7.386   0.414   7.991  0.0000  0.0000  0.0000
16359TPSG   CA117388   7.411   0.295   8.061  0.0000  0.0000  0.0000
16359TPSG    Si17389   7.411   0.295   8.247  0.0000  0.0000  0.0000
16359TPSG   CA617390   7.452   0.181   7.989  0.0000  0.0000  0.0000
16359TPSG   HH617391   7.467   0.085   8.038  0.0000  0.0000  0.0000
16359TPSG   CA517392   7.475   0.188   7.850  0.0000  0.0000  0.0000
16359TPSG   HA517393   7.507   0.101   7.795  0.0000  0.0000  0.0000
16359TPSG   CA417394   7.452   0.309   7.782  0.0000  0.0000  0.0000
16359TPSG   HA417395   7.471   0.315   7.675  0.0000  0.0000  0.0000
16359TPSG   CA317396   7.405   0.421   7.852  0.0000  0.0000  0.0000
16359TPSG   HA317397   7.388   0.514   7.798  0.0000  0.0000  0.0000
16359TPSG    O117398   7.527   0.295   8.131  0.0000  0.0000  0.0000
16359TPSG    H617399   7.527   0.295   8.033  0.0000  0.0000  0.0000
16360TPSG   HA217400   3.614   8.257   1.602  0.0000  0.0000  0.0000
16360TPSG   CA217401   3.641   8.349   1.653  0.0000  0.0000  0.0000
16360TPSG   CA117402   3.666   8.468   1.583  0.0000  0.0000  0.0000
16360TPSG    Si17403   3.666   8.468   1.397  0.0000  0.0000  0.0000
16360TPSG   CA617404   3.707   8.582   1.655  0.0000  0.0000  0.0000
16360TPSG   HH617405   3.722   8.678   1.606  0.0000  0.0000  0.0000
16360TPSG   CA517406   3.730   8.575   1.794  0.0000  0.0000  0.0000
16360TPSG   HA517407   3.762   8.662   1.849  0.0000  0.0000  0.0000
16360TPSG   CA417408   3.707   8.454   1.862  0.0000  0.0000  0.0000
16360TPSG   HA417409   3.726   8.448   1.969  0.0000  0.0000  0.0000
16360TPSG   CA317410   3.660   8.342   1.792  0.0000  0.0000  0.0000
16360TPSG   HA317411   3.643   8.249   1.846  0.0000  0.0000  0.0000
16360TPSG    O117412   3.782   8.468   1.513  0.0000  0.0000  0.0000
16360TPSG    H617413   3.782   8.468   1.611  0.0000  0.0000  0.0000
16361TPSG   HA217414   1.601   6.123   1.632  0.0000  0.0000  0.0000
16361TPSG   CA217415   1.628   6.215   1.683  0.0000  0.0000  0.0000
16361TPSG   CA117416   1.653   6.334   1.613  0.0000  0.0000  0.0000
16361TPSG    Si17417   1.653   6.334   1.427  0.0000  0.0000  0.0000
16361TPSG   CA617418   1.694   6.448   1.685  0.0000  0.0000  0.0000
16361TPSG   HH617419   1.709   6.544   1.636  0.0000  0.0000  0.0000
16361TPSG   CA517420   1.717   6.441   1.824  0.0000  0.0000  0.0000
16361TPSG   HA517421   1.749   6.528   1.879  0.0000  0.0000  0.0000
16361TPSG   CA417422   1.694   6.320   1.892  0.0000  0.0000  0.0000
16361TPSG   HA417423   1.713   6.314   1.999  0.0000  0.0000  0.0000
16361TPSG   CA317424   1.647   6.208   1.822  0.0000  0.0000  0.0000
16361TPSG   HA317425   1.630   6.115   1.876  0.0000  0.0000  0.0000
16361TPSG    O117426   1.769   6.334   1.543  0.0000  0.0000  0.0000
16361TPSG    H617427   1.769   6.334   1.641  0.0000  0.0000  0.0000
16362TPSG   HA217428   4.433   3.795   1.463  0.0000  0.0000  0.0000
16362TPSG   CA217429   4.427   3.890   1.514  0.0000  0.0000  0.0000
16362TPSG   CA117430   4.410   4.011   1.444  0.0000  0.0000  0.0000
16362TPSG    Si17431   4.410   4.011   1.258  0.0000  0.0000  0.0000
16362TPSG   CA617432   4.410   4.132   1.516  0.0000  0.0000  0.0000
16362TPSG   HH617433   4.391   4.227   1.467  0.0000  0.0000  0.0000
16362TPSG   CA517434   4.433   4.133   1.655  0.0000  0.0000  0.0000
16362TPSG   HA517435   4.434   4.226   1.710  0.0000  0.0000  0.0000
16362TPSG   CA417436   4.453   4.012   1.723  0.0000  0.0000  0.0000
16362TPSG   HA417437   4.473   4.013   1.830  0.0000  0.0000  0.0000
16362TPSG   CA317438   4.447   3.891   1.653  0.0000  0.0000  0.0000
16362TPSG   HA317439   4.463   3.798   1.707  0.0000  0.0000  0.0000
16362TPSG    O117440   4.519   4.051   1.374  0.0000  0.0000  0.0000
16362TPSG    H617441   4.519   4.051   1.472  0.0000  0.0000  0.0000
16363TPSG   HA217442   8.821   4.703   8.033  0.0000  0.0000  0.0000
16363TPSG   CA217443   8.848   4.611   7.982  0.0000  0.0000  0.0000
16363TPSG   CA117444   8.873   4.492   8.052  0.0000  0.0000  0.0000
16363TPSG    Si17445   8.873   4.492   8.238  0.0000  0.0000  0.0000
16363TPSG   CA617446   8.914   4.378   7.980  0.0000  0.0000  0.0000
16363TPSG   HH617447   8.929   4.282   8.029  0.0000  0.0000  0.0000
16363TPSG   CA517448   8.937   4.385   7.841  0.0000  0.0000  0.0000
16363TPSG   HA517449   8.969   4.298   7.786  0.0000  0.0000  0.0000
16363TPSG   CA417450   8.914   4.506   7.773  0.0000  0.0000  0.0000
16363TPSG   HA417451   8.933   4.512   7.666  0.0000  0.0000  0.0000
16363TPSG   CA317452   8.867   4.618   7.843  0.0000  0.0000  0.0000
16363TPSG   HA317453   8.850   4.711   7.789  0.0000  0.0000  0.0000
16363TPSG    O117454   8.989   4.492   8.122  0.0000  0.0000  0.0000
16363TPSG    H617455   8.989   4.492   8.024  0.0000  0.0000  0.0000
16364TPSG   HA217456   6.798   1.799   8.036  0.0000  0.0000  0.0000
16364TPSG   CA217457   6.759   1.712   7.985  0.0000  0.0000  0.0000
16364TPSG   CA117458   6.702   1.604   8.055  0.0000  0.0000  0.0000
16364TPSG    Si17459   6.702   1.604   8.241  0.0000  0.0000  0.0000
16364TPSG   CA617460   6.660   1.490   7.983  0.0000  0.0000  0.0000
16364TPSG   HH617461   6.610   1.407   8.032  0.0000  0.0000  0.0000
16364TPSG   CA517462   6.682   1.482   7.844  0.0000  0.0000  0.0000
16364TPSG   HA517463   6.651   1.393   7.789  0.0000  0.0000  0.0000
16364TPSG   CA417464   6.742   1.588   7.776  0.0000  0.0000  0.0000
16364TPSG   HA417465   6.761   1.581   7.669  0.0000  0.0000  0.0000
16364TPSG   CA317466   6.778   1.704   7.846  0.0000  0.0000  0.0000
16364TPSG   HA317467   6.825   1.787   7.792  0.0000  0.0000  0.0000
16364TPSG    O117468   6.791   1.529   8.125  0.0000  0.0000  0.0000
16364TPSG    H617469   6.791   1.529   8.027  0.0000  0.0000  0.0000
16365TPSG   HA217470   2.184  -0.013   1.445  0.0000  0.0000  0.0000
16365TPSG   CA217471   2.211   0.079   1.496  0.0000  0.0000  0.0000
16365TPSG   CA117472   2.236   0.198   1.426  0.0000  0.0000  0.0000
16365TPSG    Si17473   2.236   0.198   1.240  0.0000  0.0000  0.0000
16365TPSG   CA617474   2.277   0.312   1.498  0.0000  0.0000  0.0000
16365TPSG   HH617475   2.292   0.408   1.449  0.0000  0.0000  0.0000
16365TPSG   CA517476   2.300   0.305   1.637  0.0000  0.0000  0.0000
16365TPSG   HA517477   2.332   0.392   1.692  0.0000  0.0000  0.0000
16365TPSG   CA417478   2.277   0.184   1.705  0.0000  0.0000  0.0000
16365TPSG   HA417479   2.296   0.178   1.812  0.0000  0.0000  0.0000
16365TPSG   CA317480   2.230   0.072   1.635  0.0000  0.0000  0.0000
16365TPSG   HA317481   2.213  -0.021   1.689  0.0000  0.0000  0.0000
16365TPSG    O117482   2.352   0.198   1.356  0.0000  0.0000  0.0000
16365TPSG    H617483   2.352   0.198   1.454  0.0000  0.0000  0.0000
16366TPSG   HA217484   7.426   5.173   8.173  0.0000  0.0000  0.0000
16366TPSG   CA217485   7.453   5.081   8.122  0.0000  0.0000  0.0000
16366TPSG   CA117486   7.478   4.962   8.192  0.0000  0.0000  0.0000
16366TPSG    Si17487   7.478   4.962   8.378  0.0000  0.0000  0.0000
16366TPSG   CA617488   7.519   4.848   8.120  0.0000  0.0000  0.0000
16366TPSG   HH617489   7.534   4.752   8.169  0.0000  0.0000  0.0000
16366TPSG   CA517490   7.542   4.855   7.981  0.0000  0.0000  0.0000
16366TPSG   HA517491   7.574   4.768   7.926  0.0000  0.0000  0.0000
16366TPSG   CA417492   7.519   4.976   7.913  0.0000  0.0000  0.0000
16366TPSG   HA417493   7.538   4.982   7.806  0.0000  0.0000  0.0000
16366TPSG   CA317494   7.472   5.088   7.983  0.0000  0.0000  0.0000
16366TPSG   HA317495   7.455   5.181   7.929  0.0000  0.0000  0.0000
16366TPSG    O117496   7.594   4.962   8.262  0.0000  0.0000  0.0000
16366TPSG    H617497   7.594   4.962   8.164  0.0000  0.0000  0.0000
16367TPSG   HA217498   2.565   7.281   1.516  0.0000  0.0000  0.0000
16367TPSG   CA217499   2.592   7.373   1.567  0.0000  0.0000  0.0000
16367TPSG   CA117500   2.617   7.492   1.497  0.0000  0.0000  0.0000
16367TPSG    Si17501   2.617   7.492   1.311  0.0000  0.0000  0.0000
16367TPSG   CA617502   2.658   7.606   1.569  0.0000  0.0000  0.0000
16367TPSG   HH617503   2.673   7.702   1.520  0.0000  0.0000  0.0000
16367TPSG   CA517504   2.681   7.599   1.708  0.0000  0.0000  0.0000
16367TPSG   HA517505   2.713   7.686   1.763  0.0000  0.0000  0.0000
16367TPSG   CA417506   2.658   7.478   1.776  0.0000  0.0000  0.0000
16367TPSG   HA417507   2.677   7.472   1.883  0.0000  0.0000  0.0000
16367TPSG   CA317508   2.611   7.366   1.706  0.0000  0.0000  0.0000
16367TPSG   HA317509   2.594   7.273   1.760  0.0000  0.0000  0.0000
16367TPSG    O117510   2.733   7.492   1.427  0.0000  0.0000  0.0000
16367TPSG    H617511   2.733   7.492   1.525  0.0000  0.0000  0.0000
16368TPSG   HA217512   4.625   7.976   1.612  0.0000  0.0000  0.0000
16368TPSG   CA217513   4.652   8.068   1.663  0.0000  0.0000  0.0000
16368TPSG   CA117514   4.677   8.187   1.593  0.0000  0.0000  0.0000
16368TPSG    Si17515   4.677   8.187   1.407  0.0000  0.0000  0.0000
16368TPSG   CA617516   4.718   8.301   1.665  0.0000  0.0000  0.0000
16368TPSG   HH617517   4.733   8.397   1.616  0.0000  0.0000  0.0000
16368TPSG   CA517518   4.741   8.294   1.804  0.0000  0.0000  0.0000
16368TPSG   HA517519   4.773   8.381   1.859  0.0000  0.0000  0.0000
16368TPSG   CA417520   4.718   8.173   1.872  0.0000  0.0000  0.0000
16368TPSG   HA417521   4.737   8.167   1.979  0.0000  0.0000  0.0000
16368TPSG   CA317522   4.671   8.061   1.802  0.0000  0.0000  0.0000
16368TPSG   HA317523   4.654   7.968   1.856  0.0000  0.0000  0.0000
16368TPSG    O117524   4.793   8.187   1.523  0.0000  0.0000  0.0000
16368TPSG    H617525   4.793   8.187   1.621  0.0000  0.0000  0.0000
16369TPSG   HA217526   3.141   9.208   1.605  0.0000  0.0000  0.0000
16369TPSG   CA217527   3.168   9.300   1.656  0.0000  0.0000  0.0000
16369TPSG   CA117528   3.193   9.419   1.586  0.0000  0.0000  0.0000
16369TPSG    Si17529   3.193   9.419   1.400  0.0000  0.0000  0.0000
16369TPSG   CA617530   3.234   9.533   1.658  0.0000  0.0000  0.0000
16369TPSG   HH617531   3.249   9.629   1.609  0.0000  0.0000  0.0000
16369TPSG   CA517532   3.257   9.526   1.797  0.0000  0.0000  0.0000
16369TPSG   HA517533   3.289   9.613   1.852  0.0000  0.0000  0.0000
16369TPSG   CA417534   3.234   9.405   1.865  0.0000  0.0000  0.0000
16369TPSG   HA417535   3.253   9.399   1.972  0.0000  0.0000  0.0000
16369TPSG   CA317536   3.187   9.293   1.795  0.0000  0.0000  0.0000
16369TPSG   HA317537   3.170   9.200   1.849  0.0000  0.0000  0.0000
16369TPSG    O117538   3.309   9.419   1.516  0.0000  0.0000  0.0000
16369TPSG    H617539   3.309   9.419   1.614  0.0000  0.0000  0.0000
16370TPSG   HA217540   4.459   7.528   8.108  0.0000  0.0000  0.0000
16370TPSG   CA217541   4.486   7.436   8.057  0.0000  0.0000  0.0000
16370TPSG   CA117542   4.511   7.317   8.127  0.0000  0.0000  0.0000
16370TPSG    Si17543   4.511   7.317   8.313  0.0000  0.0000  0.0000
16370TPSG   CA617544   4.552   7.203   8.055  0.0000  0.0000  0.0000
16370TPSG   HH617545   4.567   7.107   8.104  0.0000  0.0000  0.0000
16370TPSG   CA517546   4.575   7.210   7.916  0.0000  0.0000  0.0000
16370TPSG   HA517547   4.607   7.123   7.861  0.0000  0.0000  0.0000
16370TPSG   CA417548   4.552   7.331   7.848  0.0000  0.0000  0.0000
16370TPSG   HA417549   4.571   7.337   7.741  0.0000  0.0000  0.0000
16370TPSG   CA317550   4.505   7.443   7.918  0.0000  0.0000  0.0000
16370TPSG   HA317551   4.488   7.536   7.864  0.0000  0.0000  0.0000
16370TPSG    O117552   4.627   7.317   8.197  0.0000  0.0000  0.0000
16370TPSG    H617553   4.627   7.317   8.099  0.0000  0.0000  0.0000
16371TPSG   HA217554   7.794   4.410   7.997  0.0000  0.0000  0.0000
16371TPSG   CA217555   7.821   4.318   7.946  0.0000  0.0000  0.0000
16371TPSG   CA117556   7.846   4.199   8.016  0.0000  0.0000  0.0000
16371TPSG    Si17557   7.846   4.199   8.202  0.0000  0.0000  0.0000
16371TPSG   CA617558   7.887   4.085   7.944  0.0000  0.0000  0.0000
16371TPSG   HH617559   7.902   3.989   7.993  0.0000  0.0000  0.0000
16371TPSG   CA517560   7.910   4.092   7.805  0.0000  0.0000  0.0000
16371TPSG   HA517561   7.942   4.005   7.750  0.0000  0.0000  0.0000
16371TPSG   CA417562   7.887   4.213   7.737  0.0000  0.0000  0.0000
16371TPSG   HA417563   7.906   4.219   7.630  0.0000  0.0000  0.0000
16371TPSG   CA317564   7.840   4.325   7.807  0.0000  0.0000  0.0000
16371TPSG   HA317565   7.823   4.418   7.753  0.0000  0.0000  0.0000
16371TPSG    O117566   7.962   4.199   8.086  0.0000  0.0000  0.0000
16371TPSG    H617567   7.962   4.199   7.988  0.0000  0.0000  0.0000
16372TPSG   HA217568   2.088   0.862   1.505  0.0000  0.0000  0.0000
16372TPSG   CA217569   2.115   0.954   1.556  0.0000  0.0000  0.0000
16372TPSG   CA117570   2.140   1.073   1.486  0.0000  0.0000  0.0000
16372TPSG    Si17571   2.140   1.073   1.300  0.0000  0.0000  0.0000
16372TPSG   CA617572   2.181   1.187   1.558  0.0000  0.0000  0.0000
16372TPSG   HH617573   2.196   1.283   1.509  0.0000  0.0000  0.0000
16372TPSG   CA517574   2.204   1.180   1.697  0.0000  0.0000  0.0000
16372TPSG   HA517575   2.236   1.267   1.752  0.0000  0.0000  0.0000
16372TPSG   CA417576   2.181   1.059   1.765  0.0000  0.0000  0.0000
16372TPSG   HA417577   2.200   1.053   1.872  0.0000  0.0000  0.0000
16372TPSG   CA317578   2.134   0.947   1.695  0.0000  0.0000  0.0000
16372TPSG   HA317579   2.117   0.854   1.749  0.0000  0.0000  0.0000
16372TPSG    O117580   2.256   1.073   1.416  0.0000  0.0000  0.0000
16372TPSG    H617581   2.256   1.073   1.514  0.0000  0.0000  0.0000
16373TPSG   HA217582   5.900   2.496   8.062  0.0000  0.0000  0.0000
16373TPSG   CA217583   5.927   2.404   8.011  0.0000  0.0000  0.0000
16373TPSG   CA117584   5.952   2.285   8.081  0.0000  0.0000  0.0000
16373TPSG    Si17585   5.952   2.285   8.267  0.0000  0.0000  0.0000
16373TPSG   CA617586   5.993   2.171   8.009  0.0000  0.0000  0.0000
16373TPSG   HH617587   6.008   2.075   8.058  0.0000  0.0000  0.0000
16373TPSG   CA517588   6.016   2.178   7.870  0.0000  0.0000  0.0000
16373TPSG   HA517589   6.048   2.091   7.815  0.0000  0.0000  0.0000
16373TPSG   CA417590   5.993   2.299   7.802  0.0000  0.0000  0.0000
16373TPSG   HA417591   6.012   2.305   7.695  0.0000  0.0000  0.0000
16373TPSG   CA317592   5.946   2.411   7.872  0.0000  0.0000  0.0000
16373TPSG   HA317593   5.929   2.504   7.818  0.0000  0.0000  0.0000
16373TPSG    O117594   6.068   2.285   8.151  0.0000  0.0000  0.0000
16373TPSG    H617595   6.068   2.285   8.053  0.0000  0.0000  0.0000
16374TPSG   HA217596   4.232   6.656   1.629  0.0000  0.0000  0.0000
16374TPSG   CA217597   4.259   6.748   1.680  0.0000  0.0000  0.0000
16374TPSG   CA117598   4.284   6.867   1.610  0.0000  0.0000  0.0000
16374TPSG    Si17599   4.284   6.867   1.424  0.0000  0.0000  0.0000
16374TPSG   CA617600   4.325   6.981   1.682  0.0000  0.0000  0.0000
16374TPSG   HH617601   4.340   7.077   1.633  0.0000  0.0000  0.0000
16374TPSG   CA517602   4.348   6.974   1.821  0.0000  0.0000  0.0000
16374TPSG   HA517603   4.380   7.061   1.876  0.0000  0.0000  0.0000
16374TPSG   CA417604   4.325   6.853   1.889  0.0000  0.0000  0.0000
16374TPSG   HA417605   4.344   6.847   1.996  0.0000  0.0000  0.0000
16374TPSG   CA317606   4.278   6.741   1.819  0.0000  0.0000  0.0000
16374TPSG   HA317607   4.261   6.648   1.873  0.0000  0.0000  0.0000
16374TPSG    O117608   4.400   6.867   1.540  0.0000  0.0000  0.0000
16374TPSG    H617609   4.400   6.867   1.638  0.0000  0.0000  0.0000
16375TPSG   HA217610   4.668   1.320   1.596  0.0000  0.0000  0.0000
16375TPSG   CA217611   4.695   1.412   1.647  0.0000  0.0000  0.0000
16375TPSG   CA117612   4.720   1.531   1.577  0.0000  0.0000  0.0000
16375TPSG    Si17613   4.720   1.531   1.391  0.0000  0.0000  0.0000
16375TPSG   CA617614   4.761   1.645   1.649  0.0000  0.0000  0.0000
16375TPSG   HH617615   4.776   1.741   1.600  0.0000  0.0000  0.0000
16375TPSG   CA517616   4.784   1.638   1.788  0.0000  0.0000  0.0000
16375TPSG   HA517617   4.816   1.725   1.843  0.0000  0.0000  0.0000
16375TPSG   CA417618   4.761   1.517   1.856  0.0000  0.0000  0.0000
16375TPSG   HA417619   4.780   1.511   1.963  0.0000  0.0000  0.0000
16375TPSG   CA317620   4.714   1.405   1.786  0.0000  0.0000  0.0000
16375TPSG   HA317621   4.697   1.312   1.840  0.0000  0.0000  0.0000
16375TPSG    O117622   4.836   1.531   1.507  0.0000  0.0000  0.0000
16375TPSG    H617623   4.836   1.531   1.605  0.0000  0.0000  0.0000
16376TPSG   HA217624   7.486   1.109   8.018  0.0000  0.0000  0.0000
16376TPSG   CA217625   7.391   1.098   7.967  0.0000  0.0000  0.0000
16376TPSG   CA117626   7.269   1.094   8.037  0.0000  0.0000  0.0000
16376TPSG    Si17627   7.269   1.094   8.223  0.0000  0.0000  0.0000
16376TPSG   CA617628   7.149   1.073   7.965  0.0000  0.0000  0.0000
16376TPSG   HH617629   7.053   1.075   8.014  0.0000  0.0000  0.0000
16376TPSG   CA517630   7.153   1.050   7.826  0.0000  0.0000  0.0000
16376TPSG   HA517631   7.061   1.033   7.771  0.0000  0.0000  0.0000
16376TPSG   CA417632   7.275   1.051   7.758  0.0000  0.0000  0.0000
16376TPSG   HA417633   7.278   1.031   7.651  0.0000  0.0000  0.0000
16376TPSG   CA317634   7.394   1.078   7.828  0.0000  0.0000  0.0000
16376TPSG   HA317635   7.488   1.079   7.774  0.0000  0.0000  0.0000
16376TPSG    O117636   7.249   0.980   8.107  0.0000  0.0000  0.0000
16376TPSG    H617637   7.249   0.980   8.009  0.0000  0.0000  0.0000
16377TPSG   HA217638   6.104   3.117   8.065  0.0000  0.0000  0.0000
16377TPSG   CA217639   6.131   3.025   8.014  0.0000  0.0000  0.0000
16377TPSG   CA117640   6.156   2.906   8.084  0.0000  0.0000  0.0000
16377TPSG    Si17641   6.156   2.906   8.270  0.0000  0.0000  0.0000
16377TPSG   CA617642   6.197   2.792   8.012  0.0000  0.0000  0.0000
16377TPSG   HH617643   6.212   2.696   8.061  0.0000  0.0000  0.0000
16377TPSG   CA517644   6.220   2.799   7.873  0.0000  0.0000  0.0000
16377TPSG   HA517645   6.252   2.712   7.818  0.0000  0.0000  0.0000
16377TPSG   CA417646   6.197   2.920   7.805  0.0000  0.0000  0.0000
16377TPSG   HA417647   6.216   2.926   7.698  0.0000  0.0000  0.0000
16377TPSG   CA317648   6.150   3.032   7.875  0.0000  0.0000  0.0000
16377TPSG   HA317649   6.133   3.125   7.821  0.0000  0.0000  0.0000
16377TPSG    O117650   6.272   2.906   8.154  0.0000  0.0000  0.0000
16377TPSG    H617651   6.272   2.906   8.056  0.0000  0.0000  0.0000
16378TPSG   HA217652   6.784   6.098   1.605  0.0000  0.0000  0.0000
16378TPSG   CA217653   6.778   6.193   1.656  0.0000  0.0000  0.0000
16378TPSG   CA117654   6.761   6.314   1.586  0.0000  0.0000  0.0000
16378TPSG    Si17655   6.761   6.314   1.400  0.0000  0.0000  0.0000
16378TPSG   CA617656   6.761   6.435   1.658  0.0000  0.0000  0.0000
16378TPSG   HH617657   6.742   6.530   1.609  0.0000  0.0000  0.0000
16378TPSG   CA517658   6.784   6.436   1.797  0.0000  0.0000  0.0000
16378TPSG   HA517659   6.785   6.529   1.852  0.0000  0.0000  0.0000
16378TPSG   CA417660   6.804   6.315   1.865  0.0000  0.0000  0.0000
16378TPSG   HA417661   6.824   6.316   1.972  0.0000  0.0000  0.0000
16378TPSG   CA317662   6.798   6.194   1.795  0.0000  0.0000  0.0000
16378TPSG   HA317663   6.814   6.101   1.849  0.0000  0.0000  0.0000
16378TPSG    O117664   6.870   6.354   1.516  0.0000  0.0000  0.0000
16378TPSG    H617665   6.870   6.354   1.614  0.0000  0.0000  0.0000
16379TPSG   HA217666   6.482   5.372   1.561  0.0000  0.0000  0.0000
16379TPSG   CA217667   6.509   5.464   1.612  0.0000  0.0000  0.0000
16379TPSG   CA117668   6.534   5.583   1.542  0.0000  0.0000  0.0000
16379TPSG    Si17669   6.534   5.583   1.356  0.0000  0.0000  0.0000
16379TPSG   CA617670   6.575   5.697   1.614  0.0000  0.0000  0.0000
16379TPSG   HH617671   6.590   5.793   1.565  0.0000  0.0000  0.0000
16379TPSG   CA517672   6.598   5.690   1.753  0.0000  0.0000  0.0000
16379TPSG   HA517673   6.630   5.777   1.808  0.0000  0.0000  0.0000
16379TPSG   CA417674   6.575   5.569   1.821  0.0000  0.0000  0.0000
16379TPSG   HA417675   6.594   5.563   1.928  0.0000  0.0000  0.0000
16379TPSG   CA317676   6.528   5.457   1.751  0.0000  0.0000  0.0000
16379TPSG   HA317677   6.511   5.364   1.805  0.0000  0.0000  0.0000
16379TPSG    O117678   6.650   5.583   1.472  0.0000  0.0000  0.0000
16379TPSG    H617679   6.650   5.583   1.570  0.0000  0.0000  0.0000
16380TPSG   HA217680   6.640   7.272   1.639  0.0000  0.0000  0.0000
16380TPSG   CA217681   6.667   7.364   1.690  0.0000  0.0000  0.0000
16380TPSG   CA117682   6.692   7.483   1.620  0.0000  0.0000  0.0000
16380TPSG    Si17683   6.692   7.483   1.434  0.0000  0.0000  0.0000
16380TPSG   CA617684   6.733   7.597   1.692  0.0000  0.0000  0.0000
16380TPSG   HH617685   6.748   7.693   1.643  0.0000  0.0000  0.0000
16380TPSG   CA517686   6.756   7.590   1.831  0.0000  0.0000  0.0000
16380TPSG   HA517687   6.788   7.677   1.886  0.0000  0.0000  0.0000
16380TPSG   CA417688   6.733   7.469   1.899  0.0000  0.0000  0.0000
16380TPSG   HA417689   6.752   7.463   2.006  0.0000  0.0000  0.0000
16380TPSG   CA317690   6.686   7.357   1.829  0.0000  0.0000  0.0000
16380TPSG   HA317691   6.669   7.264   1.883  0.0000  0.0000  0.0000
16380TPSG    O117692   6.808   7.483   1.550  0.0000  0.0000  0.0000
16380TPSG    H617693   6.808   7.483   1.648  0.0000  0.0000  0.0000
16381TPSG   HA217694   2.335   9.506   8.003  0.0000  0.0000  0.0000
16381TPSG   CA217695   2.362   9.414   7.952  0.0000  0.0000  0.0000
16381TPSG   CA117696   2.387   9.295   8.022  0.0000  0.0000  0.0000
16381TPSG    Si17697   2.387   9.295   8.208  0.0000  0.0000  0.0000
16381TPSG   CA617698   2.428   9.181   7.950  0.0000  0.0000  0.0000
16381TPSG   HH617699   2.443   9.085   7.999  0.0000  0.0000  0.0000
16381TPSG   CA517700   2.451   9.188   7.811  0.0000  0.0000  0.0000
16381TPSG   HA517701   2.483   9.101   7.756  0.0000  0.0000  0.0000
16381TPSG   CA417702   2.428   9.309   7.743  0.0000  0.0000  0.0000
16381TPSG   HA417703   2.447   9.315   7.636  0.0000  0.0000  0.0000
16381TPSG   CA317704   2.381   9.421   7.813  0.0000  0.0000  0.0000
16381TPSG   HA317705   2.364   9.514   7.759  0.0000  0.0000  0.0000
16381TPSG    O117706   2.503   9.295   8.092  0.0000  0.0000  0.0000
16381TPSG    H617707   2.503   9.295   7.994  0.0000  0.0000  0.0000
16382TPSG   HA217708   0.291   2.175   1.567  0.0000  0.0000  0.0000
16382TPSG   CA217709   0.318   2.267   1.618  0.0000  0.0000  0.0000
16382TPSG   CA117710   0.343   2.386   1.548  0.0000  0.0000  0.0000
16382TPSG    Si17711   0.343   2.386   1.362  0.0000  0.0000  0.0000
16382TPSG   CA617712   0.384   2.500   1.620  0.0000  0.0000  0.0000
16382TPSG   HH617713   0.399   2.596   1.571  0.0000  0.0000  0.0000
16382TPSG   CA517714   0.407   2.493   1.759  0.0000  0.0000  0.0000
16382TPSG   HA517715   0.439   2.580   1.814  0.0000  0.0000  0.0000
16382TPSG   CA417716   0.384   2.372   1.827  0.0000  0.0000  0.0000
16382TPSG   HA417717   0.403   2.366   1.934  0.0000  0.0000  0.0000
16382TPSG   CA317718   0.337   2.260   1.757  0.0000  0.0000  0.0000
16382TPSG   HA317719   0.320   2.167   1.811  0.0000  0.0000  0.0000
16382TPSG    O117720   0.459   2.386   1.478  0.0000  0.0000  0.0000
16382TPSG    H617721   0.459   2.386   1.576  0.0000  0.0000  0.0000
16383TPSG   HA217722   8.109   9.355   1.603  0.0000  0.0000  0.0000
16383TPSG   CA217723   8.136   9.447   1.654  0.0000  0.0000  0.0000
16383TPSG   CA117724   8.161   9.566   1.584  0.0000  0.0000  0.0000
16383TPSG    Si17725   8.161   9.566   1.398  0.0000  0.0000  0.0000
16383TPSG   CA617726   8.202   9.680   1.656  0.0000  0.0000  0.0000
16383TPSG   HH617727   8.217   9.776   1.607  0.0000  0.0000  0.0000
16383TPSG   CA517728   8.225   9.673   1.795  0.0000  0.0000  0.0000
16383TPSG   HA517729   8.257   9.760   1.850  0.0000  0.0000  0.0000
16383TPSG   CA417730   8.202   9.552   1.863  0.0000  0.0000  0.0000
16383TPSG   HA417731   8.221   9.546   1.970  0.0000  0.0000  0.0000
16383TPSG   CA317732   8.155   9.440   1.793  0.0000  0.0000  0.0000
16383TPSG   HA317733   8.138   9.347   1.847  0.0000  0.0000  0.0000
16383TPSG    O117734   8.277   9.566   1.514  0.0000  0.0000  0.0000
16383TPSG    H617735   8.277   9.566   1.612  0.0000  0.0000  0.0000
16384TPSG   HA217736   5.845   8.307   1.577  0.0000  0.0000  0.0000
16384TPSG   CA217737   5.872   8.399   1.628  0.0000  0.0000  0.0000
16384TPSG   CA117738   5.897   8.518   1.558  0.0000  0.0000  0.0000
16384TPSG    Si17739   5.897   8.518   1.372  0.0000  0.0000  0.0000
16384TPSG   CA617740   5.938   8.632   1.630  0.0000  0.0000  0.0000
16384TPSG   HH617741   5.953   8.728   1.581  0.0000  0.0000  0.0000
16384TPSG   CA517742   5.961   8.625   1.769  0.0000  0.0000  0.0000
16384TPSG   HA517743   5.993   8.712   1.824  0.0000  0.0000  0.0000
16384TPSG   CA417744   5.938   8.504   1.837  0.0000  0.0000  0.0000
16384TPSG   HA417745   5.957   8.498   1.944  0.0000  0.0000  0.0000
16384TPSG   CA317746   5.891   8.392   1.767  0.0000  0.0000  0.0000
16384TPSG   HA317747   5.874   8.299   1.821  0.0000  0.0000  0.0000
16384TPSG    O117748   6.013   8.518   1.488  0.0000  0.0000  0.0000
16384TPSG    H617749   6.013   8.518   1.586  0.0000  0.0000  0.0000
16385TPSG   HA217750   5.545   0.895   1.605  0.0000  0.0000  0.0000
16385TPSG   CA217751   5.572   0.987   1.656  0.0000  0.0000  0.0000
16385TPSG   CA117752   5.597   1.106   1.586  0.0000  0.0000  0.0000
16385TPSG    Si17753   5.597   1.106   1.400  0.0000  0.0000  0.0000
16385TPSG   CA617754   5.638   1.220   1.658  0.0000  0.0000  0.0000
16385TPSG   HH617755   5.653   1.316   1.609  0.0000  0.0000  0.0000
16385TPSG   CA517756   5.661   1.213   1.797  0.0000  0.0000  0.0000
16385TPSG   HA517757   5.693   1.300   1.852  0.0000  0.0000  0.0000
16385TPSG   CA417758   5.638   1.092   1.865  0.0000  0.0000  0.0000
16385TPSG   HA417759   5.657   1.086   1.972  0.0000  0.0000  0.0000
16385TPSG   CA317760   5.591   0.980   1.795  0.0000  0.0000  0.0000
16385TPSG   HA317761   5.574   0.887   1.849  0.0000  0.0000  0.0000
16385TPSG    O117762   5.713   1.106   1.516  0.0000  0.0000  0.0000
16385TPSG    H617763   5.713   1.106   1.614  0.0000  0.0000  0.0000
16386TPSG   HA217764   0.018   0.790   8.069  0.0000  0.0000  0.0000
16386TPSG   CA217765   0.045   0.698   8.018  0.0000  0.0000  0.0000
16386TPSG   CA117766   0.070   0.579   8.088  0.0000  0.0000  0.0000
16386TPSG    Si17767   0.070   0.579   8.274  0.0000  0.0000  0.0000
16386TPSG   CA617768   0.111   0.465   8.016  0.0000  0.0000  0.0000
16386TPSG   HH617769   0.126   0.369   8.065  0.0000  0.0000  0.0000
16386TPSG   CA517770   0.134   0.472   7.877  0.0000  0.0000  0.0000
16386TPSG   HA517771   0.166   0.385   7.822  0.0000  0.0000  0.0000
16386TPSG   CA417772   0.111   0.593   7.809  0.0000  0.0000  0.0000
16386TPSG   HA417773   0.130   0.599   7.702  0.0000  0.0000  0.0000
16386TPSG   CA317774   0.064   0.705   7.879  0.0000  0.0000  0.0000
16386TPSG   HA317775   0.047   0.798   7.825  0.0000  0.0000  0.0000
16386TPSG    O117776   0.186   0.579   8.158  0.0000  0.0000  0.0000
16386TPSG    H617777   0.186   0.579   8.060  0.0000  0.0000  0.0000
16387TPSG   HA217778   9.454   1.879   1.592  0.0000  0.0000  0.0000
16387TPSG   CA217779   9.481   1.971   1.643  0.0000  0.0000  0.0000
16387TPSG   CA117780   9.506   2.090   1.573  0.0000  0.0000  0.0000
16387TPSG    Si17781   9.506   2.090   1.387  0.0000  0.0000  0.0000
16387TPSG   CA617782   9.547   2.204   1.645  0.0000  0.0000  0.0000
16387TPSG   HH617783   9.562   2.300   1.596  0.0000  0.0000  0.0000
16387TPSG   CA517784   9.570   2.197   1.784  0.0000  0.0000  0.0000
16387TPSG   HA517785   9.602   2.284   1.839  0.0000  0.0000  0.0000
16387TPSG   CA417786   9.547   2.076   1.852  0.0000  0.0000  0.0000
16387TPSG   HA417787   9.566   2.070   1.959  0.0000  0.0000  0.0000
16387TPSG   CA317788   9.500   1.964   1.782  0.0000  0.0000  0.0000
16387TPSG   HA317789   9.483   1.871   1.836  0.0000  0.0000  0.0000
16387TPSG    O117790   9.622   2.090   1.503  0.0000  0.0000  0.0000
16387TPSG    H617791   9.622   2.090   1.601  0.0000  0.0000  0.0000
16388TPSG   HA217792   7.591  -0.174   1.496  0.0000  0.0000  0.0000
16388TPSG   CA217793   7.618  -0.082   1.547  0.0000  0.0000  0.0000
16388TPSG   CA117794   7.643   0.037   1.477  0.0000  0.0000  0.0000
16388TPSG    Si17795   7.643   0.037   1.291  0.0000  0.0000  0.0000
16388TPSG   CA617796   7.684   0.151   1.549  0.0000  0.0000  0.0000
16388TPSG   HH617797   7.699   0.247   1.500  0.0000  0.0000  0.0000
16388TPSG   CA517798   7.707   0.144   1.688  0.0000  0.0000  0.0000
16388TPSG   HA517799   7.739   0.231   1.743  0.0000  0.0000  0.0000
16388TPSG   CA417800   7.684   0.023   1.756  0.0000  0.0000  0.0000
16388TPSG   HA417801   7.703   0.017   1.863  0.0000  0.0000  0.0000
16388TPSG   CA317802   7.637  -0.089   1.686  0.0000  0.0000  0.0000
16388TPSG   HA317803   7.620  -0.182   1.740  0.0000  0.0000  0.0000
16388TPSG    O117804   7.759   0.037   1.407  0.0000  0.0000  0.0000
16388TPSG    H617805   7.759   0.037   1.505  0.0000  0.0000  0.0000
16389TPSG   HA217806   3.961   7.570   1.636  0.0000  0.0000  0.0000
16389TPSG   CA217807   3.988   7.662   1.687  0.0000  0.0000  0.0000
16389TPSG   CA117808   4.013   7.781   1.617  0.0000  0.0000  0.0000
16389TPSG    Si17809   4.013   7.781   1.431  0.0000  0.0000  0.0000
16389TPSG   CA617810   4.054   7.895   1.689  0.0000  0.0000  0.0000
16389TPSG   HH617811   4.069   7.991   1.640  0.0000  0.0000  0.0000
16389TPSG   CA517812   4.077   7.888   1.828  0.0000  0.0000  0.0000
16389TPSG   HA517813   4.109   7.975   1.883  0.0000  0.0000  0.0000
16389TPSG   CA417814   4.054   7.767   1.896  0.0000  0.0000  0.0000
16389TPSG   HA417815   4.073   7.761   2.003  0.0000  0.0000  0.0000
16389TPSG   CA317816   4.007   7.655   1.826  0.0000  0.0000  0.0000
16389TPSG   HA317817   3.990   7.562   1.880  0.0000  0.0000  0.0000
16389TPSG    O117818   4.129   7.781   1.547  0.0000  0.0000  0.0000
16389TPSG    H617819   4.129   7.781   1.645  0.0000  0.0000  0.0000
16390TPSG   HA217820   6.193   1.614   8.117  0.0000  0.0000  0.0000
16390TPSG   CA217821   6.220   1.522   8.066  0.0000  0.0000  0.0000
16390TPSG   CA117822   6.245   1.403   8.136  0.0000  0.0000  0.0000
16390TPSG    Si17823   6.245   1.403   8.322  0.0000  0.0000  0.0000
16390TPSG   CA617824   6.286   1.289   8.064  0.0000  0.0000  0.0000
16390TPSG   HH617825   6.301   1.193   8.113  0.0000  0.0000  0.0000
16390TPSG   CA517826   6.309   1.296   7.925  0.0000  0.0000  0.0000
16390TPSG   HA517827   6.341   1.209   7.870  0.0000  0.0000  0.0000
16390TPSG   CA417828   6.286   1.417   7.857  0.0000  0.0000  0.0000
16390TPSG   HA417829   6.305   1.423   7.750  0.0000  0.0000  0.0000
16390TPSG   CA317830   6.239   1.529   7.927  0.0000  0.0000  0.0000
16390TPSG   HA317831   6.222   1.622   7.873  0.0000  0.0000  0.0000
16390TPSG    O117832   6.361   1.403   8.206  0.0000  0.0000  0.0000
16390TPSG    H617833   6.361   1.403   8.108  0.0000  0.0000  0.0000
16391TPSG   HA217834   3.802   6.467   8.098  0.0000  0.0000  0.0000
16391TPSG   CA217835   3.829   6.375   8.047  0.0000  0.0000  0.0000
16391TPSG   CA117836   3.854   6.256   8.117  0.0000  0.0000  0.0000
16391TPSG    Si17837   3.854   6.256   8.303  0.0000  0.0000  0.0000
16391TPSG   CA617838   3.895   6.142   8.045  0.0000  0.0000  0.0000
16391TPSG   HH617839   3.910   6.046   8.094  0.0000  0.0000  0.0000
16391TPSG   CA517840   3.918   6.149   7.906  0.0000  0.0000  0.0000
16391TPSG   HA517841   3.950   6.062   7.851  0.0000  0.0000  0.0000
16391TPSG   CA417842   3.895   6.270   7.838  0.0000  0.0000  0.0000
16391TPSG   HA417843   3.914   6.276   7.731  0.0000  0.0000  0.0000
16391TPSG   CA317844   3.848   6.382   7.908  0.0000  0.0000  0.0000
16391TPSG   HA317845   3.831   6.475   7.854  0.0000  0.0000  0.0000
16391TPSG    O117846   3.970   6.256   8.187  0.0000  0.0000  0.0000
16391TPSG    H617847   3.970   6.256   8.089  0.0000  0.0000  0.0000
16392TPSG   HA217848   0.790   4.478   7.980  0.0000  0.0000  0.0000
16392TPSG   CA217849   0.817   4.386   7.929  0.0000  0.0000  0.0000
16392TPSG   CA117850   0.842   4.267   7.999  0.0000  0.0000  0.0000
16392TPSG    Si17851   0.842   4.267   8.185  0.0000  0.0000  0.0000
16392TPSG   CA617852   0.883   4.153   7.927  0.0000  0.0000  0.0000
16392TPSG   HH617853   0.898   4.057   7.976  0.0000  0.0000  0.0000
16392TPSG   CA517854   0.906   4.160   7.788  0.0000  0.0000  0.0000
16392TPSG   HA517855   0.938   4.073   7.733  0.0000  0.0000  0.0000
16392TPSG   CA417856   0.883   4.281   7.720  0.0000  0.0000  0.0000
16392TPSG   HA417857   0.902   4.287   7.613  0.0000  0.0000  0.0000
16392TPSG   CA317858   0.836   4.393   7.790  0.0000  0.0000  0.0000
16392TPSG   HA317859   0.819   4.486   7.736  0.0000  0.0000  0.0000
16392TPSG    O117860   0.958   4.267   8.069  0.0000  0.0000  0.0000
16392TPSG    H617861   0.958   4.267   7.971  0.0000  0.0000  0.0000
16393TPSG   HA217862   9.366   3.477   8.056  0.0000  0.0000  0.0000
16393TPSG   CA217863   9.393   3.385   8.005  0.0000  0.0000  0.0000
16393TPSG   CA117864   9.418   3.266   8.075  0.0000  0.0000  0.0000
16393TPSG    Si17865   9.418   3.266   8.261  0.0000  0.0000  0.0000
16393TPSG   CA617866   9.459   3.152   8.003  0.0000  0.0000  0.0000
16393TPSG   HH617867   9.474   3.056   8.052  0.0000  0.0000  0.0000
16393TPSG   CA517868   9.482   3.159   7.864  0.0000  0.0000  0.0000
16393TPSG   HA517869   9.514   3.072   7.809  0.0000  0.0000  0.0000
16393TPSG   CA417870   9.459   3.280   7.796  0.0000  0.0000  0.0000
16393TPSG   HA417871   9.478   3.286   7.689  0.0000  0.0000  0.0000
16393TPSG   CA317872   9.412   3.392   7.866  0.0000  0.0000  0.0000
16393TPSG   HA317873   9.395   3.485   7.812  0.0000  0.0000  0.0000
16393TPSG    O117874   9.534   3.266   8.145  0.0000  0.0000  0.0000
16393TPSG    H617875   9.534   3.266   8.047  0.0000  0.0000  0.0000
16394TPSG   HA217876   4.682   9.191   7.997  0.0000  0.0000  0.0000
16394TPSG   CA217877   4.688   9.286   7.946  0.0000  0.0000  0.0000
16394TPSG   CA117878   4.705   9.407   8.016  0.0000  0.0000  0.0000
16394TPSG    Si17879   4.705   9.407   8.202  0.0000  0.0000  0.0000
16394TPSG   CA617880   4.705   9.528   7.944  0.0000  0.0000  0.0000
16394TPSG   HH617881   4.724   9.623   7.993  0.0000  0.0000  0.0000
16394TPSG   CA517882   4.682   9.529   7.805  0.0000  0.0000  0.0000
16394TPSG   HA517883   4.681   9.622   7.750  0.0000  0.0000  0.0000
16394TPSG   CA417884   4.662   9.408   7.737  0.0000  0.0000  0.0000
16394TPSG   HA417885   4.642   9.409   7.630  0.0000  0.0000  0.0000
16394TPSG   CA317886   4.668   9.287   7.807  0.0000  0.0000  0.0000
16394TPSG   HA317887   4.652   9.194   7.753  0.0000  0.0000  0.0000
16394TPSG    O117888   4.596   9.447   8.086  0.0000  0.0000  0.0000
16394TPSG    H617889   4.596   9.447   7.988  0.0000  0.0000  0.0000
16395TPSG   HA217890   3.230   2.375   1.540  0.0000  0.0000  0.0000
16395TPSG   CA217891   3.257   2.467   1.591  0.0000  0.0000  0.0000
16395TPSG   CA117892   3.282   2.586   1.521  0.0000  0.0000  0.0000
16395TPSG    Si17893   3.282   2.586   1.335  0.0000  0.0000  0.0000
16395TPSG   CA617894   3.323   2.700   1.593  0.0000  0.0000  0.0000
16395TPSG   HH617895   3.338   2.796   1.544  0.0000  0.0000  0.0000
16395TPSG   CA517896   3.346   2.693   1.732  0.0000  0.0000  0.0000
16395TPSG   HA517897   3.378   2.780   1.787  0.0000  0.0000  0.0000
16395TPSG   CA417898   3.323   2.572   1.800  0.0000  0.0000  0.0000
16395TPSG   HA417899   3.342   2.566   1.907  0.0000  0.0000  0.0000
16395TPSG   CA317900   3.276   2.460   1.730  0.0000  0.0000  0.0000
16395TPSG   HA317901   3.259   2.367   1.784  0.0000  0.0000  0.0000
16395TPSG    O117902   3.398   2.586   1.451  0.0000  0.0000  0.0000
16395TPSG    H617903   3.398   2.586   1.549  0.0000  0.0000  0.0000
16396TPSG   HA217904   2.245   3.716   1.555  0.0000  0.0000  0.0000
16396TPSG   CA217905   2.272   3.808   1.606  0.0000  0.0000  0.0000
16396TPSG   CA117906   2.297   3.927   1.536  0.0000  0.0000  0.0000
16396TPSG    Si17907   2.297   3.927   1.350  0.0000  0.0000  0.0000
16396TPSG   CA617908   2.338   4.041   1.608  0.0000  0.0000  0.0000
16396TPSG   HH617909   2.353   4.137   1.559  0.0000  0.0000  0.0000
16396TPSG   CA517910   2.361   4.034   1.747  0.0000  0.0000  0.0000
16396TPSG   HA517911   2.393   4.121   1.802  0.0000  0.0000  0.0000
16396TPSG   CA417912   2.338   3.913   1.815  0.0000  0.0000  0.0000
16396TPSG   HA417913   2.357   3.907   1.922  0.0000  0.0000  0.0000
16396TPSG   CA317914   2.291   3.801   1.745  0.0000  0.0000  0.0000
16396TPSG   HA317915   2.274   3.708   1.799  0.0000  0.0000  0.0000
16396TPSG    O117916   2.413   3.927   1.466  0.0000  0.0000  0.0000
16396TPSG    H617917   2.413   3.927   1.564  0.0000  0.0000  0.0000
16397TPSG   HA217918   6.643   8.457   8.083  0.0000  0.0000  0.0000
16397TPSG   CA217919   6.670   8.365   8.032  0.0000  0.0000  0.0000
16397TPSG   CA117920   6.695   8.246   8.102  0.0000  0.0000  0.0000
16397TPSG    Si17921   6.695   8.246   8.288  0.0000  0.0000  0.0000
16397TPSG   CA617922   6.736   8.132   8.030  0.0000  0.0000  0.0000
16397TPSG   HH617923   6.751   8.036   8.079  0.0000  0.0000  0.0000
16397TPSG   CA517924   6.759   8.139   7.891  0.0000  0.0000  0.0000
16397TPSG   HA517925   6.791   8.052   7.836  0.0000  0.0000  0.0000
16397TPSG   CA417926   6.736   8.260   7.823  0.0000  0.0000  0.0000
16397TPSG   HA417927   6.755   8.266   7.716  0.0000  0.0000  0.0000
16397TPSG   CA317928   6.689   8.372   7.893  0.0000  0.0000  0.0000
16397TPSG   HA317929   6.672   8.465   7.839  0.0000  0.0000  0.0000
16397TPSG    O117930   6.811   8.246   8.172  0.0000  0.0000  0.0000
16397TPSG    H617931   6.811   8.246   8.074  0.0000  0.0000  0.0000
16398TPSG   HA217932   2.642   7.682   8.015  0.0000  0.0000  0.0000
16398TPSG   CA217933   2.669   7.590   7.964  0.0000  0.0000  0.0000
16398TPSG   CA117934   2.694   7.471   8.034  0.0000  0.0000  0.0000
16398TPSG    Si17935   2.694   7.471   8.220  0.0000  0.0000  0.0000
16398TPSG   CA617936   2.735   7.357   7.962  0.0000  0.0000  0.0000
16398TPSG   HH617937   2.750   7.261   8.011  0.0000  0.0000  0.0000
16398TPSG   CA517938   2.758   7.364   7.823  0.0000  0.0000  0.0000
16398TPSG   HA517939   2.790   7.277   7.768  0.0000  0.0000  0.0000
16398TPSG   CA417940   2.735   7.485   7.755  0.0000  0.0000  0.0000
16398TPSG   HA417941   2.754   7.491   7.648  0.0000  0.0000  0.0000
16398TPSG   CA317942   2.688   7.597   7.825  0.0000  0.0000  0.0000
16398TPSG   HA317943   2.671   7.690   7.771  0.0000  0.0000  0.0000
16398TPSG    O117944   2.810   7.471   8.104  0.0000  0.0000  0.0000
16398TPSG    H617945   2.810   7.471   8.006  0.0000  0.0000  0.0000
16399TPSG   HA217946   9.537   9.016   1.622  0.0000  0.0000  0.0000
16399TPSG   CA217947   9.564   9.108   1.673  0.0000  0.0000  0.0000
16399TPSG   CA117948   9.589   9.227   1.603  0.0000  0.0000  0.0000
16399TPSG    Si17949   9.589   9.227   1.417  0.0000  0.0000  0.0000
16399TPSG   CA617950   9.630   9.341   1.675  0.0000  0.0000  0.0000
16399TPSG   HH617951   9.645   9.437   1.626  0.0000  0.0000  0.0000
16399TPSG   CA517952   9.653   9.334   1.814  0.0000  0.0000  0.0000
16399TPSG   HA517953   9.685   9.421   1.869  0.0000  0.0000  0.0000
16399TPSG   CA417954   9.630   9.213   1.882  0.0000  0.0000  0.0000
16399TPSG   HA417955   9.649   9.207   1.989  0.0000  0.0000  0.0000
16399TPSG   CA317956   9.583   9.101   1.812  0.0000  0.0000  0.0000
16399TPSG   HA317957   9.566   9.008   1.866  0.0000  0.0000  0.0000
16399TPSG    O117958   9.705   9.227   1.533  0.0000  0.0000  0.0000
16399TPSG    H617959   9.705   9.227   1.631  0.0000  0.0000  0.0000
16400TPSG   HA217960   5.525   8.831   7.955  0.0000  0.0000  0.0000
16400TPSG   CA217961   5.552   8.739   7.904  0.0000  0.0000  0.0000
16400TPSG   CA117962   5.577   8.620   7.974  0.0000  0.0000  0.0000
16400TPSG    Si17963   5.577   8.620   8.160  0.0000  0.0000  0.0000
16400TPSG   CA617964   5.618   8.506   7.902  0.0000  0.0000  0.0000
16400TPSG   HH617965   5.633   8.410   7.951  0.0000  0.0000  0.0000
16400TPSG   CA517966   5.641   8.513   7.763  0.0000  0.0000  0.0000
16400TPSG   HA517967   5.673   8.426   7.708  0.0000  0.0000  0.0000
16400TPSG   CA417968   5.618   8.634   7.695  0.0000  0.0000  0.0000
16400TPSG   HA417969   5.637   8.640   7.588  0.0000  0.0000  0.0000
16400TPSG   CA317970   5.571   8.746   7.765  0.0000  0.0000  0.0000
16400TPSG   HA317971   5.554   8.839   7.711  0.0000  0.0000  0.0000
16400TPSG    O117972   5.693   8.620   8.044  0.0000  0.0000  0.0000
16400TPSG    H617973   5.693   8.620   7.946  0.0000  0.0000  0.0000
16401TPSG   HA217974   6.136   3.523   1.621  0.0000  0.0000  0.0000
16401TPSG   CA217975   6.163   3.615   1.672  0.0000  0.0000  0.0000
16401TPSG   CA117976   6.188   3.734   1.602  0.0000  0.0000  0.0000
16401TPSG    Si17977   6.188   3.734   1.416  0.0000  0.0000  0.0000
16401TPSG   CA617978   6.229   3.848   1.674  0.0000  0.0000  0.0000
16401TPSG   HH617979   6.244   3.944   1.625  0.0000  0.0000  0.0000
16401TPSG   CA517980   6.252   3.841   1.813  0.0000  0.0000  0.0000
16401TPSG   HA517981   6.284   3.928   1.868  0.0000  0.0000  0.0000
16401TPSG   CA417982   6.229   3.720   1.881  0.0000  0.0000  0.0000
16401TPSG   HA417983   6.248   3.714   1.988  0.0000  0.0000  0.0000
16401TPSG   CA317984   6.182   3.608   1.811  0.0000  0.0000  0.0000
16401TPSG   HA317985   6.165   3.515   1.865  0.0000  0.0000  0.0000
16401TPSG    O117986   6.304   3.734   1.532  0.0000  0.0000  0.0000
16401TPSG    H617987   6.304   3.734   1.630  0.0000  0.0000  0.0000
16402TPSG   HA217988   0.019   6.542   1.624  0.0000  0.0000  0.0000
16402TPSG   CA217989   0.046   6.634   1.675  0.0000  0.0000  0.0000
16402TPSG   CA117990   0.071   6.753   1.605  0.0000  0.0000  0.0000
16402TPSG    Si17991   0.071   6.753   1.419  0.0000  0.0000  0.0000
16402TPSG   CA617992   0.112   6.867   1.677  0.0000  0.0000  0.0000
16402TPSG   HH617993   0.127   6.963   1.628  0.0000  0.0000  0.0000
16402TPSG   CA517994   0.135   6.860   1.816  0.0000  0.0000  0.0000
16402TPSG   HA517995   0.167   6.947   1.871  0.0000  0.0000  0.0000
16402TPSG   CA417996   0.112   6.739   1.884  0.0000  0.0000  0.0000
16402TPSG   HA417997   0.131   6.733   1.991  0.0000  0.0000  0.0000
16402TPSG   CA317998   0.065   6.627   1.814  0.0000  0.0000  0.0000
16402TPSG   HA317999   0.048   6.534   1.868  0.0000  0.0000  0.0000
16402TPSG    O118000   0.187   6.753   1.535  0.0000  0.0000  0.0000
16402TPSG    H618001   0.187   6.753   1.633  0.0000  0.0000  0.0000
16403TPSG   HA218002   7.761   0.243   1.646  0.0000  0.0000  0.0000
16403TPSG   CA218003   7.788   0.335   1.697  0.0000  0.0000  0.0000
16403TPSG   CA118004   7.813   0.454   1.627  0.0000  0.0000  0.0000
16403TPSG    Si18005   7.813   0.454   1.441  0.0000  0.0000  0.0000
16403TPSG   CA618006   7.854   0.568   1.699  0.0000  0.0000  0.0000
16403TPSG   HH618007   7.869   0.664   1.650  0.0000  0.0000  0.0000
16403TPSG   CA518008   7.877   0.561   1.838  0.0000  0.0000  0.0000
16403TPSG   HA518009   7.909   0.648   1.893  0.0000  0.0000  0.0000
16403TPSG   CA418010   7.854   0.440   1.906  0.0000  0.0000  0.0000
16403TPSG   HA418011   7.873   0.434   2.013  0.0000  0.0000  0.0000
16403TPSG   CA318012   7.807   0.328   1.836  0.0000  0.0000  0.0000
16403TPSG   HA318013   7.790   0.235   1.890  0.0000  0.0000  0.0000
16403TPSG    O118014   7.929   0.454   1.557  0.0000  0.0000  0.0000
16403TPSG    H618015   7.929   0.454   1.655  0.0000  0.0000  0.0000
16404TPSG   HA218016   8.828   2.291   8.008  0.0000  0.0000  0.0000
16404TPSG   CA218017   8.855   2.199   7.957  0.0000  0.0000  0.0000
16404TPSG   CA118018   8.880   2.080   8.027  0.0000  0.0000  0.0000
16404TPSG    Si18019   8.880   2.080   8.213  0.0000  0.0000  0.0000
16404TPSG   CA618020   8.921   1.966   7.955  0.0000  0.0000  0.0000
16404TPSG   HH618021   8.936   1.870   8.004  0.0000  0.0000  0.0000
16404TPSG   CA518022   8.944   1.973   7.816  0.0000  0.0000  0.0000
16404TPSG   HA518023   8.976   1.886   7.761  0.0000  0.0000  0.0000
16404TPSG   CA418024   8.921   2.094   7.748  0.0000  0.0000  0.0000
16404TPSG   HA418025   8.940   2.100   7.641  0.0000  0.0000  0.0000
16404TPSG   CA318026   8.874   2.206   7.818  0.0000  0.0000  0.0000
16404TPSG   HA318027   8.857   2.299   7.764  0.0000  0.0000  0.0000
16404TPSG    O118028   8.996   2.080   8.097  0.0000  0.0000  0.0000
16404TPSG    H618029   8.996   2.080   7.999  0.0000  0.0000  0.0000
16405TPSG   HA218030   5.024   7.768   1.573  0.0000  0.0000  0.0000
16405TPSG   CA218031   5.018   7.863   1.624  0.0000  0.0000  0.0000
16405TPSG   CA118032   5.001   7.984   1.554  0.0000  0.0000  0.0000
16405TPSG    Si18033   5.001   7.984   1.368  0.0000  0.0000  0.0000
16405TPSG   CA618034   5.001   8.105   1.626  0.0000  0.0000  0.0000
16405TPSG   HH618035   4.982   8.200   1.577  0.0000  0.0000  0.0000
16405TPSG   CA518036   5.024   8.106   1.765  0.0000  0.0000  0.0000
16405TPSG   HA518037   5.025   8.199   1.820  0.0000  0.0000  0.0000
16405TPSG   CA418038   5.044   7.985   1.833  0.0000  0.0000  0.0000
16405TPSG   HA418039   5.064   7.986   1.940  0.0000  0.0000  0.0000
16405TPSG   CA318040   5.038   7.864   1.763  0.0000  0.0000  0.0000
16405TPSG   HA318041   5.054   7.771   1.817  0.0000  0.0000  0.0000
16405TPSG    O118042   5.110   8.024   1.484  0.0000  0.0000  0.0000
16405TPSG    H618043   5.110   8.024   1.582  0.0000  0.0000  0.0000
16406TPSG   HA218044   2.028   4.242   1.537  0.0000  0.0000  0.0000
16406TPSG   CA218045   2.055   4.334   1.588  0.0000  0.0000  0.0000
16406TPSG   CA118046   2.080   4.453   1.518  0.0000  0.0000  0.0000
16406TPSG    Si18047   2.080   4.453   1.332  0.0000  0.0000  0.0000
16406TPSG   CA618048   2.121   4.567   1.590  0.0000  0.0000  0.0000
16406TPSG   HH618049   2.136   4.663   1.541  0.0000  0.0000  0.0000
16406TPSG   CA518050   2.144   4.560   1.729  0.0000  0.0000  0.0000
16406TPSG   HA518051   2.176   4.647   1.784  0.0000  0.0000  0.0000
16406TPSG   CA418052   2.121   4.439   1.797  0.0000  0.0000  0.0000
16406TPSG   HA418053   2.140   4.433   1.904  0.0000  0.0000  0.0000
16406TPSG   CA318054   2.074   4.327   1.727  0.0000  0.0000  0.0000
16406TPSG   HA318055   2.057   4.234   1.781  0.0000  0.0000  0.0000
16406TPSG    O118056   2.196   4.453   1.448  0.0000  0.0000  0.0000
16406TPSG    H618057   2.196   4.453   1.546  0.0000  0.0000  0.0000
16407TPSG   HA218058   5.122   8.243   1.556  0.0000  0.0000  0.0000
16407TPSG   CA218059   5.149   8.335   1.607  0.0000  0.0000  0.0000
16407TPSG   CA118060   5.174   8.454   1.537  0.0000  0.0000  0.0000
16407TPSG    Si18061   5.174   8.454   1.351  0.0000  0.0000  0.0000
16407TPSG   CA618062   5.215   8.568   1.609  0.0000  0.0000  0.0000
16407TPSG   HH618063   5.230   8.664   1.560  0.0000  0.0000  0.0000
16407TPSG   CA518064   5.238   8.561   1.748  0.0000  0.0000  0.0000
16407TPSG   HA518065   5.270   8.648   1.803  0.0000  0.0000  0.0000
16407TPSG   CA418066   5.215   8.440   1.816  0.0000  0.0000  0.0000
16407TPSG   HA418067   5.234   8.434   1.923  0.0000  0.0000  0.0000
16407TPSG   CA318068   5.168   8.328   1.746  0.0000  0.0000  0.0000
16407TPSG   HA318069   5.151   8.235   1.800  0.0000  0.0000  0.0000
16407TPSG    O118070   5.290   8.454   1.467  0.0000  0.0000  0.0000
16407TPSG    H618071   5.290   8.454   1.565  0.0000  0.0000  0.0000
16408TPSG   HA218072   2.683  -0.063   1.529  0.0000  0.0000  0.0000
16408TPSG   CA218073   2.710   0.029   1.580  0.0000  0.0000  0.0000
16408TPSG   CA118074   2.735   0.148   1.510  0.0000  0.0000  0.0000
16408TPSG    Si18075   2.735   0.148   1.324  0.0000  0.0000  0.0000
16408TPSG   CA618076   2.776   0.262   1.582  0.0000  0.0000  0.0000
16408TPSG   HH618077   2.791   0.358   1.533  0.0000  0.0000  0.0000
16408TPSG   CA518078   2.799   0.255   1.721  0.0000  0.0000  0.0000
16408TPSG   HA518079   2.831   0.342   1.776  0.0000  0.0000  0.0000
16408TPSG   CA418080   2.776   0.134   1.789  0.0000  0.0000  0.0000
16408TPSG   HA418081   2.795   0.128   1.896  0.0000  0.0000  0.0000
16408TPSG   CA318082   2.729   0.022   1.719  0.0000  0.0000  0.0000
16408TPSG   HA318083   2.712  -0.071   1.773  0.0000  0.0000  0.0000
16408TPSG    O118084   2.851   0.148   1.440  0.0000  0.0000  0.0000
16408TPSG    H618085   2.851   0.148   1.538  0.0000  0.0000  0.0000
16409TPSG   HA218086   8.124   2.540   8.008  0.0000  0.0000  0.0000
16409TPSG   CA218087   8.151   2.448   7.957  0.0000  0.0000  0.0000
16409TPSG   CA118088   8.176   2.329   8.027  0.0000  0.0000  0.0000
16409TPSG    Si18089   8.176   2.329   8.213  0.0000  0.0000  0.0000
16409TPSG   CA618090   8.217   2.215   7.955  0.0000  0.0000  0.0000
16409TPSG   HH618091   8.232   2.119   8.004  0.0000  0.0000  0.0000
16409TPSG   CA518092   8.240   2.222   7.816  0.0000  0.0000  0.0000
16409TPSG   HA518093   8.272   2.135   7.761  0.0000  0.0000  0.0000
16409TPSG   CA418094   8.217   2.343   7.748  0.0000  0.0000  0.0000
16409TPSG   HA418095   8.236   2.349   7.641  0.0000  0.0000  0.0000
16409TPSG   CA318096   8.170   2.455   7.818  0.0000  0.0000  0.0000
16409TPSG   HA318097   8.153   2.548   7.764  0.0000  0.0000  0.0000
16409TPSG    O118098   8.292   2.329   8.097  0.0000  0.0000  0.0000
16409TPSG    H618099   8.292   2.329   7.999  0.0000  0.0000  0.0000
16410TPSG   HA218100   9.269   1.376   7.983  0.0000  0.0000  0.0000
16410TPSG   CA218101   9.296   1.284   7.932  0.0000  0.0000  0.0000
16410TPSG   CA118102   9.321   1.165   8.002  0.0000  0.0000  0.0000
16410TPSG    Si18103   9.321   1.165   8.188  0.0000  0.0000  0.0000
16410TPSG   CA618104   9.362   1.051   7.930  0.0000  0.0000  0.0000
16410TPSG   HH618105   9.377   0.955   7.979  0.0000  0.0000  0.0000
16410TPSG   CA518106   9.385   1.058   7.791  0.0000  0.0000  0.0000
16410TPSG   HA518107   9.417   0.971   7.736  0.0000  0.0000  0.0000
16410TPSG   CA418108   9.362   1.179   7.723  0.0000  0.0000  0.0000
16410TPSG   HA418109   9.381   1.185   7.616  0.0000  0.0000  0.0000
16410TPSG   CA318110   9.315   1.291   7.793  0.0000  0.0000  0.0000
16410TPSG   HA318111   9.298   1.384   7.739  0.0000  0.0000  0.0000
16410TPSG    O118112   9.437   1.165   8.072  0.0000  0.0000  0.0000
16410TPSG    H618113   9.437   1.165   7.974  0.0000  0.0000  0.0000
16411TPSG   HA218114   5.774   1.966   8.064  0.0000  0.0000  0.0000
16411TPSG   CA218115   5.801   1.874   8.013  0.0000  0.0000  0.0000
16411TPSG   CA118116   5.826   1.755   8.083  0.0000  0.0000  0.0000
16411TPSG    Si18117   5.826   1.755   8.269  0.0000  0.0000  0.0000
16411TPSG   CA618118   5.867   1.641   8.011  0.0000  0.0000  0.0000
16411TPSG   HH618119   5.882   1.545   8.060  0.0000  0.0000  0.0000
16411TPSG   CA518120   5.890   1.648   7.872  0.0000  0.0000  0.0000
16411TPSG   HA518121   5.922   1.561   7.817  0.0000  0.0000  0.0000
16411TPSG   CA418122   5.867   1.769   7.804  0.0000  0.0000  0.0000
16411TPSG   HA418123   5.886   1.775   7.697  0.0000  0.0000  0.0000
16411TPSG   CA318124   5.820   1.881   7.874  0.0000  0.0000  0.0000
16411TPSG   HA318125   5.803   1.974   7.820  0.0000  0.0000  0.0000
16411TPSG    O118126   5.942   1.755   8.153  0.0000  0.0000  0.0000
16411TPSG    H618127   5.942   1.755   8.055  0.0000  0.0000  0.0000
16412TPSG   HA218128   6.309   2.248   1.605  0.0000  0.0000  0.0000
16412TPSG   CA218129   6.336   2.340   1.656  0.0000  0.0000  0.0000
16412TPSG   CA118130   6.361   2.459   1.586  0.0000  0.0000  0.0000
16412TPSG    Si18131   6.361   2.459   1.400  0.0000  0.0000  0.0000
16412TPSG   CA618132   6.402   2.573   1.658  0.0000  0.0000  0.0000
16412TPSG   HH618133   6.417   2.669   1.609  0.0000  0.0000  0.0000
16412TPSG   CA518134   6.425   2.566   1.797  0.0000  0.0000  0.0000
16412TPSG   HA518135   6.457   2.653   1.852  0.0000  0.0000  0.0000
16412TPSG   CA418136   6.402   2.445   1.865  0.0000  0.0000  0.0000
16412TPSG   HA418137   6.421   2.439   1.972  0.0000  0.0000  0.0000
16412TPSG   CA318138   6.355   2.333   1.795  0.0000  0.0000  0.0000
16412TPSG   HA318139   6.338   2.240   1.849  0.0000  0.0000  0.0000
16412TPSG    O118140   6.477   2.459   1.516  0.0000  0.0000  0.0000
16412TPSG    H618141   6.477   2.459   1.614  0.0000  0.0000  0.0000
16413TPSG   HA218142   2.149   2.772   1.566  0.0000  0.0000  0.0000
16413TPSG   CA218143   2.176   2.864   1.617  0.0000  0.0000  0.0000
16413TPSG   CA118144   2.201   2.983   1.547  0.0000  0.0000  0.0000
16413TPSG    Si18145   2.201   2.983   1.361  0.0000  0.0000  0.0000
16413TPSG   CA618146   2.242   3.097   1.619  0.0000  0.0000  0.0000
16413TPSG   HH618147   2.257   3.193   1.570  0.0000  0.0000  0.0000
16413TPSG   CA518148   2.265   3.090   1.758  0.0000  0.0000  0.0000
16413TPSG   HA518149   2.297   3.177   1.813  0.0000  0.0000  0.0000
16413TPSG   CA418150   2.242   2.969   1.826  0.0000  0.0000  0.0000
16413TPSG   HA418151   2.261   2.963   1.933  0.0000  0.0000  0.0000
16413TPSG   CA318152   2.195   2.857   1.756  0.0000  0.0000  0.0000
16413TPSG   HA318153   2.178   2.764   1.810  0.0000  0.0000  0.0000
16413TPSG    O118154   2.317   2.983   1.477  0.0000  0.0000  0.0000
16413TPSG    H618155   2.317   2.983   1.575  0.0000  0.0000  0.0000
16414TPSG   HA218156   1.906   6.486   1.616  0.0000  0.0000  0.0000
16414TPSG   CA218157   1.840   6.554   1.667  0.0000  0.0000  0.0000
16414TPSG   CA118158   1.749   6.636   1.597  0.0000  0.0000  0.0000
16414TPSG    Si18159   1.749   6.636   1.411  0.0000  0.0000  0.0000
16414TPSG   CA618160   1.671   6.729   1.669  0.0000  0.0000  0.0000
16414TPSG   HH618161   1.596   6.790   1.620  0.0000  0.0000  0.0000
16414TPSG   CA518162   1.688   6.744   1.808  0.0000  0.0000  0.0000
16414TPSG   HA518163   1.629   6.816   1.863  0.0000  0.0000  0.0000
16414TPSG   CA418164   1.781   6.665   1.876  0.0000  0.0000  0.0000
16414TPSG   HA418165   1.796   6.678   1.983  0.0000  0.0000  0.0000
16414TPSG   CA318166   1.855   6.568   1.806  0.0000  0.0000  0.0000
16414TPSG   HA318167   1.927   6.506   1.860  0.0000  0.0000  0.0000
16414TPSG    O118168   1.807   6.736   1.527  0.0000  0.0000  0.0000
16414TPSG    H618169   1.807   6.736   1.625  0.0000  0.0000  0.0000
16415TPSG   HA218170   3.753   1.384   8.013  0.0000  0.0000  0.0000
16415TPSG   CA218171   3.780   1.292   7.962  0.0000  0.0000  0.0000
16415TPSG   CA118172   3.805   1.173   8.032  0.0000  0.0000  0.0000
16415TPSG    Si18173   3.805   1.173   8.218  0.0000  0.0000  0.0000
16415TPSG   CA618174   3.846   1.059   7.960  0.0000  0.0000  0.0000
16415TPSG   HH618175   3.861   0.963   8.009  0.0000  0.0000  0.0000
16415TPSG   CA518176   3.869   1.066   7.821  0.0000  0.0000  0.0000
16415TPSG   HA518177   3.901   0.979   7.766  0.0000  0.0000  0.0000
16415TPSG   CA418178   3.846   1.187   7.753  0.0000  0.0000  0.0000
16415TPSG   HA418179   3.865   1.193   7.646  0.0000  0.0000  0.0000
16415TPSG   CA318180   3.799   1.299   7.823  0.0000  0.0000  0.0000
16415TPSG   HA318181   3.782   1.392   7.769  0.0000  0.0000  0.0000
16415TPSG    O118182   3.921   1.173   8.102  0.0000  0.0000  0.0000
16415TPSG    H618183   3.921   1.173   8.004  0.0000  0.0000  0.0000
16416TPSG   HA218184   3.238   6.069   1.587  0.0000  0.0000  0.0000
16416TPSG   CA218185   3.265   6.161   1.638  0.0000  0.0000  0.0000
16416TPSG   CA118186   3.290   6.280   1.568  0.0000  0.0000  0.0000
16416TPSG    Si18187   3.290   6.280   1.382  0.0000  0.0000  0.0000
16416TPSG   CA618188   3.331   6.394   1.640  0.0000  0.0000  0.0000
16416TPSG   HH618189   3.346   6.490   1.591  0.0000  0.0000  0.0000
16416TPSG   CA518190   3.354   6.387   1.779  0.0000  0.0000  0.0000
16416TPSG   HA518191   3.386   6.474   1.834  0.0000  0.0000  0.0000
16416TPSG   CA418192   3.331   6.266   1.847  0.0000  0.0000  0.0000
16416TPSG   HA418193   3.350   6.260   1.954  0.0000  0.0000  0.0000
16416TPSG   CA318194   3.284   6.154   1.777  0.0000  0.0000  0.0000
16416TPSG   HA318195   3.267   6.061   1.831  0.0000  0.0000  0.0000
16416TPSG    O118196   3.406   6.280   1.498  0.0000  0.0000  0.0000
16416TPSG    H618197   3.406   6.280   1.596  0.0000  0.0000  0.0000
16417TPSG   HA218198   5.048   2.132   7.948  0.0000  0.0000  0.0000
16417TPSG   CA218199   5.075   2.040   7.897  0.0000  0.0000  0.0000
16417TPSG   CA118200   5.100   1.921   7.967  0.0000  0.0000  0.0000
16417TPSG    Si18201   5.100   1.921   8.153  0.0000  0.0000  0.0000
16417TPSG   CA618202   5.141   1.807   7.895  0.0000  0.0000  0.0000
16417TPSG   HH618203   5.156   1.711   7.944  0.0000  0.0000  0.0000
16417TPSG   CA518204   5.164   1.814   7.756  0.0000  0.0000  0.0000
16417TPSG   HA518205   5.196   1.727   7.701  0.0000  0.0000  0.0000
16417TPSG   CA418206   5.141   1.935   7.688  0.0000  0.0000  0.0000
16417TPSG   HA418207   5.160   1.941   7.581  0.0000  0.0000  0.0000
16417TPSG   CA318208   5.094   2.047   7.758  0.0000  0.0000  0.0000
16417TPSG   HA318209   5.077   2.140   7.704  0.0000  0.0000  0.0000
16417TPSG    O118210   5.216   1.921   8.037  0.0000  0.0000  0.0000
16417TPSG    H618211   5.216   1.921   7.939  0.0000  0.0000  0.0000
16418TPSG   HA218212   4.529   3.098   1.476  0.0000  0.0000  0.0000
16418TPSG   CA218213   4.556   3.190   1.527  0.0000  0.0000  0.0000
16418TPSG   CA118214   4.581   3.309   1.457  0.0000  0.0000  0.0000
16418TPSG    Si18215   4.581   3.309   1.271  0.0000  0.0000  0.0000
16418TPSG   CA618216   4.622   3.423   1.529  0.0000  0.0000  0.0000
16418TPSG   HH618217   4.637   3.519   1.480  0.0000  0.0000  0.0000
16418TPSG   CA518218   4.645   3.416   1.668  0.0000  0.0000  0.0000
16418TPSG   HA518219   4.677   3.503   1.723  0.0000  0.0000  0.0000
16418TPSG   CA418220   4.622   3.295   1.736  0.0000  0.0000  0.0000
16418TPSG   HA418221   4.641   3.289   1.843  0.0000  0.0000  0.0000
16418TPSG   CA318222   4.575   3.183   1.666  0.0000  0.0000  0.0000
16418TPSG   HA318223   4.558   3.090   1.720  0.0000  0.0000  0.0000
16418TPSG    O118224   4.697   3.309   1.387  0.0000  0.0000  0.0000
16418TPSG    H618225   4.697   3.309   1.485  0.0000  0.0000  0.0000
16419TPSG   HA218226   8.247   5.425   1.592  0.0000  0.0000  0.0000
16419TPSG   CA218227   8.274   5.517   1.643  0.0000  0.0000  0.0000
16419TPSG   CA118228   8.299   5.636   1.573  0.0000  0.0000  0.0000
16419TPSG    Si18229   8.299   5.636   1.387  0.0000  0.0000  0.0000
16419TPSG   CA618230   8.340   5.750   1.645  0.0000  0.0000  0.0000
16419TPSG   HH618231   8.355   5.846   1.596  0.0000  0.0000  0.0000
16419TPSG   CA518232   8.363   5.743   1.784  0.0000  0.0000  0.0000
16419TPSG   HA518233   8.395   5.830   1.839  0.0000  0.0000  0.0000
16419TPSG   CA418234   8.340   5.622   1.852  0.0000  0.0000  0.0000
16419TPSG   HA418235   8.359   5.616   1.959  0.0000  0.0000  0.0000
16419TPSG   CA318236   8.293   5.510   1.782  0.0000  0.0000  0.0000
16419TPSG   HA318237   8.276   5.417   1.836  0.0000  0.0000  0.0000
16419TPSG    O118238   8.415   5.636   1.503  0.0000  0.0000  0.0000
16419TPSG    H618239   8.415   5.636   1.601  0.0000  0.0000  0.0000
16420TPSG   HA218240   6.269   5.483   8.029  0.0000  0.0000  0.0000
16420TPSG   CA218241   6.296   5.391   7.978  0.0000  0.0000  0.0000
16420TPSG   CA118242   6.321   5.272   8.048  0.0000  0.0000  0.0000
16420TPSG    Si18243   6.321   5.272   8.234  0.0000  0.0000  0.0000
16420TPSG   CA618244   6.362   5.158   7.976  0.0000  0.0000  0.0000
16420TPSG   HH618245   6.377   5.062   8.025  0.0000  0.0000  0.0000
16420TPSG   CA518246   6.385   5.165   7.837  0.0000  0.0000  0.0000
16420TPSG   HA518247   6.417   5.078   7.782  0.0000  0.0000  0.0000
16420TPSG   CA418248   6.362   5.286   7.769  0.0000  0.0000  0.0000
16420TPSG   HA418249   6.381   5.292   7.662  0.0000  0.0000  0.0000
16420TPSG   CA318250   6.315   5.398   7.839  0.0000  0.0000  0.0000
16420TPSG   HA318251   6.298   5.491   7.785  0.0000  0.0000  0.0000
16420TPSG    O118252   6.437   5.272   8.118  0.0000  0.0000  0.0000
16420TPSG    H618253   6.437   5.272   8.020  0.0000  0.0000  0.0000
16421TPSG   HA218254   5.890   9.400   8.112  0.0000  0.0000  0.0000
16421TPSG   CA218255   5.917   9.308   8.061  0.0000  0.0000  0.0000
16421TPSG   CA118256   5.942   9.189   8.131  0.0000  0.0000  0.0000
16421TPSG    Si18257   5.942   9.189   8.317  0.0000  0.0000  0.0000
16421TPSG   CA618258   5.983   9.075   8.059  0.0000  0.0000  0.0000
16421TPSG   HH618259   5.998   8.979   8.108  0.0000  0.0000  0.0000
16421TPSG   CA518260   6.006   9.082   7.920  0.0000  0.0000  0.0000
16421TPSG   HA518261   6.038   8.995   7.865  0.0000  0.0000  0.0000
16421TPSG   CA418262   5.983   9.203   7.852  0.0000  0.0000  0.0000
16421TPSG   HA418263   6.002   9.209   7.745  0.0000  0.0000  0.0000
16421TPSG   CA318264   5.936   9.315   7.922  0.0000  0.0000  0.0000
16421TPSG   HA318265   5.919   9.408   7.868  0.0000  0.0000  0.0000
16421TPSG    O118266   6.058   9.189   8.201  0.0000  0.0000  0.0000
16421TPSG    H618267   6.058   9.189   8.103  0.0000  0.0000  0.0000
16422TPSG   HA218268   7.486   2.287   1.494  0.0000  0.0000  0.0000
16422TPSG   CA218269   7.513   2.379   1.545  0.0000  0.0000  0.0000
16422TPSG   CA118270   7.538   2.498   1.475  0.0000  0.0000  0.0000
16422TPSG    Si18271   7.538   2.498   1.289  0.0000  0.0000  0.0000
16422TPSG   CA618272   7.579   2.612   1.547  0.0000  0.0000  0.0000
16422TPSG   HH618273   7.594   2.708   1.498  0.0000  0.0000  0.0000
16422TPSG   CA518274   7.602   2.605   1.686  0.0000  0.0000  0.0000
16422TPSG   HA518275   7.634   2.692   1.741  0.0000  0.0000  0.0000
16422TPSG   CA418276   7.579   2.484   1.754  0.0000  0.0000  0.0000
16422TPSG   HA418277   7.598   2.478   1.861  0.0000  0.0000  0.0000
16422TPSG   CA318278   7.532   2.372   1.684  0.0000  0.0000  0.0000
16422TPSG   HA318279   7.515   2.279   1.738  0.0000  0.0000  0.0000
16422TPSG    O118280   7.654   2.498   1.405  0.0000  0.0000  0.0000
16422TPSG    H618281   7.654   2.498   1.503  0.0000  0.0000  0.0000
16423TPSG   HA218282   2.677   8.288   1.579  0.0000  0.0000  0.0000
16423TPSG   CA218283   2.704   8.380   1.630  0.0000  0.0000  0.0000
16423TPSG   CA118284   2.729   8.499   1.560  0.0000  0.0000  0.0000
16423TPSG    Si18285   2.729   8.499   1.374  0.0000  0.0000  0.0000
16423TPSG   CA618286   2.770   8.613   1.632  0.0000  0.0000  0.0000
16423TPSG   HH618287   2.785   8.709   1.583  0.0000  0.0000  0.0000
16423TPSG   CA518288   2.793   8.606   1.771  0.0000  0.0000  0.0000
16423TPSG   HA518289   2.825   8.693   1.826  0.0000  0.0000  0.0000
16423TPSG   CA418290   2.770   8.485   1.839  0.0000  0.0000  0.0000
16423TPSG   HA418291   2.789   8.479   1.946  0.0000  0.0000  0.0000
16423TPSG   CA318292   2.723   8.373   1.769  0.0000  0.0000  0.0000
16423TPSG   HA318293   2.706   8.280   1.823  0.0000  0.0000  0.0000
16423TPSG    O118294   2.845   8.499   1.490  0.0000  0.0000  0.0000
16423TPSG    H618295   2.845   8.499   1.588  0.0000  0.0000  0.0000
16424TPSG   HA218296   7.770   7.486   7.952  0.0000  0.0000  0.0000
16424TPSG   CA218297   7.797   7.394   7.901  0.0000  0.0000  0.0000
16424TPSG   CA118298   7.822   7.275   7.971  0.0000  0.0000  0.0000
16424TPSG    Si18299   7.822   7.275   8.157  0.0000  0.0000  0.0000
16424TPSG   CA618300   7.863   7.161   7.899  0.0000  0.0000  0.0000
16424TPSG   HH618301   7.878   7.065   7.948  0.0000  0.0000  0.0000
16424TPSG   CA518302   7.886   7.168   7.760  0.0000  0.0000  0.0000
16424TPSG   HA518303   7.918   7.081   7.705  0.0000  0.0000  0.0000
16424TPSG   CA418304   7.863   7.289   7.692  0.0000  0.0000  0.0000
16424TPSG   HA418305   7.882   7.295   7.585  0.0000  0.0000  0.0000
16424TPSG   CA318306   7.816   7.401   7.762  0.0000  0.0000  0.0000
16424TPSG   HA318307   7.799   7.494   7.708  0.0000  0.0000  0.0000
16424TPSG    O118308   7.938   7.275   8.041  0.0000  0.0000  0.0000
16424TPSG    H618309   7.938   7.275   7.943  0.0000  0.0000  0.0000
16425TPS    HA218310   3.758   5.157   1.549  0.0000  0.0000  0.0000
16425TPS    CA218311   3.785   5.249   1.600  0.0000  0.0000  0.0000
16425TPS    CA118312   3.810   5.368   1.530  0.0000  0.0000  0.0000
16425TPS     Si18313   3.810   5.368   1.344  0.0000  0.0000  0.0000
16425TPS    CA618314   3.851   5.482   1.602  0.0000  0.0000  0.0000
16425TPS    HH618315   3.866   5.578   1.553  0.0000  0.0000  0.0000
16425TPS    CA518316   3.874   5.475   1.741  0.0000  0.0000  0.0000
16425TPS    HA518317   3.906   5.562   1.796  0.0000  0.0000  0.0000
16425TPS    CA418318   3.851   5.354   1.809  0.0000  0.0000  0.0000
16425TPS    HA418319   3.870   5.348   1.916  0.0000  0.0000  0.0000
16425TPS    CA318320   3.804   5.242   1.739  0.0000  0.0000  0.0000
16425TPS    HA318321   3.787   5.149   1.793  0.0000  0.0000  0.0000
16426TPS    HA218322   4.648   4.117   8.024  0.0000  0.0000  0.0000
16426TPS    CA218323   4.675   4.025   7.973  0.0000  0.0000  0.0000
16426TPS    CA118324   4.700   3.906   8.043  0.0000  0.0000  0.0000
16426TPS     Si18325   4.700   3.906   8.229  0.0000  0.0000  0.0000
16426TPS    CA618326   4.741   3.792   7.971  0.0000  0.0000  0.0000
16426TPS    HH618327   4.756   3.696   8.020  0.0000  0.0000  0.0000
16426TPS    CA518328   4.764   3.799   7.832  0.0000  0.0000  0.0000
16426TPS    HA518329   4.796   3.712   7.777  0.0000  0.0000  0.0000
16426TPS    CA418330   4.741   3.920   7.764  0.0000  0.0000  0.0000
16426TPS    HA418331   4.760   3.926   7.657  0.0000  0.0000  0.0000
16426TPS    CA318332   4.694   4.032   7.834  0.0000  0.0000  0.0000
16426TPS    HA318333   4.677   4.125   7.780  0.0000  0.0000  0.0000
16427TPS    HA218334   7.043   8.003   8.006  0.0000  0.0000  0.0000
16427TPS    CA218335   7.070   7.911   7.955  0.0000  0.0000  0.0000
16427TPS    CA118336   7.095   7.792   8.025  0.0000  0.0000  0.0000
16427TPS     Si18337   7.095   7.792   8.211  0.0000  0.0000  0.0000
16427TPS    CA618338   7.136   7.678   7.953  0.0000  0.0000  0.0000
16427TPS    HH618339   7.151   7.582   8.002  0.0000  0.0000  0.0000
16427TPS    CA518340   7.159   7.685   7.814  0.0000  0.0000  0.0000
16427TPS    HA518341   7.191   7.598   7.759  0.0000  0.0000  0.0000
16427TPS    CA418342   7.136   7.806   7.746  0.0000  0.0000  0.0000
16427TPS    HA418343   7.155   7.812   7.639  0.0000  0.0000  0.0000
16427TPS    CA318344   7.089   7.918   7.816  0.0000  0.0000  0.0000
16427TPS    HA318345   7.072   8.011   7.762  0.0000  0.0000  0.0000
16428TPS    HA218346   8.818   5.507   8.188  0.0000  0.0000  0.0000
16428TPS    CA218347   8.845   5.415   8.137  0.0000  0.0000  0.0000
16428TPS    CA118348   8.870   5.296   8.207  0.0000  0.0000  0.0000
16428TPS     Si18349   8.870   5.296   8.393  0.0000  0.0000  0.0000
16428TPS    CA618350   8.911   5.182   8.135  0.0000  0.0000  0.0000
16428TPS    HH618351   8.926   5.086   8.184  0.0000  0.0000  0.0000
16428TPS    CA518352   8.934   5.189   7.996  0.0000  0.0000  0.0000
16428TPS    HA518353   8.966   5.102   7.941  0.0000  0.0000  0.0000
16428TPS    CA418354   8.911   5.310   7.928  0.0000  0.0000  0.0000
16428TPS    HA418355   8.930   5.316   7.821  0.0000  0.0000  0.0000
16428TPS    CA318356   8.864   5.422   7.998  0.0000  0.0000  0.0000
16428TPS    HA318357   8.847   5.515   7.944  0.0000  0.0000  0.0000
16429TPS    HA218358   6.772   9.719   8.034  0.0000  0.0000  0.0000
16429TPS    CA218359   6.799   9.627   7.983  0.0000  0.0000  0.0000
16429TPS    CA118360   6.824   9.508   8.053  0.0000  0.0000  0.0000
16429TPS     Si18361   6.824   9.508   8.239  0.0000  0.0000  0.0000
16429TPS    CA618362   6.865   9.394   7.981  0.0000  0.0000  0.0000
16429TPS    HH618363   6.880   9.298   8.030  0.0000  0.0000  0.0000
16429TPS    CA518364   6.888   9.401   7.842  0.0000  0.0000  0.0000
16429TPS    HA518365   6.920   9.314   7.787  0.0000  0.0000  0.0000
16429TPS    CA418366   6.865   9.522   7.774  0.0000  0.0000  0.0000
16429TPS    HA418367   6.884   9.528   7.667  0.0000  0.0000  0.0000
16429TPS    CA318368   6.818   9.634   7.844  0.0000  0.0000  0.0000
16429TPS    HA318369   6.801   9.727   7.790  0.0000  0.0000  0.0000
16430TPS    HA218370   3.400   9.658   8.190  0.0000  0.0000  0.0000
16430TPS    CA218371   3.427   9.566   8.139  0.0000  0.0000  0.0000
16430TPS    CA118372   3.452   9.447   8.209  0.0000  0.0000  0.0000
16430TPS     Si18373   3.452   9.447   8.395  0.0000  0.0000  0.0000
16430TPS    CA618374   3.493   9.333   8.137  0.0000  0.0000  0.0000
16430TPS    HH618375   3.508   9.237   8.186  0.0000  0.0000  0.0000
16430TPS    CA518376   3.516   9.340   7.998  0.0000  0.0000  0.0000
16430TPS    HA518377   3.548   9.253   7.943  0.0000  0.0000  0.0000
16430TPS    CA418378   3.493   9.461   7.930  0.0000  0.0000  0.0000
16430TPS    HA418379   3.512   9.467   7.823  0.0000  0.0000  0.0000
16430TPS    CA318380   3.446   9.573   8.000  0.0000  0.0000  0.0000
16430TPS    HA318381   3.429   9.666   7.946  0.0000  0.0000  0.0000
16431TPS    HA218382   6.731   4.772   1.276  0.0000  0.0000  0.0000
16431TPS    CA218383   6.758   4.864   1.327  0.0000  0.0000  0.0000
16431TPS    CA118384   6.783   4.983   1.257  0.0000  0.0000  0.0000
16431TPS     Si18385   6.783   4.983   1.071  0.0000  0.0000  0.0000
16431TPS    CA618386   6.824   5.097   1.329  0.0000  0.0000  0.0000
16431TPS    HH618387   6.839   5.193   1.280  0.0000  0.0000  0.0000
16431TPS    CA518388   6.847   5.090   1.468  0.0000  0.0000  0.0000
16431TPS    HA518389   6.879   5.177   1.523  0.0000  0.0000  0.0000
16431TPS    CA418390   6.824   4.969   1.536  0.0000  0.0000  0.0000
16431TPS    HA418391   6.843   4.963   1.643  0.0000  0.0000  0.0000
16431TPS    CA318392   6.777   4.857   1.466  0.0000  0.0000  0.0000
16431TPS    HA318393   6.760   4.764   1.520  0.0000  0.0000  0.0000
16432TPS    HA218394   4.223   2.180   8.156  0.0000  0.0000  0.0000
16432TPS    CA218395   4.250   2.088   8.105  0.0000  0.0000  0.0000
16432TPS    CA118396   4.275   1.969   8.175  0.0000  0.0000  0.0000
16432TPS     Si18397   4.275   1.969   8.361  0.0000  0.0000  0.0000
16432TPS    CA618398   4.316   1.855   8.103  0.0000  0.0000  0.0000
16432TPS    HH618399   4.331   1.759   8.152  0.0000  0.0000  0.0000
16432TPS    CA518400   4.339   1.862   7.964  0.0000  0.0000  0.0000
16432TPS    HA518401   4.371   1.775   7.909  0.0000  0.0000  0.0000
16432TPS    CA418402   4.316   1.983   7.896  0.0000  0.0000  0.0000
16432TPS    HA418403   4.335   1.989   7.789  0.0000  0.0000  0.0000
16432TPS    CA318404   4.269   2.095   7.966  0.0000  0.0000  0.0000
16432TPS    HA318405   4.252   2.188   7.912  0.0000  0.0000  0.0000
16433TPS    HA218406   8.447   9.274   8.138  0.0000  0.0000  0.0000
16433TPS    CA218407   8.474   9.182   8.087  0.0000  0.0000  0.0000
16433TPS    CA118408   8.499   9.063   8.157  0.0000  0.0000  0.0000
16433TPS     Si18409   8.499   9.063   8.343  0.0000  0.0000  0.0000
16433TPS    CA618410   8.540   8.949   8.085  0.0000  0.0000  0.0000
16433TPS    HH618411   8.555   8.853   8.134  0.0000  0.0000  0.0000
16433TPS    CA518412   8.563   8.956   7.946  0.0000  0.0000  0.0000
16433TPS    HA518413   8.595   8.869   7.891  0.0000  0.0000  0.0000
16433TPS    CA418414   8.540   9.077   7.878  0.0000  0.0000  0.0000
16433TPS    HA418415   8.559   9.083   7.771  0.0000  0.0000  0.0000
16433TPS    CA318416   8.493   9.189   7.948  0.0000  0.0000  0.0000
16433TPS    HA318417   8.476   9.282   7.894  0.0000  0.0000  0.0000
16434TPS    HA218418   9.121   9.006   8.180  0.0000  0.0000  0.0000
16434TPS    CA218419   9.148   8.914   8.129  0.0000  0.0000  0.0000
16434TPS    CA118420   9.173   8.795   8.199  0.0000  0.0000  0.0000
16434TPS     Si18421   9.173   8.795   8.385  0.0000  0.0000  0.0000
16434TPS    CA618422   9.214   8.681   8.127  0.0000  0.0000  0.0000
16434TPS    HH618423   9.229   8.585   8.176  0.0000  0.0000  0.0000
16434TPS    CA518424   9.237   8.688   7.988  0.0000  0.0000  0.0000
16434TPS    HA518425   9.269   8.601   7.933  0.0000  0.0000  0.0000
16434TPS    CA418426   9.214   8.809   7.920  0.0000  0.0000  0.0000
16434TPS    HA418427   9.233   8.815   7.813  0.0000  0.0000  0.0000
16434TPS    CA318428   9.167   8.921   7.990  0.0000  0.0000  0.0000
16434TPS    HA318429   9.150   9.014   7.936  0.0000  0.0000  0.0000
16435TPS    HA218430   5.536   8.062   1.529  0.0000  0.0000  0.0000
16435TPS    CA218431   5.563   8.154   1.580  0.0000  0.0000  0.0000
16435TPS    CA118432   5.588   8.273   1.510  0.0000  0.0000  0.0000
16435TPS     Si18433   5.588   8.273   1.324  0.0000  0.0000  0.0000
16435TPS    CA618434   5.629   8.387   1.582  0.0000  0.0000  0.0000
16435TPS    HH618435   5.644   8.483   1.533  0.0000  0.0000  0.0000
16435TPS    CA518436   5.652   8.380   1.721  0.0000  0.0000  0.0000
16435TPS    HA518437   5.684   8.467   1.776  0.0000  0.0000  0.0000
16435TPS    CA418438   5.629   8.259   1.789  0.0000  0.0000  0.0000
16435TPS    HA418439   5.648   8.253   1.896  0.0000  0.0000  0.0000
16435TPS    CA318440   5.582   8.147   1.719  0.0000  0.0000  0.0000
16435TPS    HA318441   5.565   8.054   1.773  0.0000  0.0000  0.0000
16436TPS    HA218442   3.941   2.415   1.541  0.0000  0.0000  0.0000
16436TPS    CA218443   3.968   2.507   1.592  0.0000  0.0000  0.0000
16436TPS    CA118444   3.993   2.626   1.522  0.0000  0.0000  0.0000
16436TPS     Si18445   3.993   2.626   1.336  0.0000  0.0000  0.0000
16436TPS    CA618446   4.034   2.740   1.594  0.0000  0.0000  0.0000
16436TPS    HH618447   4.049   2.836   1.545  0.0000  0.0000  0.0000
16436TPS    CA518448   4.057   2.733   1.733  0.0000  0.0000  0.0000
16436TPS    HA518449   4.089   2.820   1.788  0.0000  0.0000  0.0000
16436TPS    CA418450   4.034   2.612   1.801  0.0000  0.0000  0.0000
16436TPS    HA418451   4.053   2.606   1.908  0.0000  0.0000  0.0000
16436TPS    CA318452   3.987   2.500   1.731  0.0000  0.0000  0.0000
16436TPS    HA318453   3.970   2.407   1.785  0.0000  0.0000  0.0000
16437TPS    HA218454   6.452   1.721   1.521  0.0000  0.0000  0.0000
16437TPS    CA218455   6.479   1.813   1.572  0.0000  0.0000  0.0000
16437TPS    CA118456   6.504   1.932   1.502  0.0000  0.0000  0.0000
16437TPS     Si18457   6.504   1.932   1.316  0.0000  0.0000  0.0000
16437TPS    CA618458   6.545   2.046   1.574  0.0000  0.0000  0.0000
16437TPS    HH618459   6.560   2.142   1.525  0.0000  0.0000  0.0000
16437TPS    CA518460   6.568   2.039   1.713  0.0000  0.0000  0.0000
16437TPS    HA518461   6.600   2.126   1.768  0.0000  0.0000  0.0000
16437TPS    CA418462   6.545   1.918   1.781  0.0000  0.0000  0.0000
16437TPS    HA418463   6.564   1.912   1.888  0.0000  0.0000  0.0000
16437TPS    CA318464   6.498   1.806   1.711  0.0000  0.0000  0.0000
16437TPS    HA318465   6.481   1.713   1.765  0.0000  0.0000  0.0000
16438TPS    HA218466   4.657   0.651   7.996  0.0000  0.0000  0.0000
16438TPS    CA218467   4.684   0.559   7.945  0.0000  0.0000  0.0000
16438TPS    CA118468   4.709   0.440   8.015  0.0000  0.0000  0.0000
16438TPS     Si18469   4.709   0.440   8.201  0.0000  0.0000  0.0000
16438TPS    CA618470   4.750   0.326   7.943  0.0000  0.0000  0.0000
16438TPS    HH618471   4.765   0.230   7.992  0.0000  0.0000  0.0000
16438TPS    CA518472   4.773   0.333   7.804  0.0000  0.0000  0.0000
16438TPS    HA518473   4.805   0.246   7.749  0.0000  0.0000  0.0000
16438TPS    CA418474   4.750   0.454   7.736  0.0000  0.0000  0.0000
16438TPS    HA418475   4.769   0.460   7.629  0.0000  0.0000  0.0000
16438TPS    CA318476   4.703   0.566   7.806  0.0000  0.0000  0.0000
16438TPS    HA318477   4.686   0.659   7.752  0.0000  0.0000  0.0000
16439TPS    HA218478   0.253   0.033   1.462  0.0000  0.0000  0.0000
16439TPS    CA218479   0.280   0.125   1.513  0.0000  0.0000  0.0000
16439TPS    CA118480   0.305   0.244   1.443  0.0000  0.0000  0.0000
16439TPS     Si18481   0.305   0.244   1.257  0.0000  0.0000  0.0000
16439TPS    CA618482   0.346   0.358   1.515  0.0000  0.0000  0.0000
16439TPS    HH618483   0.361   0.454   1.466  0.0000  0.0000  0.0000
16439TPS    CA518484   0.369   0.351   1.654  0.0000  0.0000  0.0000
16439TPS    HA518485   0.401   0.438   1.709  0.0000  0.0000  0.0000
16439TPS    CA418486   0.346   0.230   1.722  0.0000  0.0000  0.0000
16439TPS    HA418487   0.365   0.224   1.829  0.0000  0.0000  0.0000
16439TPS    CA318488   0.299   0.118   1.652  0.0000  0.0000  0.0000
16439TPS    HA318489   0.282   0.025   1.706  0.0000  0.0000  0.0000
16440TPS    HA218490   4.805   6.256   8.031  0.0000  0.0000  0.0000
16440TPS    CA218491   4.832   6.164   7.980  0.0000  0.0000  0.0000
16440TPS    CA118492   4.857   6.045   8.050  0.0000  0.0000  0.0000
16440TPS     Si18493   4.857   6.045   8.236  0.0000  0.0000  0.0000
16440TPS    CA618494   4.898   5.931   7.978  0.0000  0.0000  0.0000
16440TPS    HH618495   4.913   5.835   8.027  0.0000  0.0000  0.0000
16440TPS    CA518496   4.921   5.938   7.839  0.0000  0.0000  0.0000
16440TPS    HA518497   4.953   5.851   7.784  0.0000  0.0000  0.0000
16440TPS    CA418498   4.898   6.059   7.771  0.0000  0.0000  0.0000
16440TPS    HA418499   4.917   6.065   7.664  0.0000  0.0000  0.0000
16440TPS    CA318500   4.851   6.171   7.841  0.0000  0.0000  0.0000
16440TPS    HA318501   4.834   6.264   7.787  0.0000  0.0000  0.0000
16441TPS    HA218502   3.525   1.836   1.528  0.0000  0.0000  0.0000
16441TPS    CA218503   3.552   1.928   1.579  0.0000  0.0000  0.0000
16441TPS    CA118504   3.577   2.047   1.509  0.0000  0.0000  0.0000
16441TPS     Si18505   3.577   2.047   1.323  0.0000  0.0000  0.0000
16441TPS    CA618506   3.618   2.161   1.581  0.0000  0.0000  0.0000
16441TPS    HH618507   3.633   2.257   1.532  0.0000  0.0000  0.0000
16441TPS    CA518508   3.641   2.154   1.720  0.0000  0.0000  0.0000
16441TPS    HA518509   3.673   2.241   1.775  0.0000  0.0000  0.0000
16441TPS    CA418510   3.618   2.033   1.788  0.0000  0.0000  0.0000
16441TPS    HA418511   3.637   2.027   1.895  0.0000  0.0000  0.0000
16441TPS    CA318512   3.571   1.921   1.718  0.0000  0.0000  0.0000
16441TPS    HA318513   3.554   1.828   1.772  0.0000  0.0000  0.0000
16442TPS    HA218514   3.080   0.054   1.471  0.0000  0.0000  0.0000
16442TPS    CA218515   3.107   0.146   1.522  0.0000  0.0000  0.0000
16442TPS    CA118516   3.132   0.265   1.452  0.0000  0.0000  0.0000
16442TPS     Si18517   3.132   0.265   1.266  0.0000  0.0000  0.0000
16442TPS    CA618518   3.173   0.379   1.524  0.0000  0.0000  0.0000
16442TPS    HH618519   3.188   0.475   1.475  0.0000  0.0000  0.0000
16442TPS    CA518520   3.196   0.372   1.663  0.0000  0.0000  0.0000
16442TPS    HA518521   3.228   0.459   1.718  0.0000  0.0000  0.0000
16442TPS    CA418522   3.173   0.251   1.731  0.0000  0.0000  0.0000
16442TPS    HA418523   3.192   0.245   1.838  0.0000  0.0000  0.0000
16442TPS    CA318524   3.126   0.139   1.661  0.0000  0.0000  0.0000
16442TPS    HA318525   3.109   0.046   1.715  0.0000  0.0000  0.0000
16443TPS    HA218526   4.838   4.833   1.279  0.0000  0.0000  0.0000
16443TPS    CA218527   4.865   4.925   1.330  0.0000  0.0000  0.0000
16443TPS    CA118528   4.890   5.044   1.260  0.0000  0.0000  0.0000
16443TPS     Si18529   4.890   5.044   1.074  0.0000  0.0000  0.0000
16443TPS    CA618530   4.931   5.158   1.332  0.0000  0.0000  0.0000
16443TPS    HH618531   4.946   5.254   1.283  0.0000  0.0000  0.0000
16443TPS    CA518532   4.954   5.151   1.471  0.0000  0.0000  0.0000
16443TPS    HA518533   4.986   5.238   1.526  0.0000  0.0000  0.0000
16443TPS    CA418534   4.931   5.030   1.539  0.0000  0.0000  0.0000
16443TPS    HA418535   4.950   5.024   1.646  0.0000  0.0000  0.0000
16443TPS    CA318536   4.884   4.918   1.469  0.0000  0.0000  0.0000
16443TPS    HA318537   4.867   4.825   1.523  0.0000  0.0000  0.0000
16444TPS    HA218538   2.515   8.213   1.472  0.0000  0.0000  0.0000
16444TPS    CA218539   2.610   8.202   1.523  0.0000  0.0000  0.0000
16444TPS    CA118540   2.732   8.198   1.453  0.0000  0.0000  0.0000
16444TPS     Si18541   2.732   8.198   1.267  0.0000  0.0000  0.0000
16444TPS    CA618542   2.852   8.177   1.525  0.0000  0.0000  0.0000
16444TPS    HH618543   2.948   8.179   1.476  0.0000  0.0000  0.0000
16444TPS    CA518544   2.848   8.154   1.664  0.0000  0.0000  0.0000
16444TPS    HA518545   2.940   8.137   1.719  0.0000  0.0000  0.0000
16444TPS    CA418546   2.726   8.155   1.732  0.0000  0.0000  0.0000
16444TPS    HA418547   2.723   8.135   1.839  0.0000  0.0000  0.0000
16444TPS    CA318548   2.607   8.182   1.662  0.0000  0.0000  0.0000
16444TPS    HA318549   2.513   8.183   1.716  0.0000  0.0000  0.0000
16445TPS    HA218550   6.852   1.969   1.495  0.0000  0.0000  0.0000
16445TPS    CA218551   6.879   2.061   1.546  0.0000  0.0000  0.0000
16445TPS    CA118552   6.904   2.180   1.476  0.0000  0.0000  0.0000
16445TPS     Si18553   6.904   2.180   1.290  0.0000  0.0000  0.0000
16445TPS    CA618554   6.945   2.294   1.548  0.0000  0.0000  0.0000
16445TPS    HH618555   6.960   2.390   1.499  0.0000  0.0000  0.0000
16445TPS    CA518556   6.968   2.287   1.687  0.0000  0.0000  0.0000
16445TPS    HA518557   7.000   2.374   1.742  0.0000  0.0000  0.0000
16445TPS    CA418558   6.945   2.166   1.755  0.0000  0.0000  0.0000
16445TPS    HA418559   6.964   2.160   1.862  0.0000  0.0000  0.0000
16445TPS    CA318560   6.898   2.054   1.685  0.0000  0.0000  0.0000
16445TPS    HA318561   6.881   1.961   1.739  0.0000  0.0000  0.0000
16446TPS    HA218562   1.496   1.288   1.511  0.0000  0.0000  0.0000
16446TPS    CA218563   1.490   1.383   1.562  0.0000  0.0000  0.0000
16446TPS    CA118564   1.473   1.504   1.492  0.0000  0.0000  0.0000
16446TPS     Si18565   1.473   1.504   1.306  0.0000  0.0000  0.0000
16446TPS    CA618566   1.473   1.625   1.564  0.0000  0.0000  0.0000
16446TPS    HH618567   1.454   1.720   1.515  0.0000  0.0000  0.0000
16446TPS    CA518568   1.496   1.626   1.703  0.0000  0.0000  0.0000
16446TPS    HA518569   1.497   1.719   1.758  0.0000  0.0000  0.0000
16446TPS    CA418570   1.516   1.505   1.771  0.0000  0.0000  0.0000
16446TPS    HA418571   1.536   1.506   1.878  0.0000  0.0000  0.0000
16446TPS    CA318572   1.510   1.384   1.701  0.0000  0.0000  0.0000
16446TPS    HA318573   1.526   1.291   1.755  0.0000  0.0000  0.0000
16447TPS    HA218574   9.337   3.143   1.408  0.0000  0.0000  0.0000
16447TPS    CA218575   9.430   3.166   1.459  0.0000  0.0000  0.0000
16447TPS    CA118576   9.546   3.204   1.389  0.0000  0.0000  0.0000
16447TPS     Si18577   9.546   3.204   1.203  0.0000  0.0000  0.0000
16447TPS    CA618578   9.665   3.226   1.461  0.0000  0.0000  0.0000
16447TPS    HH618579   9.756   3.260   1.412  0.0000  0.0000  0.0000
16447TPS    CA518580   9.670   3.202   1.600  0.0000  0.0000  0.0000
16447TPS    HA518581   9.762   3.218   1.655  0.0000  0.0000  0.0000
16447TPS    CA418582   9.555   3.162   1.668  0.0000  0.0000  0.0000
16447TPS    HA418583   9.559   3.142   1.775  0.0000  0.0000  0.0000
16447TPS    CA318584   9.434   3.146   1.598  0.0000  0.0000  0.0000
16447TPS    HA318585   9.345   3.115   1.652  0.0000  0.0000  0.0000
16448TPS    HA218586   5.300   6.400   8.096  0.0000  0.0000  0.0000
16448TPS    CA218587   5.327   6.308   8.045  0.0000  0.0000  0.0000
16448TPS    CA118588   5.352   6.189   8.115  0.0000  0.0000  0.0000
16448TPS     Si18589   5.352   6.189   8.301  0.0000  0.0000  0.0000
16448TPS    CA618590   5.393   6.075   8.043  0.0000  0.0000  0.0000
16448TPS    HH618591   5.408   5.979   8.092  0.0000  0.0000  0.0000
16448TPS    CA518592   5.416   6.082   7.904  0.0000  0.0000  0.0000
16448TPS    HA518593   5.448   5.995   7.849  0.0000  0.0000  0.0000
16448TPS    CA418594   5.393   6.203   7.836  0.0000  0.0000  0.0000
16448TPS    HA418595   5.412   6.209   7.729  0.0000  0.0000  0.0000
16448TPS    CA318596   5.346   6.315   7.906  0.0000  0.0000  0.0000
16448TPS    HA318597   5.329   6.408   7.852  0.0000  0.0000  0.0000
16449TPS    HA218598   7.993   0.679   1.492  0.0000  0.0000  0.0000
16449TPS    CA218599   8.020   0.771   1.543  0.0000  0.0000  0.0000
16449TPS    CA118600   8.045   0.890   1.473  0.0000  0.0000  0.0000
16449TPS     Si18601   8.045   0.890   1.287  0.0000  0.0000  0.0000
16449TPS    CA618602   8.086   1.004   1.545  0.0000  0.0000  0.0000
16449TPS    HH618603   8.101   1.100   1.496  0.0000  0.0000  0.0000
16449TPS    CA518604   8.109   0.997   1.684  0.0000  0.0000  0.0000
16449TPS    HA518605   8.141   1.084   1.739  0.0000  0.0000  0.0000
16449TPS    CA418606   8.086   0.876   1.752  0.0000  0.0000  0.0000
16449TPS    HA418607   8.105   0.870   1.859  0.0000  0.0000  0.0000
16449TPS    CA318608   8.039   0.764   1.682  0.0000  0.0000  0.0000
16449TPS    HA318609   8.022   0.671   1.736  0.0000  0.0000  0.0000
16450TPS    HA218610   3.935   1.894   8.318  0.0000  0.0000  0.0000
16450TPS    CA218611   3.962   1.802   8.267  0.0000  0.0000  0.0000
16450TPS    CA118612   3.987   1.683   8.337  0.0000  0.0000  0.0000
16450TPS     Si18613   3.987   1.683   8.523  0.0000  0.0000  0.0000
16450TPS    CA618614   4.028   1.569   8.265  0.0000  0.0000  0.0000
16450TPS    HH618615   4.043   1.473   8.314  0.0000  0.0000  0.0000
16450TPS    CA518616   4.051   1.576   8.126  0.0000  0.0000  0.0000
16450TPS    HA518617   4.083   1.489   8.071  0.0000  0.0000  0.0000
16450TPS    CA418618   4.028   1.697   8.058  0.0000  0.0000  0.0000
16450TPS    HA418619   4.047   1.703   7.951  0.0000  0.0000  0.0000
16450TPS    CA318620   3.981   1.809   8.128  0.0000  0.0000  0.0000
16450TPS    HA318621   3.964   1.902   8.074  0.0000  0.0000  0.0000
16451TPS    HA218622   5.666   4.460   8.216  0.0000  0.0000  0.0000
16451TPS    CA218623   5.627   4.373   8.165  0.0000  0.0000  0.0000
16451TPS    CA118624   5.570   4.265   8.235  0.0000  0.0000  0.0000
16451TPS     Si18625   5.570   4.265   8.421  0.0000  0.0000  0.0000
16451TPS    CA618626   5.528   4.151   8.163  0.0000  0.0000  0.0000
16451TPS    HH618627   5.478   4.068   8.212  0.0000  0.0000  0.0000
16451TPS    CA518628   5.550   4.143   8.024  0.0000  0.0000  0.0000
16451TPS    HA518629   5.519   4.054   7.969  0.0000  0.0000  0.0000
16451TPS    CA418630   5.610   4.249   7.956  0.0000  0.0000  0.0000
16451TPS    HA418631   5.629   4.242   7.849  0.0000  0.0000  0.0000
16451TPS    CA318632   5.646   4.365   8.026  0.0000  0.0000  0.0000
16451TPS    HA318633   5.693   4.448   7.972  0.0000  0.0000  0.0000
16452TPS    HA218634   6.588   9.174   1.467  0.0000  0.0000  0.0000
16452TPS    CA218635   6.615   9.266   1.518  0.0000  0.0000  0.0000
16452TPS    CA118636   6.640   9.385   1.448  0.0000  0.0000  0.0000
16452TPS     Si18637   6.640   9.385   1.262  0.0000  0.0000  0.0000
16452TPS    CA618638   6.681   9.499   1.520  0.0000  0.0000  0.0000
16452TPS    HH618639   6.696   9.595   1.471  0.0000  0.0000  0.0000
16452TPS    CA518640   6.704   9.492   1.659  0.0000  0.0000  0.0000
16452TPS    HA518641   6.736   9.579   1.714  0.0000  0.0000  0.0000
16452TPS    CA418642   6.681   9.371   1.727  0.0000  0.0000  0.0000
16452TPS    HA418643   6.700   9.365   1.834  0.0000  0.0000  0.0000
16452TPS    CA318644   6.634   9.259   1.657  0.0000  0.0000  0.0000
16452TPS    HA318645   6.617   9.166   1.711  0.0000  0.0000  0.0000
16453TPS    HA218646   6.552   6.662   8.184  0.0000  0.0000  0.0000
16453TPS    CA218647   6.579   6.570   8.133  0.0000  0.0000  0.0000
16453TPS    CA118648   6.604   6.451   8.203  0.0000  0.0000  0.0000
16453TPS     Si18649   6.604   6.451   8.389  0.0000  0.0000  0.0000
16453TPS    CA618650   6.645   6.337   8.131  0.0000  0.0000  0.0000
16453TPS    HH618651   6.660   6.241   8.180  0.0000  0.0000  0.0000
16453TPS    CA518652   6.668   6.344   7.992  0.0000  0.0000  0.0000
16453TPS    HA518653   6.700   6.257   7.937  0.0000  0.0000  0.0000
16453TPS    CA418654   6.645   6.465   7.924  0.0000  0.0000  0.0000
16453TPS    HA418655   6.664   6.471   7.817  0.0000  0.0000  0.0000
16453TPS    CA318656   6.598   6.577   7.994  0.0000  0.0000  0.0000
16453TPS    HA318657   6.581   6.670   7.940  0.0000  0.0000  0.0000
16454TPS    HA218658   0.807   2.093   1.621  0.0000  0.0000  0.0000
16454TPS    CA218659   0.834   2.185   1.672  0.0000  0.0000  0.0000
16454TPS    CA118660   0.859   2.304   1.602  0.0000  0.0000  0.0000
16454TPS     Si18661   0.859   2.304   1.416  0.0000  0.0000  0.0000
16454TPS    CA618662   0.900   2.418   1.674  0.0000  0.0000  0.0000
16454TPS    HH618663   0.915   2.514   1.625  0.0000  0.0000  0.0000
16454TPS    CA518664   0.923   2.411   1.813  0.0000  0.0000  0.0000
16454TPS    HA518665   0.955   2.498   1.868  0.0000  0.0000  0.0000
16454TPS    CA418666   0.900   2.290   1.881  0.0000  0.0000  0.0000
16454TPS    HA418667   0.919   2.284   1.988  0.0000  0.0000  0.0000
16454TPS    CA318668   0.853   2.178   1.811  0.0000  0.0000  0.0000
16454TPS    HA318669   0.836   2.085   1.865  0.0000  0.0000  0.0000
16455TPS    HA218670   4.903   6.219   1.366  0.0000  0.0000  0.0000
16455TPS    CA218671   4.930   6.311   1.417  0.0000  0.0000  0.0000
16455TPS    CA118672   4.955   6.430   1.347  0.0000  0.0000  0.0000
16455TPS     Si18673   4.955   6.430   1.161  0.0000  0.0000  0.0000
16455TPS    CA618674   4.996   6.544   1.419  0.0000  0.0000  0.0000
16455TPS    HH618675   5.011   6.640   1.370  0.0000  0.0000  0.0000
16455TPS    CA518676   5.019   6.537   1.558  0.0000  0.0000  0.0000
16455TPS    HA518677   5.051   6.624   1.613  0.0000  0.0000  0.0000
16455TPS    CA418678   4.996   6.416   1.626  0.0000  0.0000  0.0000
16455TPS    HA418679   5.015   6.410   1.733  0.0000  0.0000  0.0000
16455TPS    CA318680   4.949   6.304   1.556  0.0000  0.0000  0.0000
16455TPS    HA318681   4.932   6.211   1.610  0.0000  0.0000  0.0000
16456TPS    HA218682   8.562   8.758   8.057  0.0000  0.0000  0.0000
16456TPS    CA218683   8.589   8.666   8.006  0.0000  0.0000  0.0000
16456TPS    CA118684   8.614   8.547   8.076  0.0000  0.0000  0.0000
16456TPS     Si18685   8.614   8.547   8.262  0.0000  0.0000  0.0000
16456TPS    CA618686   8.655   8.433   8.004  0.0000  0.0000  0.0000
16456TPS    HH618687   8.670   8.337   8.053  0.0000  0.0000  0.0000
16456TPS    CA518688   8.678   8.440   7.865  0.0000  0.0000  0.0000
16456TPS    HA518689   8.710   8.353   7.810  0.0000  0.0000  0.0000
16456TPS    CA418690   8.655   8.561   7.797  0.0000  0.0000  0.0000
16456TPS    HA418691   8.674   8.567   7.690  0.0000  0.0000  0.0000
16456TPS    CA318692   8.608   8.673   7.867  0.0000  0.0000  0.0000
16456TPS    HA318693   8.591   8.766   7.813  0.0000  0.0000  0.0000
16457TPS    HA218694   8.651   9.058   8.066  0.0000  0.0000  0.0000
16457TPS    CA218695   8.678   8.966   8.015  0.0000  0.0000  0.0000
16457TPS    CA118696   8.703   8.847   8.085  0.0000  0.0000  0.0000
16457TPS     Si18697   8.703   8.847   8.271  0.0000  0.0000  0.0000
16457TPS    CA618698   8.744   8.733   8.013  0.0000  0.0000  0.0000
16457TPS    HH618699   8.759   8.637   8.062  0.0000  0.0000  0.0000
16457TPS    CA518700   8.767   8.740   7.874  0.0000  0.0000  0.0000
16457TPS    HA518701   8.799   8.653   7.819  0.0000  0.0000  0.0000
16457TPS    CA418702   8.744   8.861   7.806  0.0000  0.0000  0.0000
16457TPS    HA418703   8.763   8.867   7.699  0.0000  0.0000  0.0000
16457TPS    CA318704   8.697   8.973   7.876  0.0000  0.0000  0.0000
16457TPS    HA318705   8.680   9.066   7.822  0.0000  0.0000  0.0000
16458TPS    HA218706   9.412   2.925   8.126  0.0000  0.0000  0.0000
16458TPS    CA218707   9.439   2.833   8.075  0.0000  0.0000  0.0000
16458TPS    CA118708   9.464   2.714   8.145  0.0000  0.0000  0.0000
16458TPS     Si18709   9.464   2.714   8.331  0.0000  0.0000  0.0000
16458TPS    CA618710   9.505   2.600   8.073  0.0000  0.0000  0.0000
16458TPS    HH618711   9.520   2.504   8.122  0.0000  0.0000  0.0000
16458TPS    CA518712   9.528   2.607   7.934  0.0000  0.0000  0.0000
16458TPS    HA518713   9.560   2.520   7.879  0.0000  0.0000  0.0000
16458TPS    CA418714   9.505   2.728   7.866  0.0000  0.0000  0.0000
16458TPS    HA418715   9.524   2.734   7.759  0.0000  0.0000  0.0000
16458TPS    CA318716   9.458   2.840   7.936  0.0000  0.0000  0.0000
16458TPS    HA318717   9.441   2.933   7.882  0.0000  0.0000  0.0000
16459TPS    HA218718   3.739   0.987   1.618  0.0000  0.0000  0.0000
16459TPS    CA218719   3.766   1.079   1.669  0.0000  0.0000  0.0000
16459TPS    CA118720   3.791   1.198   1.599  0.0000  0.0000  0.0000
16459TPS     Si18721   3.791   1.198   1.413  0.0000  0.0000  0.0000
16459TPS    CA618722   3.832   1.312   1.671  0.0000  0.0000  0.0000
16459TPS    HH618723   3.847   1.408   1.622  0.0000  0.0000  0.0000
16459TPS    CA518724   3.855   1.305   1.810  0.0000  0.0000  0.0000
16459TPS    HA518725   3.887   1.392   1.865  0.0000  0.0000  0.0000
16459TPS    CA418726   3.832   1.184   1.878  0.0000  0.0000  0.0000
16459TPS    HA418727   3.851   1.178   1.985  0.0000  0.0000  0.0000
16459TPS    CA318728   3.785   1.072   1.808  0.0000  0.0000  0.0000
16459TPS    HA318729   3.768   0.979   1.862  0.0000  0.0000  0.0000
16460TPS    HA218730   7.856   6.371   1.422  0.0000  0.0000  0.0000
16460TPS    CA218731   7.883   6.463   1.473  0.0000  0.0000  0.0000
16460TPS    CA118732   7.908   6.582   1.403  0.0000  0.0000  0.0000
16460TPS     Si18733   7.908   6.582   1.217  0.0000  0.0000  0.0000
16460TPS    CA618734   7.949   6.696   1.475  0.0000  0.0000  0.0000
16460TPS    HH618735   7.964   6.792   1.426  0.0000  0.0000  0.0000
16460TPS    CA518736   7.972   6.689   1.614  0.0000  0.0000  0.0000
16460TPS    HA518737   8.004   6.776   1.669  0.0000  0.0000  0.0000
16460TPS    CA418738   7.949   6.568   1.682  0.0000  0.0000  0.0000
16460TPS    HA418739   7.968   6.562   1.789  0.0000  0.0000  0.0000
16460TPS    CA318740   7.902   6.456   1.612  0.0000  0.0000  0.0000
16460TPS    HA318741   7.885   6.363   1.666  0.0000  0.0000  0.0000
16461TPS    HA218742   3.620   4.697   7.962  0.0000  0.0000  0.0000
16461TPS    CA218743   3.647   4.605   7.911  0.0000  0.0000  0.0000
16461TPS    CA118744   3.672   4.486   7.981  0.0000  0.0000  0.0000
16461TPS     Si18745   3.672   4.486   8.167  0.0000  0.0000  0.0000
16461TPS    CA618746   3.713   4.372   7.909  0.0000  0.0000  0.0000
16461TPS    HH618747   3.728   4.276   7.958  0.0000  0.0000  0.0000
16461TPS    CA518748   3.736   4.379   7.770  0.0000  0.0000  0.0000
16461TPS    HA518749   3.768   4.292   7.715  0.0000  0.0000  0.0000
16461TPS    CA418750   3.713   4.500   7.702  0.0000  0.0000  0.0000
16461TPS    HA418751   3.732   4.506   7.595  0.0000  0.0000  0.0000
16461TPS    CA318752   3.666   4.612   7.772  0.0000  0.0000  0.0000
16461TPS    HA318753   3.649   4.705   7.718  0.0000  0.0000  0.0000
16462TPS    HA218754   4.180   6.847   8.053  0.0000  0.0000  0.0000
16462TPS    CA218755   4.207   6.755   8.002  0.0000  0.0000  0.0000
16462TPS    CA118756   4.232   6.636   8.072  0.0000  0.0000  0.0000
16462TPS     Si18757   4.232   6.636   8.258  0.0000  0.0000  0.0000
16462TPS    CA618758   4.273   6.522   8.000  0.0000  0.0000  0.0000
16462TPS    HH618759   4.288   6.426   8.049  0.0000  0.0000  0.0000
16462TPS    CA518760   4.296   6.529   7.861  0.0000  0.0000  0.0000
16462TPS    HA518761   4.328   6.442   7.806  0.0000  0.0000  0.0000
16462TPS    CA418762   4.273   6.650   7.793  0.0000  0.0000  0.0000
16462TPS    HA418763   4.292   6.656   7.686  0.0000  0.0000  0.0000
16462TPS    CA318764   4.226   6.762   7.863  0.0000  0.0000  0.0000
16462TPS    HA318765   4.209   6.855   7.809  0.0000  0.0000  0.0000
16463TPS    HA218766   7.754   7.573   1.423  0.0000  0.0000  0.0000
16463TPS    CA218767   7.781   7.665   1.474  0.0000  0.0000  0.0000
16463TPS    CA118768   7.806   7.784   1.404  0.0000  0.0000  0.0000
16463TPS     Si18769   7.806   7.784   1.218  0.0000  0.0000  0.0000
16463TPS    CA618770   7.847   7.898   1.476  0.0000  0.0000  0.0000
16463TPS    HH618771   7.862   7.994   1.427  0.0000  0.0000  0.0000
16463TPS    CA518772   7.870   7.891   1.615  0.0000  0.0000  0.0000
16463TPS    HA518773   7.902   7.978   1.670  0.0000  0.0000  0.0000
16463TPS    CA418774   7.847   7.770   1.683  0.0000  0.0000  0.0000
16463TPS    HA418775   7.866   7.764   1.790  0.0000  0.0000  0.0000
16463TPS    CA318776   7.800   7.658   1.613  0.0000  0.0000  0.0000
16463TPS    HA318777   7.783   7.565   1.667  0.0000  0.0000  0.0000
16464TPS    HA218778   2.491   1.543   1.413  0.0000  0.0000  0.0000
16464TPS    CA218779   2.518   1.635   1.464  0.0000  0.0000  0.0000
16464TPS    CA118780   2.543   1.754   1.394  0.0000  0.0000  0.0000
16464TPS     Si18781   2.543   1.754   1.208  0.0000  0.0000  0.0000
16464TPS    CA618782   2.584   1.868   1.466  0.0000  0.0000  0.0000
16464TPS    HH618783   2.599   1.964   1.417  0.0000  0.0000  0.0000
16464TPS    CA518784   2.607   1.861   1.605  0.0000  0.0000  0.0000
16464TPS    HA518785   2.639   1.948   1.660  0.0000  0.0000  0.0000
16464TPS    CA418786   2.584   1.740   1.673  0.0000  0.0000  0.0000
16464TPS    HA418787   2.603   1.734   1.780  0.0000  0.0000  0.0000
16464TPS    CA318788   2.537   1.628   1.603  0.0000  0.0000  0.0000
16464TPS    HA318789   2.520   1.535   1.657  0.0000  0.0000  0.0000
16465TPS    HA218790   8.512   4.999   8.214  0.0000  0.0000  0.0000
16465TPS    CA218791   8.539   4.907   8.163  0.0000  0.0000  0.0000
16465TPS    CA118792   8.564   4.788   8.233  0.0000  0.0000  0.0000
16465TPS     Si18793   8.564   4.788   8.419  0.0000  0.0000  0.0000
16465TPS    CA618794   8.605   4.674   8.161  0.0000  0.0000  0.0000
16465TPS    HH618795   8.620   4.578   8.210  0.0000  0.0000  0.0000
16465TPS    CA518796   8.628   4.681   8.022  0.0000  0.0000  0.0000
16465TPS    HA518797   8.660   4.594   7.967  0.0000  0.0000  0.0000
16465TPS    CA418798   8.605   4.802   7.954  0.0000  0.0000  0.0000
16465TPS    HA418799   8.624   4.808   7.847  0.0000  0.0000  0.0000
16465TPS    CA318800   8.558   4.914   8.024  0.0000  0.0000  0.0000
16465TPS    HA318801   8.541   5.007   7.970  0.0000  0.0000  0.0000
16466TPS    HA218802   8.773   3.904   8.201  0.0000  0.0000  0.0000
16466TPS    CA218803   8.800   3.812   8.150  0.0000  0.0000  0.0000
16466TPS    CA118804   8.825   3.693   8.220  0.0000  0.0000  0.0000
16466TPS     Si18805   8.825   3.693   8.406  0.0000  0.0000  0.0000
16466TPS    CA618806   8.866   3.579   8.148  0.0000  0.0000  0.0000
16466TPS    HH618807   8.881   3.483   8.197  0.0000  0.0000  0.0000
16466TPS    CA518808   8.889   3.586   8.009  0.0000  0.0000  0.0000
16466TPS    HA518809   8.921   3.499   7.954  0.0000  0.0000  0.0000
16466TPS    CA418810   8.866   3.707   7.941  0.0000  0.0000  0.0000
16466TPS    HA418811   8.885   3.713   7.834  0.0000  0.0000  0.0000
16466TPS    CA318812   8.819   3.819   8.011  0.0000  0.0000  0.0000
16466TPS    HA318813   8.802   3.912   7.957  0.0000  0.0000  0.0000
16467TPS    HA218814   4.546   1.787   1.480  0.0000  0.0000  0.0000
16467TPS    CA218815   4.573   1.879   1.531  0.0000  0.0000  0.0000
16467TPS    CA118816   4.598   1.998   1.461  0.0000  0.0000  0.0000
16467TPS     Si18817   4.598   1.998   1.275  0.0000  0.0000  0.0000
16467TPS    CA618818   4.639   2.112   1.533  0.0000  0.0000  0.0000
16467TPS    HH618819   4.654   2.208   1.484  0.0000  0.0000  0.0000
16467TPS    CA518820   4.662   2.105   1.672  0.0000  0.0000  0.0000
16467TPS    HA518821   4.694   2.192   1.727  0.0000  0.0000  0.0000
16467TPS    CA418822   4.639   1.984   1.740  0.0000  0.0000  0.0000
16467TPS    HA418823   4.658   1.978   1.847  0.0000  0.0000  0.0000
16467TPS    CA318824   4.592   1.872   1.670  0.0000  0.0000  0.0000
16467TPS    HA318825   4.575   1.779   1.724  0.0000  0.0000  0.0000
16468TPS    HA218826   5.085   2.531   8.045  0.0000  0.0000  0.0000
16468TPS    CA218827   5.046   2.444   7.994  0.0000  0.0000  0.0000
16468TPS    CA118828   4.989   2.336   8.064  0.0000  0.0000  0.0000
16468TPS     Si18829   4.989   2.336   8.250  0.0000  0.0000  0.0000
16468TPS    CA618830   4.947   2.222   7.992  0.0000  0.0000  0.0000
16468TPS    HH618831   4.897   2.139   8.041  0.0000  0.0000  0.0000
16468TPS    CA518832   4.969   2.214   7.853  0.0000  0.0000  0.0000
16468TPS    HA518833   4.938   2.125   7.798  0.0000  0.0000  0.0000
16468TPS    CA418834   5.029   2.320   7.785  0.0000  0.0000  0.0000
16468TPS    HA418835   5.048   2.313   7.678  0.0000  0.0000  0.0000
16468TPS    CA318836   5.065   2.436   7.855  0.0000  0.0000  0.0000
16468TPS    HA318837   5.112   2.519   7.801  0.0000  0.0000  0.0000
16469TPS    HA218838   6.740   3.284   8.115  0.0000  0.0000  0.0000
16469TPS    CA218839   6.767   3.192   8.064  0.0000  0.0000  0.0000
16469TPS    CA118840   6.792   3.073   8.134  0.0000  0.0000  0.0000
16469TPS     Si18841   6.792   3.073   8.320  0.0000  0.0000  0.0000
16469TPS    CA618842   6.833   2.959   8.062  0.0000  0.0000  0.0000
16469TPS    HH618843   6.848   2.863   8.111  0.0000  0.0000  0.0000
16469TPS    CA518844   6.856   2.966   7.923  0.0000  0.0000  0.0000
16469TPS    HA518845   6.888   2.879   7.868  0.0000  0.0000  0.0000
16469TPS    CA418846   6.833   3.087   7.855  0.0000  0.0000  0.0000
16469TPS    HA418847   6.852   3.093   7.748  0.0000  0.0000  0.0000
16469TPS    CA318848   6.786   3.199   7.925  0.0000  0.0000  0.0000
16469TPS    HA318849   6.769   3.292   7.871  0.0000  0.0000  0.0000
16470TPS    HA218850   7.583   6.790   1.433  0.0000  0.0000  0.0000
16470TPS    CA218851   7.610   6.882   1.484  0.0000  0.0000  0.0000
16470TPS    CA118852   7.635   7.001   1.414  0.0000  0.0000  0.0000
16470TPS     Si18853   7.635   7.001   1.228  0.0000  0.0000  0.0000
16470TPS    CA618854   7.676   7.115   1.486  0.0000  0.0000  0.0000
16470TPS    HH618855   7.691   7.211   1.437  0.0000  0.0000  0.0000
16470TPS    CA518856   7.699   7.108   1.625  0.0000  0.0000  0.0000
16470TPS    HA518857   7.731   7.195   1.680  0.0000  0.0000  0.0000
16470TPS    CA418858   7.676   6.987   1.693  0.0000  0.0000  0.0000
16470TPS    HA418859   7.695   6.981   1.800  0.0000  0.0000  0.0000
16470TPS    CA318860   7.629   6.875   1.623  0.0000  0.0000  0.0000
16470TPS    HA318861   7.612   6.782   1.677  0.0000  0.0000  0.0000
16471TPS    HA218862   6.358   1.138   8.064  0.0000  0.0000  0.0000
16471TPS    CA218863   6.385   1.046   8.013  0.0000  0.0000  0.0000
16471TPS    CA118864   6.410   0.927   8.083  0.0000  0.0000  0.0000
16471TPS     Si18865   6.410   0.927   8.269  0.0000  0.0000  0.0000
16471TPS    CA618866   6.451   0.813   8.011  0.0000  0.0000  0.0000
16471TPS    HH618867   6.466   0.717   8.060  0.0000  0.0000  0.0000
16471TPS    CA518868   6.474   0.820   7.872  0.0000  0.0000  0.0000
16471TPS    HA518869   6.506   0.733   7.817  0.0000  0.0000  0.0000
16471TPS    CA418870   6.451   0.941   7.804  0.0000  0.0000  0.0000
16471TPS    HA418871   6.470   0.947   7.697  0.0000  0.0000  0.0000
16471TPS    CA318872   6.404   1.053   7.874  0.0000  0.0000  0.0000
16471TPS    HA318873   6.387   1.146   7.820  0.0000  0.0000  0.0000
16472TPS    HA218874   3.791   0.603   8.148  0.0000  0.0000  0.0000
16472TPS    CA218875   3.818   0.511   8.097  0.0000  0.0000  0.0000
16472TPS    CA118876   3.843   0.392   8.167  0.0000  0.0000  0.0000
16472TPS     Si18877   3.843   0.392   8.353  0.0000  0.0000  0.0000
16472TPS    CA618878   3.884   0.278   8.095  0.0000  0.0000  0.0000
16472TPS    HH618879   3.899   0.182   8.144  0.0000  0.0000  0.0000
16472TPS    CA518880   3.907   0.285   7.956  0.0000  0.0000  0.0000
16472TPS    HA518881   3.939   0.198   7.901  0.0000  0.0000  0.0000
16472TPS    CA418882   3.884   0.406   7.888  0.0000  0.0000  0.0000
16472TPS    HA418883   3.903   0.412   7.781  0.0000  0.0000  0.0000
16472TPS    CA318884   3.837   0.518   7.958  0.0000  0.0000  0.0000
16472TPS    HA318885   3.820   0.611   7.904  0.0000  0.0000  0.0000
16473TPS    HA218886   3.885   7.163   8.140  0.0000  0.0000  0.0000
16473TPS    CA218887   3.912   7.071   8.089  0.0000  0.0000  0.0000
16473TPS    CA118888   3.937   6.952   8.159  0.0000  0.0000  0.0000
16473TPS     Si18889   3.937   6.952   8.345  0.0000  0.0000  0.0000
16473TPS    CA618890   3.978   6.838   8.087  0.0000  0.0000  0.0000
16473TPS    HH618891   3.993   6.742   8.136  0.0000  0.0000  0.0000
16473TPS    CA518892   4.001   6.845   7.948  0.0000  0.0000  0.0000
16473TPS    HA518893   4.033   6.758   7.893  0.0000  0.0000  0.0000
16473TPS    CA418894   3.978   6.966   7.880  0.0000  0.0000  0.0000
16473TPS    HA418895   3.997   6.972   7.773  0.0000  0.0000  0.0000
16473TPS    CA318896   3.931   7.078   7.950  0.0000  0.0000  0.0000
16473TPS    HA318897   3.914   7.171   7.896  0.0000  0.0000  0.0000
16474TPS    HA218898   7.605   1.295   1.425  0.0000  0.0000  0.0000
16474TPS    CA218899   7.566   1.382   1.476  0.0000  0.0000  0.0000
16474TPS    CA118900   7.509   1.490   1.406  0.0000  0.0000  0.0000
16474TPS     Si18901   7.509   1.490   1.220  0.0000  0.0000  0.0000
16474TPS    CA618902   7.467   1.604   1.478  0.0000  0.0000  0.0000
16474TPS    HH618903   7.417   1.687   1.429  0.0000  0.0000  0.0000
16474TPS    CA518904   7.489   1.612   1.617  0.0000  0.0000  0.0000
16474TPS    HA518905   7.458   1.701   1.672  0.0000  0.0000  0.0000
16474TPS    CA418906   7.549   1.506   1.685  0.0000  0.0000  0.0000
16474TPS    HA418907   7.568   1.513   1.792  0.0000  0.0000  0.0000
16474TPS    CA318908   7.585   1.390   1.615  0.0000  0.0000  0.0000
16474TPS    HA318909   7.632   1.307   1.669  0.0000  0.0000  0.0000
16475TPS    HA218910   2.265   2.189   1.450  0.0000  0.0000  0.0000
16475TPS    CA218911   2.292   2.281   1.501  0.0000  0.0000  0.0000
16475TPS    CA118912   2.317   2.400   1.431  0.0000  0.0000  0.0000
16475TPS     Si18913   2.317   2.400   1.245  0.0000  0.0000  0.0000
16475TPS    CA618914   2.358   2.514   1.503  0.0000  0.0000  0.0000
16475TPS    HH618915   2.373   2.610   1.454  0.0000  0.0000  0.0000
16475TPS    CA518916   2.381   2.507   1.642  0.0000  0.0000  0.0000
16475TPS    HA518917   2.413   2.594   1.697  0.0000  0.0000  0.0000
16475TPS    CA418918   2.358   2.386   1.710  0.0000  0.0000  0.0000
16475TPS    HA418919   2.377   2.380   1.817  0.0000  0.0000  0.0000
16475TPS    CA318920   2.311   2.274   1.640  0.0000  0.0000  0.0000
16475TPS    HA318921   2.294   2.181   1.694  0.0000  0.0000  0.0000
16476TPS    HA218922   7.019   2.871   7.964  0.0000  0.0000  0.0000
16476TPS    CA218923   7.046   2.779   7.913  0.0000  0.0000  0.0000
16476TPS    CA118924   7.071   2.660   7.983  0.0000  0.0000  0.0000
16476TPS     Si18925   7.071   2.660   8.169  0.0000  0.0000  0.0000
16476TPS    CA618926   7.112   2.546   7.911  0.0000  0.0000  0.0000
16476TPS    HH618927   7.127   2.450   7.960  0.0000  0.0000  0.0000
16476TPS    CA518928   7.135   2.553   7.772  0.0000  0.0000  0.0000
16476TPS    HA518929   7.167   2.466   7.717  0.0000  0.0000  0.0000
16476TPS    CA418930   7.112   2.674   7.704  0.0000  0.0000  0.0000
16476TPS    HA418931   7.131   2.680   7.597  0.0000  0.0000  0.0000
16476TPS    CA318932   7.065   2.786   7.774  0.0000  0.0000  0.0000
16476TPS    HA318933   7.048   2.879   7.720  0.0000  0.0000  0.0000
16477TPS    HA218934   9.073   0.334   7.998  0.0000  0.0000  0.0000
16477TPS    CA218935   9.100   0.242   7.947  0.0000  0.0000  0.0000
16477TPS    CA118936   9.125   0.123   8.017  0.0000  0.0000  0.0000
16477TPS     Si18937   9.125   0.123   8.203  0.0000  0.0000  0.0000
16477TPS    CA618938   9.166   0.009   7.945  0.0000  0.0000  0.0000
16477TPS    HH618939   9.181  -0.087   7.994  0.0000  0.0000  0.0000
16477TPS    CA518940   9.189   0.016   7.806  0.0000  0.0000  0.0000
16477TPS    HA518941   9.221  -0.071   7.751  0.0000  0.0000  0.0000
16477TPS    CA418942   9.166   0.137   7.738  0.0000  0.0000  0.0000
16477TPS    HA418943   9.185   0.143   7.631  0.0000  0.0000  0.0000
16477TPS    CA318944   9.119   0.249   7.808  0.0000  0.0000  0.0000
16477TPS    HA318945   9.102   0.342   7.754  0.0000  0.0000  0.0000
16478TPS    HA218946   0.389   1.063   1.474  0.0000  0.0000  0.0000
16478TPS    CA218947   0.416   1.155   1.525  0.0000  0.0000  0.0000
16478TPS    CA118948   0.441   1.274   1.455  0.0000  0.0000  0.0000
16478TPS     Si18949   0.441   1.274   1.269  0.0000  0.0000  0.0000
16478TPS    CA618950   0.482   1.388   1.527  0.0000  0.0000  0.0000
16478TPS    HH618951   0.497   1.484   1.478  0.0000  0.0000  0.0000
16478TPS    CA518952   0.505   1.381   1.666  0.0000  0.0000  0.0000
16478TPS    HA518953   0.537   1.468   1.721  0.0000  0.0000  0.0000
16478TPS    CA418954   0.482   1.260   1.734  0.0000  0.0000  0.0000
16478TPS    HA418955   0.501   1.254   1.841  0.0000  0.0000  0.0000
16478TPS    CA318956   0.435   1.148   1.664  0.0000  0.0000  0.0000
16478TPS    HA318957   0.418   1.055   1.718  0.0000  0.0000  0.0000
16479TPS    HA218958   8.400   6.099   8.251  0.0000  0.0000  0.0000
16479TPS    CA218959   8.427   6.007   8.200  0.0000  0.0000  0.0000
16479TPS    CA118960   8.452   5.888   8.270  0.0000  0.0000  0.0000
16479TPS     Si18961   8.452   5.888   8.456  0.0000  0.0000  0.0000
16479TPS    CA618962   8.493   5.774   8.198  0.0000  0.0000  0.0000
16479TPS    HH618963   8.508   5.678   8.247  0.0000  0.0000  0.0000
16479TPS    CA518964   8.516   5.781   8.059  0.0000  0.0000  0.0000
16479TPS    HA518965   8.548   5.694   8.004  0.0000  0.0000  0.0000
16479TPS    CA418966   8.493   5.902   7.991  0.0000  0.0000  0.0000
16479TPS    HA418967   8.512   5.908   7.884  0.0000  0.0000  0.0000
16479TPS    CA318968   8.446   6.014   8.061  0.0000  0.0000  0.0000
16479TPS    HA318969   8.429   6.107   8.007  0.0000  0.0000  0.0000
16480TPS    HA218970   2.919   5.383   1.596  0.0000  0.0000  0.0000
16480TPS    CA218971   2.946   5.475   1.647  0.0000  0.0000  0.0000
16480TPS    CA118972   2.971   5.594   1.577  0.0000  0.0000  0.0000
16480TPS     Si18973   2.971   5.594   1.391  0.0000  0.0000  0.0000
16480TPS    CA618974   3.012   5.708   1.649  0.0000  0.0000  0.0000
16480TPS    HH618975   3.027   5.804   1.600  0.0000  0.0000  0.0000
16480TPS    CA518976   3.035   5.701   1.788  0.0000  0.0000  0.0000
16480TPS    HA518977   3.067   5.788   1.843  0.0000  0.0000  0.0000
16480TPS    CA418978   3.012   5.580   1.856  0.0000  0.0000  0.0000
16480TPS    HA418979   3.031   5.574   1.963  0.0000  0.0000  0.0000
16480TPS    CA318980   2.965   5.468   1.786  0.0000  0.0000  0.0000
16480TPS    HA318981   2.948   5.375   1.840  0.0000  0.0000  0.0000
16481TPS    HA218982   6.959   1.858   7.993  0.0000  0.0000  0.0000
16481TPS    CA218983   6.986   1.766   7.942  0.0000  0.0000  0.0000
16481TPS    CA118984   7.011   1.647   8.012  0.0000  0.0000  0.0000
16481TPS     Si18985   7.011   1.647   8.198  0.0000  0.0000  0.0000
16481TPS    CA618986   7.052   1.533   7.940  0.0000  0.0000  0.0000
16481TPS    HH618987   7.067   1.437   7.989  0.0000  0.0000  0.0000
16481TPS    CA518988   7.075   1.540   7.801  0.0000  0.0000  0.0000
16481TPS    HA518989   7.107   1.453   7.746  0.0000  0.0000  0.0000
16481TPS    CA418990   7.052   1.661   7.733  0.0000  0.0000  0.0000
16481TPS    HA418991   7.071   1.667   7.626  0.0000  0.0000  0.0000
16481TPS    CA318992   7.005   1.773   7.803  0.0000  0.0000  0.0000
16481TPS    HA318993   6.988   1.866   7.749  0.0000  0.0000  0.0000
16482TPS    HA218994   3.954   1.203   1.590  0.0000  0.0000  0.0000
16482TPS    CA218995   3.981   1.295   1.641  0.0000  0.0000  0.0000
16482TPS    CA118996   4.006   1.414   1.571  0.0000  0.0000  0.0000
16482TPS     Si18997   4.006   1.414   1.385  0.0000  0.0000  0.0000
16482TPS    CA618998   4.047   1.528   1.643  0.0000  0.0000  0.0000
16482TPS    HH618999   4.062   1.624   1.594  0.0000  0.0000  0.0000
16482TPS    CA519000   4.070   1.521   1.782  0.0000  0.0000  0.0000
16482TPS    HA519001   4.102   1.608   1.837  0.0000  0.0000  0.0000
16482TPS    CA419002   4.047   1.400   1.850  0.0000  0.0000  0.0000
16482TPS    HA419003   4.066   1.394   1.957  0.0000  0.0000  0.0000
16482TPS    CA319004   4.000   1.288   1.780  0.0000  0.0000  0.0000
16482TPS    HA319005   3.983   1.195   1.834  0.0000  0.0000  0.0000
16483TPS    HA219006   8.517   0.151   1.415  0.0000  0.0000  0.0000
16483TPS    CA219007   8.544   0.243   1.466  0.0000  0.0000  0.0000
16483TPS    CA119008   8.569   0.362   1.396  0.0000  0.0000  0.0000
16483TPS     Si19009   8.569   0.362   1.210  0.0000  0.0000  0.0000
16483TPS    CA619010   8.610   0.476   1.468  0.0000  0.0000  0.0000
16483TPS    HH619011   8.625   0.572   1.419  0.0000  0.0000  0.0000
16483TPS    CA519012   8.633   0.469   1.607  0.0000  0.0000  0.0000
16483TPS    HA519013   8.665   0.556   1.662  0.0000  0.0000  0.0000
16483TPS    CA419014   8.610   0.348   1.675  0.0000  0.0000  0.0000
16483TPS    HA419015   8.629   0.342   1.782  0.0000  0.0000  0.0000
16483TPS    CA319016   8.563   0.236   1.605  0.0000  0.0000  0.0000
16483TPS    HA319017   8.546   0.143   1.659  0.0000  0.0000  0.0000
16484TPS    HA219018   2.983   3.477   1.469  0.0000  0.0000  0.0000
16484TPS    CA219019   2.944   3.564   1.520  0.0000  0.0000  0.0000
16484TPS    CA119020   2.887   3.672   1.450  0.0000  0.0000  0.0000
16484TPS     Si19021   2.887   3.672   1.264  0.0000  0.0000  0.0000
16484TPS    CA619022   2.845   3.786   1.522  0.0000  0.0000  0.0000
16484TPS    HH619023   2.795   3.869   1.473  0.0000  0.0000  0.0000
16484TPS    CA519024   2.867   3.794   1.661  0.0000  0.0000  0.0000
16484TPS    HA519025   2.836   3.883   1.716  0.0000  0.0000  0.0000
16484TPS    CA419026   2.927   3.688   1.729  0.0000  0.0000  0.0000
16484TPS    HA419027   2.946   3.695   1.836  0.0000  0.0000  0.0000
16484TPS    CA319028   2.963   3.572   1.659  0.0000  0.0000  0.0000
16484TPS    HA319029   3.010   3.489   1.713  0.0000  0.0000  0.0000
16485TPS    HA219030   6.817   0.761   1.615  0.0000  0.0000  0.0000
16485TPS    CA219031   6.844   0.853   1.666  0.0000  0.0000  0.0000
16485TPS    CA119032   6.869   0.972   1.596  0.0000  0.0000  0.0000
16485TPS     Si19033   6.869   0.972   1.410  0.0000  0.0000  0.0000
16485TPS    CA619034   6.910   1.086   1.668  0.0000  0.0000  0.0000
16485TPS    HH619035   6.925   1.182   1.619  0.0000  0.0000  0.0000
16485TPS    CA519036   6.933   1.079   1.807  0.0000  0.0000  0.0000
16485TPS    HA519037   6.965   1.166   1.862  0.0000  0.0000  0.0000
16485TPS    CA419038   6.910   0.958   1.875  0.0000  0.0000  0.0000
16485TPS    HA419039   6.929   0.952   1.982  0.0000  0.0000  0.0000
16485TPS    CA319040   6.863   0.846   1.805  0.0000  0.0000  0.0000
16485TPS    HA319041   6.846   0.753   1.859  0.0000  0.0000  0.0000
16486TPS    HA219042   2.128   7.287   1.584  0.0000  0.0000  0.0000
16486TPS    CA219043   2.155   7.379   1.635  0.0000  0.0000  0.0000
16486TPS    CA119044   2.180   7.498   1.565  0.0000  0.0000  0.0000
16486TPS     Si19045   2.180   7.498   1.379  0.0000  0.0000  0.0000
16486TPS    CA619046   2.221   7.612   1.637  0.0000  0.0000  0.0000
16486TPS    HH619047   2.236   7.708   1.588  0.0000  0.0000  0.0000
16486TPS    CA519048   2.244   7.605   1.776  0.0000  0.0000  0.0000
16486TPS    HA519049   2.276   7.692   1.831  0.0000  0.0000  0.0000
16486TPS    CA419050   2.221   7.484   1.844  0.0000  0.0000  0.0000
16486TPS    HA419051   2.240   7.478   1.951  0.0000  0.0000  0.0000
16486TPS    CA319052   2.174   7.372   1.774  0.0000  0.0000  0.0000
16486TPS    HA319053   2.157   7.279   1.828  0.0000  0.0000  0.0000
16487TPS    HA219054   2.877   2.127   8.187  0.0000  0.0000  0.0000
16487TPS    CA219055   2.904   2.035   8.136  0.0000  0.0000  0.0000
16487TPS    CA119056   2.929   1.916   8.206  0.0000  0.0000  0.0000
16487TPS     Si19057   2.929   1.916   8.392  0.0000  0.0000  0.0000
16487TPS    CA619058   2.970   1.802   8.134  0.0000  0.0000  0.0000
16487TPS    HH619059   2.985   1.706   8.183  0.0000  0.0000  0.0000
16487TPS    CA519060   2.993   1.809   7.995  0.0000  0.0000  0.0000
16487TPS    HA519061   3.025   1.722   7.940  0.0000  0.0000  0.0000
16487TPS    CA419062   2.970   1.930   7.927  0.0000  0.0000  0.0000
16487TPS    HA419063   2.989   1.936   7.820  0.0000  0.0000  0.0000
16487TPS    CA319064   2.923   2.042   7.997  0.0000  0.0000  0.0000
16487TPS    HA319065   2.906   2.135   7.943  0.0000  0.0000  0.0000
16488TPS    HA219066   4.764   3.388   8.057  0.0000  0.0000  0.0000
16488TPS    CA219067   4.791   3.296   8.006  0.0000  0.0000  0.0000
16488TPS    CA119068   4.816   3.177   8.076  0.0000  0.0000  0.0000
16488TPS     Si19069   4.816   3.177   8.262  0.0000  0.0000  0.0000
16488TPS    CA619070   4.857   3.063   8.004  0.0000  0.0000  0.0000
16488TPS    HH619071   4.872   2.967   8.053  0.0000  0.0000  0.0000
16488TPS    CA519072   4.880   3.070   7.865  0.0000  0.0000  0.0000
16488TPS    HA519073   4.912   2.983   7.810  0.0000  0.0000  0.0000
16488TPS    CA419074   4.857   3.191   7.797  0.0000  0.0000  0.0000
16488TPS    HA419075   4.876   3.197   7.690  0.0000  0.0000  0.0000
16488TPS    CA319076   4.810   3.303   7.867  0.0000  0.0000  0.0000
16488TPS    HA319077   4.793   3.396   7.813  0.0000  0.0000  0.0000
16489TPS    HA219078   6.487   6.480   1.376  0.0000  0.0000  0.0000
16489TPS    CA219079   6.514   6.572   1.427  0.0000  0.0000  0.0000
16489TPS    CA119080   6.539   6.691   1.357  0.0000  0.0000  0.0000
16489TPS     Si19081   6.539   6.691   1.171  0.0000  0.0000  0.0000
16489TPS    CA619082   6.580   6.805   1.429  0.0000  0.0000  0.0000
16489TPS    HH619083   6.595   6.901   1.380  0.0000  0.0000  0.0000
16489TPS    CA519084   6.603   6.798   1.568  0.0000  0.0000  0.0000
16489TPS    HA519085   6.635   6.885   1.623  0.0000  0.0000  0.0000
16489TPS    CA419086   6.580   6.677   1.636  0.0000  0.0000  0.0000
16489TPS    HA419087   6.599   6.671   1.743  0.0000  0.0000  0.0000
16489TPS    CA319088   6.533   6.565   1.566  0.0000  0.0000  0.0000
16489TPS    HA319089   6.516   6.472   1.620  0.0000  0.0000  0.0000
16490TPS    HA219090   3.838   4.996   8.208  0.0000  0.0000  0.0000
16490TPS    CA219091   3.865   4.904   8.157  0.0000  0.0000  0.0000
16490TPS    CA119092   3.890   4.785   8.227  0.0000  0.0000  0.0000
16490TPS     Si19093   3.890   4.785   8.413  0.0000  0.0000  0.0000
16490TPS    CA619094   3.931   4.671   8.155  0.0000  0.0000  0.0000
16490TPS    HH619095   3.946   4.575   8.204  0.0000  0.0000  0.0000
16490TPS    CA519096   3.954   4.678   8.016  0.0000  0.0000  0.0000
16490TPS    HA519097   3.986   4.591   7.961  0.0000  0.0000  0.0000
16490TPS    CA419098   3.931   4.799   7.948  0.0000  0.0000  0.0000
16490TPS    HA419099   3.950   4.805   7.841  0.0000  0.0000  0.0000
16490TPS    CA319100   3.884   4.911   8.018  0.0000  0.0000  0.0000
16490TPS    HA319101   3.867   5.004   7.964  0.0000  0.0000  0.0000
16491TPS    HA219102   3.286   3.516   1.512  0.0000  0.0000  0.0000
16491TPS    CA219103   3.247   3.603   1.563  0.0000  0.0000  0.0000
16491TPS    CA119104   3.190   3.711   1.493  0.0000  0.0000  0.0000
16491TPS     Si19105   3.190   3.711   1.307  0.0000  0.0000  0.0000
16491TPS    CA619106   3.148   3.825   1.565  0.0000  0.0000  0.0000
16491TPS    HH619107   3.098   3.908   1.516  0.0000  0.0000  0.0000
16491TPS    CA519108   3.170   3.833   1.704  0.0000  0.0000  0.0000
16491TPS    HA519109   3.139   3.922   1.759  0.0000  0.0000  0.0000
16491TPS    CA419110   3.230   3.727   1.772  0.0000  0.0000  0.0000
16491TPS    HA419111   3.249   3.734   1.879  0.0000  0.0000  0.0000
16491TPS    CA319112   3.266   3.611   1.702  0.0000  0.0000  0.0000
16491TPS    HA319113   3.313   3.528   1.756  0.0000  0.0000  0.0000
16492TPS    HA219114   5.570   9.125   8.219  0.0000  0.0000  0.0000
16492TPS    CA219115   5.597   9.033   8.168  0.0000  0.0000  0.0000
16492TPS    CA119116   5.622   8.914   8.238  0.0000  0.0000  0.0000
16492TPS     Si19117   5.622   8.914   8.424  0.0000  0.0000  0.0000
16492TPS    CA619118   5.663   8.800   8.166  0.0000  0.0000  0.0000
16492TPS    HH619119   5.678   8.704   8.215  0.0000  0.0000  0.0000
16492TPS    CA519120   5.686   8.807   8.027  0.0000  0.0000  0.0000
16492TPS    HA519121   5.718   8.720   7.972  0.0000  0.0000  0.0000
16492TPS    CA419122   5.663   8.928   7.959  0.0000  0.0000  0.0000
16492TPS    HA419123   5.682   8.934   7.852  0.0000  0.0000  0.0000
16492TPS    CA319124   5.616   9.040   8.029  0.0000  0.0000  0.0000
16492TPS    HA319125   5.599   9.133   7.975  0.0000  0.0000  0.0000
16493TPS    HA219126   2.135   6.585   8.149  0.0000  0.0000  0.0000
16493TPS    CA219127   2.162   6.493   8.098  0.0000  0.0000  0.0000
16493TPS    CA119128   2.187   6.374   8.168  0.0000  0.0000  0.0000
16493TPS     Si19129   2.187   6.374   8.354  0.0000  0.0000  0.0000
16493TPS    CA619130   2.228   6.260   8.096  0.0000  0.0000  0.0000
16493TPS    HH619131   2.243   6.164   8.145  0.0000  0.0000  0.0000
16493TPS    CA519132   2.251   6.267   7.957  0.0000  0.0000  0.0000
16493TPS    HA519133   2.283   6.180   7.902  0.0000  0.0000  0.0000
16493TPS    CA419134   2.228   6.388   7.889  0.0000  0.0000  0.0000
16493TPS    HA419135   2.247   6.394   7.782  0.0000  0.0000  0.0000
16493TPS    CA319136   2.181   6.500   7.959  0.0000  0.0000  0.0000
16493TPS    HA319137   2.164   6.593   7.905  0.0000  0.0000  0.0000
16494TPS    HA219138   7.728   7.013   8.093  0.0000  0.0000  0.0000
16494TPS    CA219139   7.755   6.921   8.042  0.0000  0.0000  0.0000
16494TPS    CA119140   7.780   6.802   8.112  0.0000  0.0000  0.0000
16494TPS     Si19141   7.780   6.802   8.298  0.0000  0.0000  0.0000
16494TPS    CA619142   7.821   6.688   8.040  0.0000  0.0000  0.0000
16494TPS    HH619143   7.836   6.592   8.089  0.0000  0.0000  0.0000
16494TPS    CA519144   7.844   6.695   7.901  0.0000  0.0000  0.0000
16494TPS    HA519145   7.876   6.608   7.846  0.0000  0.0000  0.0000
16494TPS    CA419146   7.821   6.816   7.833  0.0000  0.0000  0.0000
16494TPS    HA419147   7.840   6.822   7.726  0.0000  0.0000  0.0000
16494TPS    CA319148   7.774   6.928   7.903  0.0000  0.0000  0.0000
16494TPS    HA319149   7.757   7.021   7.849  0.0000  0.0000  0.0000
16495TPS    HA219150   1.004   3.472   1.410  0.0000  0.0000  0.0000
16495TPS    CA219151   1.031   3.564   1.461  0.0000  0.0000  0.0000
16495TPS    CA119152   1.056   3.683   1.391  0.0000  0.0000  0.0000
16495TPS     Si19153   1.056   3.683   1.205  0.0000  0.0000  0.0000
16495TPS    CA619154   1.097   3.797   1.463  0.0000  0.0000  0.0000
16495TPS    HH619155   1.112   3.893   1.414  0.0000  0.0000  0.0000
16495TPS    CA519156   1.120   3.790   1.602  0.0000  0.0000  0.0000
16495TPS    HA519157   1.152   3.877   1.657  0.0000  0.0000  0.0000
16495TPS    CA419158   1.097   3.669   1.670  0.0000  0.0000  0.0000
16495TPS    HA419159   1.116   3.663   1.777  0.0000  0.0000  0.0000
16495TPS    CA319160   1.050   3.557   1.600  0.0000  0.0000  0.0000
16495TPS    HA319161   1.033   3.464   1.654  0.0000  0.0000  0.0000
16496TPS    HA219162   1.854   5.664   8.049  0.0000  0.0000  0.0000
16496TPS    CA219163   1.881   5.572   7.998  0.0000  0.0000  0.0000
16496TPS    CA119164   1.906   5.453   8.068  0.0000  0.0000  0.0000
16496TPS     Si19165   1.906   5.453   8.254  0.0000  0.0000  0.0000
16496TPS    CA619166   1.947   5.339   7.996  0.0000  0.0000  0.0000
16496TPS    HH619167   1.962   5.243   8.045  0.0000  0.0000  0.0000
16496TPS    CA519168   1.970   5.346   7.857  0.0000  0.0000  0.0000
16496TPS    HA519169   2.002   5.259   7.802  0.0000  0.0000  0.0000
16496TPS    CA419170   1.947   5.467   7.789  0.0000  0.0000  0.0000
16496TPS    HA419171   1.966   5.473   7.682  0.0000  0.0000  0.0000
16496TPS    CA319172   1.900   5.579   7.859  0.0000  0.0000  0.0000
16496TPS    HA319173   1.883   5.672   7.805  0.0000  0.0000  0.0000
16497TPS    HA219174   3.640   0.474   1.513  0.0000  0.0000  0.0000
16497TPS    CA219175   3.646   0.379   1.564  0.0000  0.0000  0.0000
16497TPS    CA119176   3.663   0.258   1.494  0.0000  0.0000  0.0000
16497TPS     Si19177   3.663   0.258   1.308  0.0000  0.0000  0.0000
16497TPS    CA619178   3.663   0.137   1.566  0.0000  0.0000  0.0000
16497TPS    HH619179   3.682   0.042   1.517  0.0000  0.0000  0.0000
16497TPS    CA519180   3.640   0.136   1.705  0.0000  0.0000  0.0000
16497TPS    HA519181   3.639   0.043   1.760  0.0000  0.0000  0.0000
16497TPS    CA419182   3.620   0.257   1.773  0.0000  0.0000  0.0000
16497TPS    HA419183   3.600   0.256   1.880  0.0000  0.0000  0.0000
16497TPS    CA319184   3.626   0.378   1.703  0.0000  0.0000  0.0000
16497TPS    HA319185   3.610   0.471   1.757  0.0000  0.0000  0.0000
16498TPS    HA219186   0.607   4.176   8.284  0.0000  0.0000  0.0000
16498TPS    CA219187   0.541   4.108   8.233  0.0000  0.0000  0.0000
16498TPS    CA119188   0.450   4.026   8.303  0.0000  0.0000  0.0000
16498TPS     Si19189   0.450   4.026   8.489  0.0000  0.0000  0.0000
16498TPS    CA619190   0.372   3.933   8.231  0.0000  0.0000  0.0000
16498TPS    HH619191   0.297   3.872   8.280  0.0000  0.0000  0.0000
16498TPS    CA519192   0.389   3.918   8.092  0.0000  0.0000  0.0000
16498TPS    HA519193   0.330   3.846   8.037  0.0000  0.0000  0.0000
16498TPS    CA419194   0.482   3.997   8.024  0.0000  0.0000  0.0000
16498TPS    HA419195   0.497   3.984   7.917  0.0000  0.0000  0.0000
16498TPS    CA319196   0.556   4.094   8.094  0.0000  0.0000  0.0000
16498TPS    HA319197   0.628   4.156   8.040  0.0000  0.0000  0.0000
16499TPS    HA219198   0.725   0.723   1.508  0.0000  0.0000  0.0000
16499TPS    CA219199   0.752   0.815   1.559  0.0000  0.0000  0.0000
16499TPS    CA119200   0.777   0.934   1.489  0.0000  0.0000  0.0000
16499TPS     Si19201   0.777   0.934   1.303  0.0000  0.0000  0.0000
16499TPS    CA619202   0.818   1.048   1.561  0.0000  0.0000  0.0000
16499TPS    HH619203   0.833   1.144   1.512  0.0000  0.0000  0.0000
16499TPS    CA519204   0.841   1.041   1.700  0.0000  0.0000  0.0000
16499TPS    HA519205   0.873   1.128   1.755  0.0000  0.0000  0.0000
16499TPS    CA419206   0.818   0.920   1.768  0.0000  0.0000  0.0000
16499TPS    HA419207   0.837   0.914   1.875  0.0000  0.0000  0.0000
16499TPS    CA319208   0.771   0.808   1.698  0.0000  0.0000  0.0000
16499TPS    HA319209   0.754   0.715   1.752  0.0000  0.0000  0.0000
16500TPS    HA219210   6.005  -0.154   1.329  0.0000  0.0000  0.0000
16500TPS    CA219211   6.032  -0.062   1.380  0.0000  0.0000  0.0000
16500TPS    CA119212   6.057   0.057   1.310  0.0000  0.0000  0.0000
16500TPS     Si19213   6.057   0.057   1.124  0.0000  0.0000  0.0000
16500TPS    CA619214   6.098   0.171   1.382  0.0000  0.0000  0.0000
16500TPS    HH619215   6.113   0.267   1.333  0.0000  0.0000  0.0000
16500TPS    CA519216   6.121   0.164   1.521  0.0000  0.0000  0.0000
16500TPS    HA519217   6.153   0.251   1.576  0.0000  0.0000  0.0000
16500TPS    CA419218   6.098   0.043   1.589  0.0000  0.0000  0.0000
16500TPS    HA419219   6.117   0.037   1.696  0.0000  0.0000  0.0000
16500TPS    CA319220   6.051  -0.069   1.519  0.0000  0.0000  0.0000
16500TPS    HA319221   6.034  -0.162   1.573  0.0000  0.0000  0.0000
16501TPS    HA219222   2.556   6.677   1.474  0.0000  0.0000  0.0000
16501TPS    CA219223   2.583   6.769   1.525  0.0000  0.0000  0.0000
16501TPS    CA119224   2.608   6.888   1.455  0.0000  0.0000  0.0000
16501TPS     Si19225   2.608   6.888   1.269  0.0000  0.0000  0.0000
16501TPS    CA619226   2.649   7.002   1.527  0.0000  0.0000  0.0000
16501TPS    HH619227   2.664   7.098   1.478  0.0000  0.0000  0.0000
16501TPS    CA519228   2.672   6.995   1.666  0.0000  0.0000  0.0000
16501TPS    HA519229   2.704   7.082   1.721  0.0000  0.0000  0.0000
16501TPS    CA419230   2.649   6.874   1.734  0.0000  0.0000  0.0000
16501TPS    HA419231   2.668   6.868   1.841  0.0000  0.0000  0.0000
16501TPS    CA319232   2.602   6.762   1.664  0.0000  0.0000  0.0000
16501TPS    HA319233   2.585   6.669   1.718  0.0000  0.0000  0.0000
16502TPS    HA219234   2.945   0.953   8.037  0.0000  0.0000  0.0000
16502TPS    CA219235   2.972   0.861   7.986  0.0000  0.0000  0.0000
16502TPS    CA119236   2.997   0.742   8.056  0.0000  0.0000  0.0000
16502TPS     Si19237   2.997   0.742   8.242  0.0000  0.0000  0.0000
16502TPS    CA619238   3.038   0.628   7.984  0.0000  0.0000  0.0000
16502TPS    HH619239   3.053   0.532   8.033  0.0000  0.0000  0.0000
16502TPS    CA519240   3.061   0.635   7.845  0.0000  0.0000  0.0000
16502TPS    HA519241   3.093   0.548   7.790  0.0000  0.0000  0.0000
16502TPS    CA419242   3.038   0.756   7.777  0.0000  0.0000  0.0000
16502TPS    HA419243   3.057   0.762   7.670  0.0000  0.0000  0.0000
16502TPS    CA319244   2.991   0.868   7.847  0.0000  0.0000  0.0000
16502TPS    HA319245   2.974   0.961   7.793  0.0000  0.0000  0.0000
16503TPS    HA219246   8.463   8.077   1.426  0.0000  0.0000  0.0000
16503TPS    CA219247   8.490   8.169   1.477  0.0000  0.0000  0.0000
16503TPS    CA119248   8.515   8.288   1.407  0.0000  0.0000  0.0000
16503TPS     Si19249   8.515   8.288   1.221  0.0000  0.0000  0.0000
16503TPS    CA619250   8.556   8.402   1.479  0.0000  0.0000  0.0000
16503TPS    HH619251   8.571   8.498   1.430  0.0000  0.0000  0.0000
16503TPS    CA519252   8.579   8.395   1.618  0.0000  0.0000  0.0000
16503TPS    HA519253   8.611   8.482   1.673  0.0000  0.0000  0.0000
16503TPS    CA419254   8.556   8.274   1.686  0.0000  0.0000  0.0000
16503TPS    HA419255   8.575   8.268   1.793  0.0000  0.0000  0.0000
16503TPS    CA319256   8.509   8.162   1.616  0.0000  0.0000  0.0000
16503TPS    HA319257   8.492   8.069   1.670  0.0000  0.0000  0.0000
16504TPS    HA219258   9.275   4.118   8.180  0.0000  0.0000  0.0000
16504TPS    CA219259   9.302   4.026   8.129  0.0000  0.0000  0.0000
16504TPS    CA119260   9.327   3.907   8.199  0.0000  0.0000  0.0000
16504TPS     Si19261   9.327   3.907   8.385  0.0000  0.0000  0.0000
16504TPS    CA619262   9.368   3.793   8.127  0.0000  0.0000  0.0000
16504TPS    HH619263   9.383   3.697   8.176  0.0000  0.0000  0.0000
16504TPS    CA519264   9.391   3.800   7.988  0.0000  0.0000  0.0000
16504TPS    HA519265   9.423   3.713   7.933  0.0000  0.0000  0.0000
16504TPS    CA419266   9.368   3.921   7.920  0.0000  0.0000  0.0000
16504TPS    HA419267   9.387   3.927   7.813  0.0000  0.0000  0.0000
16504TPS    CA319268   9.321   4.033   7.990  0.0000  0.0000  0.0000
16504TPS    HA319269   9.304   4.126   7.936  0.0000  0.0000  0.0000
16505TPS    HA219270   7.286   7.743   8.036  0.0000  0.0000  0.0000
16505TPS    CA219271   7.280   7.648   7.985  0.0000  0.0000  0.0000
16505TPS    CA119272   7.263   7.527   8.055  0.0000  0.0000  0.0000
16505TPS     Si19273   7.263   7.527   8.241  0.0000  0.0000  0.0000
16505TPS    CA619274   7.263   7.406   7.983  0.0000  0.0000  0.0000
16505TPS    HH619275   7.244   7.311   8.032  0.0000  0.0000  0.0000
16505TPS    CA519276   7.286   7.405   7.844  0.0000  0.0000  0.0000
16505TPS    HA519277   7.287   7.312   7.789  0.0000  0.0000  0.0000
16505TPS    CA419278   7.306   7.526   7.776  0.0000  0.0000  0.0000
16505TPS    HA419279   7.326   7.525   7.669  0.0000  0.0000  0.0000
16505TPS    CA319280   7.300   7.647   7.846  0.0000  0.0000  0.0000
16505TPS    HA319281   7.316   7.740   7.792  0.0000  0.0000  0.0000
16506TPS    HA219282   3.653   4.623   1.343  0.0000  0.0000  0.0000
16506TPS    CA219283   3.680   4.715   1.394  0.0000  0.0000  0.0000
16506TPS    CA119284   3.705   4.834   1.324  0.0000  0.0000  0.0000
16506TPS     Si19285   3.705   4.834   1.138  0.0000  0.0000  0.0000
16506TPS    CA619286   3.746   4.948   1.396  0.0000  0.0000  0.0000
16506TPS    HH619287   3.761   5.044   1.347  0.0000  0.0000  0.0000
16506TPS    CA519288   3.769   4.941   1.535  0.0000  0.0000  0.0000
16506TPS    HA519289   3.801   5.028   1.590  0.0000  0.0000  0.0000
16506TPS    CA419290   3.746   4.820   1.603  0.0000  0.0000  0.0000
16506TPS    HA419291   3.765   4.814   1.710  0.0000  0.0000  0.0000
16506TPS    CA319292   3.699   4.708   1.533  0.0000  0.0000  0.0000
16506TPS    HA319293   3.682   4.615   1.587  0.0000  0.0000  0.0000
16507TPS    HA219294   0.471   6.139   1.481  0.0000  0.0000  0.0000
16507TPS    CA219295   0.498   6.231   1.532  0.0000  0.0000  0.0000
16507TPS    CA119296   0.523   6.350   1.462  0.0000  0.0000  0.0000
16507TPS     Si19297   0.523   6.350   1.276  0.0000  0.0000  0.0000
16507TPS    CA619298   0.564   6.464   1.534  0.0000  0.0000  0.0000
16507TPS    HH619299   0.579   6.560   1.485  0.0000  0.0000  0.0000
16507TPS    CA519300   0.587   6.457   1.673  0.0000  0.0000  0.0000
16507TPS    HA519301   0.619   6.544   1.728  0.0000  0.0000  0.0000
16507TPS    CA419302   0.564   6.336   1.741  0.0000  0.0000  0.0000
16507TPS    HA419303   0.583   6.330   1.848  0.0000  0.0000  0.0000
16507TPS    CA319304   0.517   6.224   1.671  0.0000  0.0000  0.0000
16507TPS    HA319305   0.500   6.131   1.725  0.0000  0.0000  0.0000
16508TPS    HA219306   4.444   1.333   1.498  0.0000  0.0000  0.0000
16508TPS    CA219307   4.438   1.428   1.549  0.0000  0.0000  0.0000
16508TPS    CA119308   4.421   1.549   1.479  0.0000  0.0000  0.0000
16508TPS     Si19309   4.421   1.549   1.293  0.0000  0.0000  0.0000
16508TPS    CA619310   4.421   1.670   1.551  0.0000  0.0000  0.0000
16508TPS    HH619311   4.402   1.765   1.502  0.0000  0.0000  0.0000
16508TPS    CA519312   4.444   1.671   1.690  0.0000  0.0000  0.0000
16508TPS    HA519313   4.445   1.764   1.745  0.0000  0.0000  0.0000
16508TPS    CA419314   4.464   1.550   1.758  0.0000  0.0000  0.0000
16508TPS    HA419315   4.484   1.551   1.865  0.0000  0.0000  0.0000
16508TPS    CA319316   4.458   1.429   1.688  0.0000  0.0000  0.0000
16508TPS    HA319317   4.474   1.336   1.742  0.0000  0.0000  0.0000
16509TPS    HA219318   6.161   4.115   1.538  0.0000  0.0000  0.0000
16509TPS    CA219319   6.188   4.207   1.589  0.0000  0.0000  0.0000
16509TPS    CA119320   6.213   4.326   1.519  0.0000  0.0000  0.0000
16509TPS     Si19321   6.213   4.326   1.333  0.0000  0.0000  0.0000
16509TPS    CA619322   6.254   4.440   1.591  0.0000  0.0000  0.0000
16509TPS    HH619323   6.269   4.536   1.542  0.0000  0.0000  0.0000
16509TPS    CA519324   6.277   4.433   1.730  0.0000  0.0000  0.0000
16509TPS    HA519325   6.309   4.520   1.785  0.0000  0.0000  0.0000
16509TPS    CA419326   6.254   4.312   1.798  0.0000  0.0000  0.0000
16509TPS    HA419327   6.273   4.306   1.905  0.0000  0.0000  0.0000
16509TPS    CA319328   6.207   4.200   1.728  0.0000  0.0000  0.0000
16509TPS    HA319329   6.190   4.107   1.782  0.0000  0.0000  0.0000
16510TPS    HA219330   7.887   8.815   1.440  0.0000  0.0000  0.0000
16510TPS    CA219331   7.801   8.857   1.491  0.0000  0.0000  0.0000
16510TPS    CA119332   7.688   8.903   1.421  0.0000  0.0000  0.0000
16510TPS     Si19333   7.688   8.903   1.235  0.0000  0.0000  0.0000
16510TPS    CA619334   7.583   8.963   1.493  0.0000  0.0000  0.0000
16510TPS    HH619335   7.491   8.995   1.444  0.0000  0.0000  0.0000
16510TPS    CA519336   7.594   8.984   1.632  0.0000  0.0000  0.0000
16510TPS    HA519337   7.513   9.031   1.687  0.0000  0.0000  0.0000
16510TPS    CA419338   7.709   8.941   1.700  0.0000  0.0000  0.0000
16510TPS    HA419339   7.718   8.959   1.807  0.0000  0.0000  0.0000
16510TPS    CA319340   7.811   8.875   1.630  0.0000  0.0000  0.0000
16510TPS    HA319341   7.899   8.842   1.684  0.0000  0.0000  0.0000
16511TPS    HA219342   6.681   3.560   8.182  0.0000  0.0000  0.0000
16511TPS    CA219343   6.737   3.482   8.131  0.0000  0.0000  0.0000
16511TPS    CA119344   6.802   3.379   8.201  0.0000  0.0000  0.0000
16511TPS     Si19345   6.802   3.379   8.387  0.0000  0.0000  0.0000
16511TPS    CA619346   6.880   3.286   8.129  0.0000  0.0000  0.0000
16511TPS    HH619347   6.927   3.201   8.178  0.0000  0.0000  0.0000
16511TPS    CA519348   6.898   3.301   7.990  0.0000  0.0000  0.0000
16511TPS    HA519349   6.959   3.229   7.935  0.0000  0.0000  0.0000
16511TPS    CA419350   6.836   3.406   7.922  0.0000  0.0000  0.0000
16511TPS    HA419351   6.852   3.418   7.815  0.0000  0.0000  0.0000
16511TPS    CA319352   6.753   3.495   7.992  0.0000  0.0000  0.0000
16511TPS    HA319353   6.705   3.577   7.938  0.0000  0.0000  0.0000
16512TPS    HA219354   0.985   4.678   8.126  0.0000  0.0000  0.0000
16512TPS    CA219355   1.012   4.586   8.075  0.0000  0.0000  0.0000
16512TPS    CA119356   1.037   4.467   8.145  0.0000  0.0000  0.0000
16512TPS     Si19357   1.037   4.467   8.331  0.0000  0.0000  0.0000
16512TPS    CA619358   1.078   4.353   8.073  0.0000  0.0000  0.0000
16512TPS    HH619359   1.093   4.257   8.122  0.0000  0.0000  0.0000
16512TPS    CA519360   1.101   4.360   7.934  0.0000  0.0000  0.0000
16512TPS    HA519361   1.133   4.273   7.879  0.0000  0.0000  0.0000
16512TPS    CA419362   1.078   4.481   7.866  0.0000  0.0000  0.0000
16512TPS    HA419363   1.097   4.487   7.759  0.0000  0.0000  0.0000
16512TPS    CA319364   1.031   4.593   7.936  0.0000  0.0000  0.0000
16512TPS    HA319365   1.014   4.686   7.882  0.0000  0.0000  0.0000
16513TPS    HA219366   6.074   5.633   1.482  0.0000  0.0000  0.0000
16513TPS    CA219367   6.101   5.725   1.533  0.0000  0.0000  0.0000
16513TPS    CA119368   6.126   5.844   1.463  0.0000  0.0000  0.0000
16513TPS     Si19369   6.126   5.844   1.277  0.0000  0.0000  0.0000
16513TPS    CA619370   6.167   5.958   1.535  0.0000  0.0000  0.0000
16513TPS    HH619371   6.182   6.054   1.486  0.0000  0.0000  0.0000
16513TPS    CA519372   6.190   5.951   1.674  0.0000  0.0000  0.0000
16513TPS    HA519373   6.222   6.038   1.729  0.0000  0.0000  0.0000
16513TPS    CA419374   6.167   5.830   1.742  0.0000  0.0000  0.0000
16513TPS    HA419375   6.186   5.824   1.849  0.0000  0.0000  0.0000
16513TPS    CA319376   6.120   5.718   1.672  0.0000  0.0000  0.0000
16513TPS    HA319377   6.103   5.625   1.726  0.0000  0.0000  0.0000
16514TPS    HA219378   7.387   4.157   1.390  0.0000  0.0000  0.0000
16514TPS    CA219379   7.414   4.249   1.441  0.0000  0.0000  0.0000
16514TPS    CA119380   7.439   4.368   1.371  0.0000  0.0000  0.0000
16514TPS     Si19381   7.439   4.368   1.185  0.0000  0.0000  0.0000
16514TPS    CA619382   7.480   4.482   1.443  0.0000  0.0000  0.0000
16514TPS    HH619383   7.495   4.578   1.394  0.0000  0.0000  0.0000
16514TPS    CA519384   7.503   4.475   1.582  0.0000  0.0000  0.0000
16514TPS    HA519385   7.535   4.562   1.637  0.0000  0.0000  0.0000
16514TPS    CA419386   7.480   4.354   1.650  0.0000  0.0000  0.0000
16514TPS    HA419387   7.499   4.348   1.757  0.0000  0.0000  0.0000
16514TPS    CA319388   7.433   4.242   1.580  0.0000  0.0000  0.0000
16514TPS    HA319389   7.416   4.149   1.634  0.0000  0.0000  0.0000
16515TPS    HA219390   2.671   5.720   8.068  0.0000  0.0000  0.0000
16515TPS    CA219391   2.698   5.628   8.017  0.0000  0.0000  0.0000
16515TPS    CA119392   2.723   5.509   8.087  0.0000  0.0000  0.0000
16515TPS     Si19393   2.723   5.509   8.273  0.0000  0.0000  0.0000
16515TPS    CA619394   2.764   5.395   8.015  0.0000  0.0000  0.0000
16515TPS    HH619395   2.779   5.299   8.064  0.0000  0.0000  0.0000
16515TPS    CA519396   2.787   5.402   7.876  0.0000  0.0000  0.0000
16515TPS    HA519397   2.819   5.315   7.821  0.0000  0.0000  0.0000
16515TPS    CA419398   2.764   5.523   7.808  0.0000  0.0000  0.0000
16515TPS    HA419399   2.783   5.529   7.701  0.0000  0.0000  0.0000
16515TPS    CA319400   2.717   5.635   7.878  0.0000  0.0000  0.0000
16515TPS    HA319401   2.700   5.728   7.824  0.0000  0.0000  0.0000
16516TPS    HA219402   9.501   7.543   1.559  0.0000  0.0000  0.0000
16516TPS    CA219403   9.528   7.635   1.610  0.0000  0.0000  0.0000
16516TPS    CA119404   9.553   7.754   1.540  0.0000  0.0000  0.0000
16516TPS     Si19405   9.553   7.754   1.354  0.0000  0.0000  0.0000
16516TPS    CA619406   9.594   7.868   1.612  0.0000  0.0000  0.0000
16516TPS    HH619407   9.609   7.964   1.563  0.0000  0.0000  0.0000
16516TPS    CA519408   9.617   7.861   1.751  0.0000  0.0000  0.0000
16516TPS    HA519409   9.649   7.948   1.806  0.0000  0.0000  0.0000
16516TPS    CA419410   9.594   7.740   1.819  0.0000  0.0000  0.0000
16516TPS    HA419411   9.613   7.734   1.926  0.0000  0.0000  0.0000
16516TPS    CA319412   9.547   7.628   1.749  0.0000  0.0000  0.0000
16516TPS    HA319413   9.530   7.535   1.803  0.0000  0.0000  0.0000
16517TPS    HA219414   5.822   5.721   8.150  0.0000  0.0000  0.0000
16517TPS    CA219415   5.849   5.629   8.099  0.0000  0.0000  0.0000
16517TPS    CA119416   5.874   5.510   8.169  0.0000  0.0000  0.0000
16517TPS     Si19417   5.874   5.510   8.355  0.0000  0.0000  0.0000
16517TPS    CA619418   5.915   5.396   8.097  0.0000  0.0000  0.0000
16517TPS    HH619419   5.930   5.300   8.146  0.0000  0.0000  0.0000
16517TPS    CA519420   5.938   5.403   7.958  0.0000  0.0000  0.0000
16517TPS    HA519421   5.970   5.316   7.903  0.0000  0.0000  0.0000
16517TPS    CA419422   5.915   5.524   7.890  0.0000  0.0000  0.0000
16517TPS    HA419423   5.934   5.530   7.783  0.0000  0.0000  0.0000
16517TPS    CA319424   5.868   5.636   7.960  0.0000  0.0000  0.0000
16517TPS    HA319425   5.851   5.729   7.906  0.0000  0.0000  0.0000
16518TPS    HA219426   9.351   7.796   8.091  0.0000  0.0000  0.0000
16518TPS    CA219427   9.378   7.704   8.040  0.0000  0.0000  0.0000
16518TPS    CA119428   9.403   7.585   8.110  0.0000  0.0000  0.0000
16518TPS     Si19429   9.403   7.585   8.296  0.0000  0.0000  0.0000
16518TPS    CA619430   9.444   7.471   8.038  0.0000  0.0000  0.0000
16518TPS    HH619431   9.459   7.375   8.087  0.0000  0.0000  0.0000
16518TPS    CA519432   9.467   7.478   7.899  0.0000  0.0000  0.0000
16518TPS    HA519433   9.499   7.391   7.844  0.0000  0.0000  0.0000
16518TPS    CA419434   9.444   7.599   7.831  0.0000  0.0000  0.0000
16518TPS    HA419435   9.463   7.605   7.724  0.0000  0.0000  0.0000
16518TPS    CA319436   9.397   7.711   7.901  0.0000  0.0000  0.0000
16518TPS    HA319437   9.380   7.804   7.847  0.0000  0.0000  0.0000
16519TPS    HA219438   9.604   1.307   8.130  0.0000  0.0000  0.0000
16519TPS    CA219439   9.598   1.212   8.079  0.0000  0.0000  0.0000
16519TPS    CA119440   9.581   1.091   8.149  0.0000  0.0000  0.0000
16519TPS     Si19441   9.581   1.091   8.335  0.0000  0.0000  0.0000
16519TPS    CA619442   9.581   0.970   8.077  0.0000  0.0000  0.0000
16519TPS    HH619443   9.562   0.875   8.126  0.0000  0.0000  0.0000
16519TPS    CA519444   9.604   0.969   7.938  0.0000  0.0000  0.0000
16519TPS    HA519445   9.605   0.876   7.883  0.0000  0.0000  0.0000
16519TPS    CA419446   9.624   1.090   7.870  0.0000  0.0000  0.0000
16519TPS    HA419447   9.644   1.089   7.763  0.0000  0.0000  0.0000
16519TPS    CA319448   9.618   1.211   7.940  0.0000  0.0000  0.0000
16519TPS    HA319449   9.634   1.304   7.886  0.0000  0.0000  0.0000
16520TPS    HA219450   0.857   4.434   1.617  0.0000  0.0000  0.0000
16520TPS    CA219451   0.884   4.526   1.668  0.0000  0.0000  0.0000
16520TPS    CA119452   0.909   4.645   1.598  0.0000  0.0000  0.0000
16520TPS     Si19453   0.909   4.645   1.412  0.0000  0.0000  0.0000
16520TPS    CA619454   0.950   4.759   1.670  0.0000  0.0000  0.0000
16520TPS    HH619455   0.965   4.855   1.621  0.0000  0.0000  0.0000
16520TPS    CA519456   0.973   4.752   1.809  0.0000  0.0000  0.0000
16520TPS    HA519457   1.005   4.839   1.864  0.0000  0.0000  0.0000
16520TPS    CA419458   0.950   4.631   1.877  0.0000  0.0000  0.0000
16520TPS    HA419459   0.969   4.625   1.984  0.0000  0.0000  0.0000
16520TPS    CA319460   0.903   4.519   1.807  0.0000  0.0000  0.0000
16520TPS    HA319461   0.886   4.426   1.861  0.0000  0.0000  0.0000
16521TPS    HA219462   1.895   5.123   8.117  0.0000  0.0000  0.0000
16521TPS    CA219463   1.889   5.028   8.066  0.0000  0.0000  0.0000
16521TPS    CA119464   1.872   4.907   8.136  0.0000  0.0000  0.0000
16521TPS     Si19465   1.872   4.907   8.322  0.0000  0.0000  0.0000
16521TPS    CA619466   1.872   4.786   8.064  0.0000  0.0000  0.0000
16521TPS    HH619467   1.853   4.691   8.113  0.0000  0.0000  0.0000
16521TPS    CA519468   1.895   4.785   7.925  0.0000  0.0000  0.0000
16521TPS    HA519469   1.896   4.692   7.870  0.0000  0.0000  0.0000
16521TPS    CA419470   1.915   4.906   7.857  0.0000  0.0000  0.0000
16521TPS    HA419471   1.935   4.905   7.750  0.0000  0.0000  0.0000
16521TPS    CA319472   1.909   5.027   7.927  0.0000  0.0000  0.0000
16521TPS    HA319473   1.925   5.120   7.873  0.0000  0.0000  0.0000
16522TPS    HA219474   4.227   1.462   8.265  0.0000  0.0000  0.0000
16522TPS    CA219475   4.254   1.370   8.214  0.0000  0.0000  0.0000
16522TPS    CA119476   4.279   1.251   8.284  0.0000  0.0000  0.0000
16522TPS     Si19477   4.279   1.251   8.470  0.0000  0.0000  0.0000
16522TPS    CA619478   4.320   1.137   8.212  0.0000  0.0000  0.0000
16522TPS    HH619479   4.335   1.041   8.261  0.0000  0.0000  0.0000
16522TPS    CA519480   4.343   1.144   8.073  0.0000  0.0000  0.0000
16522TPS    HA519481   4.375   1.057   8.018  0.0000  0.0000  0.0000
16522TPS    CA419482   4.320   1.265   8.005  0.0000  0.0000  0.0000
16522TPS    HA419483   4.339   1.271   7.898  0.0000  0.0000  0.0000
16522TPS    CA319484   4.273   1.377   8.075  0.0000  0.0000  0.0000
16522TPS    HA319485   4.256   1.470   8.021  0.0000  0.0000  0.0000
16523TPS    HA219486   8.433   6.132   1.540  0.0000  0.0000  0.0000
16523TPS    CA219487   8.460   6.224   1.591  0.0000  0.0000  0.0000
16523TPS    CA119488   8.485   6.343   1.521  0.0000  0.0000  0.0000
16523TPS     Si19489   8.485   6.343   1.335  0.0000  0.0000  0.0000
16523TPS    CA619490   8.526   6.457   1.593  0.0000  0.0000  0.0000
16523TPS    HH619491   8.541   6.553   1.544  0.0000  0.0000  0.0000
16523TPS    CA519492   8.549   6.450   1.732  0.0000  0.0000  0.0000
16523TPS    HA519493   8.581   6.537   1.787  0.0000  0.0000  0.0000
16523TPS    CA419494   8.526   6.329   1.800  0.0000  0.0000  0.0000
16523TPS    HA419495   8.545   6.323   1.907  0.0000  0.0000  0.0000
16523TPS    CA319496   8.479   6.217   1.730  0.0000  0.0000  0.0000
16523TPS    HA319497   8.462   6.124   1.784  0.0000  0.0000  0.0000
16524TPS    HA219498   9.072   1.346   1.476  0.0000  0.0000  0.0000
16524TPS    CA219499   9.099   1.438   1.527  0.0000  0.0000  0.0000
16524TPS    CA119500   9.124   1.557   1.457  0.0000  0.0000  0.0000
16524TPS     Si19501   9.124   1.557   1.271  0.0000  0.0000  0.0000
16524TPS    CA619502   9.165   1.671   1.529  0.0000  0.0000  0.0000
16524TPS    HH619503   9.180   1.767   1.480  0.0000  0.0000  0.0000
16524TPS    CA519504   9.188   1.664   1.668  0.0000  0.0000  0.0000
16524TPS    HA519505   9.220   1.751   1.723  0.0000  0.0000  0.0000
16524TPS    CA419506   9.165   1.543   1.736  0.0000  0.0000  0.0000
16524TPS    HA419507   9.184   1.537   1.843  0.0000  0.0000  0.0000
16524TPS    CA319508   9.118   1.431   1.666  0.0000  0.0000  0.0000
16524TPS    HA319509   9.101   1.338   1.720  0.0000  0.0000  0.0000
16525TPS    HA219510   2.513   8.839   1.353  0.0000  0.0000  0.0000
16525TPS    CA219511   2.540   8.931   1.404  0.0000  0.0000  0.0000
16525TPS    CA119512   2.565   9.050   1.334  0.0000  0.0000  0.0000
16525TPS     Si19513   2.565   9.050   1.148  0.0000  0.0000  0.0000
16525TPS    CA619514   2.606   9.164   1.406  0.0000  0.0000  0.0000
16525TPS    HH619515   2.621   9.260   1.357  0.0000  0.0000  0.0000
16525TPS    CA519516   2.629   9.157   1.545  0.0000  0.0000  0.0000
16525TPS    HA519517   2.661   9.244   1.600  0.0000  0.0000  0.0000
16525TPS    CA419518   2.606   9.036   1.613  0.0000  0.0000  0.0000
16525TPS    HA419519   2.625   9.030   1.720  0.0000  0.0000  0.0000
16525TPS    CA319520   2.559   8.924   1.543  0.0000  0.0000  0.0000
16525TPS    HA319521   2.542   8.831   1.597  0.0000  0.0000  0.0000
16526TPS    HA219522   2.479   4.199   1.383  0.0000  0.0000  0.0000
16526TPS    CA219523   2.506   4.291   1.434  0.0000  0.0000  0.0000
16526TPS    CA119524   2.531   4.410   1.364  0.0000  0.0000  0.0000
16526TPS     Si19525   2.531   4.410   1.178  0.0000  0.0000  0.0000
16526TPS    CA619526   2.572   4.524   1.436  0.0000  0.0000  0.0000
16526TPS    HH619527   2.587   4.620   1.387  0.0000  0.0000  0.0000
16526TPS    CA519528   2.595   4.517   1.575  0.0000  0.0000  0.0000
16526TPS    HA519529   2.627   4.604   1.630  0.0000  0.0000  0.0000
16526TPS    CA419530   2.572   4.396   1.643  0.0000  0.0000  0.0000
16526TPS    HA419531   2.591   4.390   1.750  0.0000  0.0000  0.0000
16526TPS    CA319532   2.525   4.284   1.573  0.0000  0.0000  0.0000
16526TPS    HA319533   2.508   4.191   1.627  0.0000  0.0000  0.0000
16527TPS    HA219534   5.122   9.070   1.526  0.0000  0.0000  0.0000
16527TPS    CA219535   5.149   9.162   1.577  0.0000  0.0000  0.0000
16527TPS    CA119536   5.174   9.281   1.507  0.0000  0.0000  0.0000
16527TPS     Si19537   5.174   9.281   1.321  0.0000  0.0000  0.0000
16527TPS    CA619538   5.215   9.395   1.579  0.0000  0.0000  0.0000
16527TPS    HH619539   5.230   9.491   1.530  0.0000  0.0000  0.0000
16527TPS    CA519540   5.238   9.388   1.718  0.0000  0.0000  0.0000
16527TPS    HA519541   5.270   9.475   1.773  0.0000  0.0000  0.0000
16527TPS    CA419542   5.215   9.267   1.786  0.0000  0.0000  0.0000
16527TPS    HA419543   5.234   9.261   1.893  0.0000  0.0000  0.0000
16527TPS    CA319544   5.168   9.155   1.716  0.0000  0.0000  0.0000
16527TPS    HA319545   5.151   9.062   1.770  0.0000  0.0000  0.0000
16528TPS    HA219546   4.014   1.720   1.365  0.0000  0.0000  0.0000
16528TPS    CA219547   4.041   1.812   1.416  0.0000  0.0000  0.0000
16528TPS    CA119548   4.066   1.931   1.346  0.0000  0.0000  0.0000
16528TPS     Si19549   4.066   1.931   1.160  0.0000  0.0000  0.0000
16528TPS    CA619550   4.107   2.045   1.418  0.0000  0.0000  0.0000
16528TPS    HH619551   4.122   2.141   1.369  0.0000  0.0000  0.0000
16528TPS    CA519552   4.130   2.038   1.557  0.0000  0.0000  0.0000
16528TPS    HA519553   4.162   2.125   1.612  0.0000  0.0000  0.0000
16528TPS    CA419554   4.107   1.917   1.625  0.0000  0.0000  0.0000
16528TPS    HA419555   4.126   1.911   1.732  0.0000  0.0000  0.0000
16528TPS    CA319556   4.060   1.805   1.555  0.0000  0.0000  0.0000
16528TPS    HA319557   4.043   1.712   1.609  0.0000  0.0000  0.0000
16529TPS    HA219558   8.093   4.102   8.067  0.0000  0.0000  0.0000
16529TPS    CA219559   8.120   4.010   8.016  0.0000  0.0000  0.0000
16529TPS    CA119560   8.145   3.891   8.086  0.0000  0.0000  0.0000
16529TPS     Si19561   8.145   3.891   8.272  0.0000  0.0000  0.0000
16529TPS    CA619562   8.186   3.777   8.014  0.0000  0.0000  0.0000
16529TPS    HH619563   8.201   3.681   8.063  0.0000  0.0000  0.0000
16529TPS    CA519564   8.209   3.784   7.875  0.0000  0.0000  0.0000
16529TPS    HA519565   8.241   3.697   7.820  0.0000  0.0000  0.0000
16529TPS    CA419566   8.186   3.905   7.807  0.0000  0.0000  0.0000
16529TPS    HA419567   8.205   3.911   7.700  0.0000  0.0000  0.0000
16529TPS    CA319568   8.139   4.017   7.877  0.0000  0.0000  0.0000
16529TPS    HA319569   8.122   4.110   7.823  0.0000  0.0000  0.0000
16530TPS    HA219570   8.191   5.672   7.990  0.0000  0.0000  0.0000
16530TPS    CA219571   8.218   5.580   7.939  0.0000  0.0000  0.0000
16530TPS    CA119572   8.243   5.461   8.009  0.0000  0.0000  0.0000
16530TPS     Si19573   8.243   5.461   8.195  0.0000  0.0000  0.0000
16530TPS    CA619574   8.284   5.347   7.937  0.0000  0.0000  0.0000
16530TPS    HH619575   8.299   5.251   7.986  0.0000  0.0000  0.0000
16530TPS    CA519576   8.307   5.354   7.798  0.0000  0.0000  0.0000
16530TPS    HA519577   8.339   5.267   7.743  0.0000  0.0000  0.0000
16530TPS    CA419578   8.284   5.475   7.730  0.0000  0.0000  0.0000
16530TPS    HA419579   8.303   5.481   7.623  0.0000  0.0000  0.0000
16530TPS    CA319580   8.237   5.587   7.800  0.0000  0.0000  0.0000
16530TPS    HA319581   8.220   5.680   7.746  0.0000  0.0000  0.0000
16531TPS    HA219582   7.132   8.884   7.980  0.0000  0.0000  0.0000
16531TPS    CA219583   7.159   8.792   7.929  0.0000  0.0000  0.0000
16531TPS    CA119584   7.184   8.673   7.999  0.0000  0.0000  0.0000
16531TPS     Si19585   7.184   8.673   8.185  0.0000  0.0000  0.0000
16531TPS    CA619586   7.225   8.559   7.927  0.0000  0.0000  0.0000
16531TPS    HH619587   7.240   8.463   7.976  0.0000  0.0000  0.0000
16531TPS    CA519588   7.248   8.566   7.788  0.0000  0.0000  0.0000
16531TPS    HA519589   7.280   8.479   7.733  0.0000  0.0000  0.0000
16531TPS    CA419590   7.225   8.687   7.720  0.0000  0.0000  0.0000
16531TPS    HA419591   7.244   8.693   7.613  0.0000  0.0000  0.0000
16531TPS    CA319592   7.178   8.799   7.790  0.0000  0.0000  0.0000
16531TPS    HA319593   7.161   8.892   7.736  0.0000  0.0000  0.0000
16532TPS    HA219594   5.322   1.930   7.990  0.0000  0.0000  0.0000
16532TPS    CA219595   5.316   1.835   7.939  0.0000  0.0000  0.0000
16532TPS    CA119596   5.299   1.714   8.009  0.0000  0.0000  0.0000
16532TPS     Si19597   5.299   1.714   8.195  0.0000  0.0000  0.0000
16532TPS    CA619598   5.299   1.593   7.937  0.0000  0.0000  0.0000
16532TPS    HH619599   5.280   1.498   7.986  0.0000  0.0000  0.0000
16532TPS    CA519600   5.322   1.592   7.798  0.0000  0.0000  0.0000
16532TPS    HA519601   5.323   1.499   7.743  0.0000  0.0000  0.0000
16532TPS    CA419602   5.342   1.713   7.730  0.0000  0.0000  0.0000
16532TPS    HA419603   5.362   1.712   7.623  0.0000  0.0000  0.0000
16532TPS    CA319604   5.336   1.834   7.800  0.0000  0.0000  0.0000
16532TPS    HA319605   5.352   1.927   7.746  0.0000  0.0000  0.0000
16533TPS    HA219606   3.524   6.571   8.028  0.0000  0.0000  0.0000
16533TPS    CA219607   3.551   6.479   7.977  0.0000  0.0000  0.0000
16533TPS    CA119608   3.576   6.360   8.047  0.0000  0.0000  0.0000
16533TPS     Si19609   3.576   6.360   8.233  0.0000  0.0000  0.0000
16533TPS    CA619610   3.617   6.246   7.975  0.0000  0.0000  0.0000
16533TPS    HH619611   3.632   6.150   8.024  0.0000  0.0000  0.0000
16533TPS    CA519612   3.640   6.253   7.836  0.0000  0.0000  0.0000
16533TPS    HA519613   3.672   6.166   7.781  0.0000  0.0000  0.0000
16533TPS    CA419614   3.617   6.374   7.768  0.0000  0.0000  0.0000
16533TPS    HA419615   3.636   6.380   7.661  0.0000  0.0000  0.0000
16533TPS    CA319616   3.570   6.486   7.838  0.0000  0.0000  0.0000
16533TPS    HA319617   3.553   6.579   7.784  0.0000  0.0000  0.0000
16534TPS    HA219618   4.244   9.696   8.215  0.0000  0.0000  0.0000
16534TPS    CA219619   4.271   9.604   8.164  0.0000  0.0000  0.0000
16534TPS    CA119620   4.296   9.485   8.234  0.0000  0.0000  0.0000
16534TPS     Si19621   4.296   9.485   8.420  0.0000  0.0000  0.0000
16534TPS    CA619622   4.337   9.371   8.162  0.0000  0.0000  0.0000
16534TPS    HH619623   4.352   9.275   8.211  0.0000  0.0000  0.0000
16534TPS    CA519624   4.360   9.378   8.023  0.0000  0.0000  0.0000
16534TPS    HA519625   4.392   9.291   7.968  0.0000  0.0000  0.0000
16534TPS    CA419626   4.337   9.499   7.955  0.0000  0.0000  0.0000
16534TPS    HA419627   4.356   9.505   7.848  0.0000  0.0000  0.0000
16534TPS    CA319628   4.290   9.611   8.025  0.0000  0.0000  0.0000
16534TPS    HA319629   4.273   9.704   7.971  0.0000  0.0000  0.0000
16535TPS    HA219630   8.292   7.264   1.466  0.0000  0.0000  0.0000
16535TPS    CA219631   8.319   7.356   1.517  0.0000  0.0000  0.0000
16535TPS    CA119632   8.344   7.475   1.447  0.0000  0.0000  0.0000
16535TPS     Si19633   8.344   7.475   1.261  0.0000  0.0000  0.0000
16535TPS    CA619634   8.385   7.589   1.519  0.0000  0.0000  0.0000
16535TPS    HH619635   8.400   7.685   1.470  0.0000  0.0000  0.0000
16535TPS    CA519636   8.408   7.582   1.658  0.0000  0.0000  0.0000
16535TPS    HA519637   8.440   7.669   1.713  0.0000  0.0000  0.0000
16535TPS    CA419638   8.385   7.461   1.726  0.0000  0.0000  0.0000
16535TPS    HA419639   8.404   7.455   1.833  0.0000  0.0000  0.0000
16535TPS    CA319640   8.338   7.349   1.656  0.0000  0.0000  0.0000
16535TPS    HA319641   8.321   7.256   1.710  0.0000  0.0000  0.0000
16536TPS    HA219642   0.959   7.311   1.395  0.0000  0.0000  0.0000
16536TPS    CA219643   0.986   7.403   1.446  0.0000  0.0000  0.0000
16536TPS    CA119644   1.011   7.522   1.376  0.0000  0.0000  0.0000
16536TPS     Si19645   1.011   7.522   1.190  0.0000  0.0000  0.0000
16536TPS    CA619646   1.052   7.636   1.448  0.0000  0.0000  0.0000
16536TPS    HH619647   1.067   7.732   1.399  0.0000  0.0000  0.0000
16536TPS    CA519648   1.075   7.629   1.587  0.0000  0.0000  0.0000
16536TPS    HA519649   1.107   7.716   1.642  0.0000  0.0000  0.0000
16536TPS    CA419650   1.052   7.508   1.655  0.0000  0.0000  0.0000
16536TPS    HA419651   1.071   7.502   1.762  0.0000  0.0000  0.0000
16536TPS    CA319652   1.005   7.396   1.585  0.0000  0.0000  0.0000
16536TPS    HA319653   0.988   7.303   1.639  0.0000  0.0000  0.0000
16537TPS    HA219654   5.415  -0.125   1.407  0.0000  0.0000  0.0000
16537TPS    CA219655   5.442  -0.033   1.458  0.0000  0.0000  0.0000
16537TPS    CA119656   5.467   0.086   1.388  0.0000  0.0000  0.0000
16537TPS     Si19657   5.467   0.086   1.202  0.0000  0.0000  0.0000
16537TPS    CA619658   5.508   0.200   1.460  0.0000  0.0000  0.0000
16537TPS    HH619659   5.523   0.296   1.411  0.0000  0.0000  0.0000
16537TPS    CA519660   5.531   0.193   1.599  0.0000  0.0000  0.0000
16537TPS    HA519661   5.563   0.280   1.654  0.0000  0.0000  0.0000
16537TPS    CA419662   5.508   0.072   1.667  0.0000  0.0000  0.0000
16537TPS    HA419663   5.527   0.066   1.774  0.0000  0.0000  0.0000
16537TPS    CA319664   5.461  -0.040   1.597  0.0000  0.0000  0.0000
16537TPS    HA319665   5.444  -0.133   1.651  0.0000  0.0000  0.0000
16538TPS    HA219666   5.901   8.813   1.485  0.0000  0.0000  0.0000
16538TPS    CA219667   5.928   8.905   1.536  0.0000  0.0000  0.0000
16538TPS    CA119668   5.953   9.024   1.466  0.0000  0.0000  0.0000
16538TPS     Si19669   5.953   9.024   1.280  0.0000  0.0000  0.0000
16538TPS    CA619670   5.994   9.138   1.538  0.0000  0.0000  0.0000
16538TPS    HH619671   6.009   9.234   1.489  0.0000  0.0000  0.0000
16538TPS    CA519672   6.017   9.131   1.677  0.0000  0.0000  0.0000
16538TPS    HA519673   6.049   9.218   1.732  0.0000  0.0000  0.0000
16538TPS    CA419674   5.994   9.010   1.745  0.0000  0.0000  0.0000
16538TPS    HA419675   6.013   9.004   1.852  0.0000  0.0000  0.0000
16538TPS    CA319676   5.947   8.898   1.675  0.0000  0.0000  0.0000
16538TPS    HA319677   5.930   8.805   1.729  0.0000  0.0000  0.0000
16539TPS    HA219678   1.907   8.406   1.459  0.0000  0.0000  0.0000
16539TPS    CA219679   1.934   8.498   1.510  0.0000  0.0000  0.0000
16539TPS    CA119680   1.959   8.617   1.440  0.0000  0.0000  0.0000
16539TPS     Si19681   1.959   8.617   1.254  0.0000  0.0000  0.0000
16539TPS    CA619682   2.000   8.731   1.512  0.0000  0.0000  0.0000
16539TPS    HH619683   2.015   8.827   1.463  0.0000  0.0000  0.0000
16539TPS    CA519684   2.023   8.724   1.651  0.0000  0.0000  0.0000
16539TPS    HA519685   2.055   8.811   1.706  0.0000  0.0000  0.0000
16539TPS    CA419686   2.000   8.603   1.719  0.0000  0.0000  0.0000
16539TPS    HA419687   2.019   8.597   1.826  0.0000  0.0000  0.0000
16539TPS    CA319688   1.953   8.491   1.649  0.0000  0.0000  0.0000
16539TPS    HA319689   1.936   8.398   1.703  0.0000  0.0000  0.0000
16540TPS    HA219690   6.738   2.447   1.544  0.0000  0.0000  0.0000
16540TPS    CA219691   6.765   2.539   1.595  0.0000  0.0000  0.0000
16540TPS    CA119692   6.790   2.658   1.525  0.0000  0.0000  0.0000
16540TPS     Si19693   6.790   2.658   1.339  0.0000  0.0000  0.0000
16540TPS    CA619694   6.831   2.772   1.597  0.0000  0.0000  0.0000
16540TPS    HH619695   6.846   2.868   1.548  0.0000  0.0000  0.0000
16540TPS    CA519696   6.854   2.765   1.736  0.0000  0.0000  0.0000
16540TPS    HA519697   6.886   2.852   1.791  0.0000  0.0000  0.0000
16540TPS    CA419698   6.831   2.644   1.804  0.0000  0.0000  0.0000
16540TPS    HA419699   6.850   2.638   1.911  0.0000  0.0000  0.0000
16540TPS    CA319700   6.784   2.532   1.734  0.0000  0.0000  0.0000
16540TPS    HA319701   6.767   2.439   1.788  0.0000  0.0000  0.0000
16541TPS    HA219702   5.944   7.633   8.066  0.0000  0.0000  0.0000
16541TPS    CA219703   5.938   7.538   8.015  0.0000  0.0000  0.0000
16541TPS    CA119704   5.921   7.417   8.085  0.0000  0.0000  0.0000
16541TPS     Si19705   5.921   7.417   8.271  0.0000  0.0000  0.0000
16541TPS    CA619706   5.921   7.296   8.013  0.0000  0.0000  0.0000
16541TPS    HH619707   5.902   7.201   8.062  0.0000  0.0000  0.0000
16541TPS    CA519708   5.944   7.295   7.874  0.0000  0.0000  0.0000
16541TPS    HA519709   5.945   7.202   7.819  0.0000  0.0000  0.0000
16541TPS    CA419710   5.964   7.416   7.806  0.0000  0.0000  0.0000
16541TPS    HA419711   5.984   7.415   7.699  0.0000  0.0000  0.0000
16541TPS    CA319712   5.958   7.537   7.876  0.0000  0.0000  0.0000
16541TPS    HA319713   5.974   7.630   7.822  0.0000  0.0000  0.0000
16542TPS    HA219714   0.460   7.174   8.100  0.0000  0.0000  0.0000
16542TPS    CA219715   0.487   7.082   8.049  0.0000  0.0000  0.0000
16542TPS    CA119716   0.512   6.963   8.119  0.0000  0.0000  0.0000
16542TPS     Si19717   0.512   6.963   8.305  0.0000  0.0000  0.0000
16542TPS    CA619718   0.553   6.849   8.047  0.0000  0.0000  0.0000
16542TPS    HH619719   0.568   6.753   8.096  0.0000  0.0000  0.0000
16542TPS    CA519720   0.576   6.856   7.908  0.0000  0.0000  0.0000
16542TPS    HA519721   0.608   6.769   7.853  0.0000  0.0000  0.0000
16542TPS    CA419722   0.553   6.977   7.840  0.0000  0.0000  0.0000
16542TPS    HA419723   0.572   6.983   7.733  0.0000  0.0000  0.0000
16542TPS    CA319724   0.506   7.089   7.910  0.0000  0.0000  0.0000
16542TPS    HA319725   0.489   7.182   7.856  0.0000  0.0000  0.0000
16543TPS    HA219726   1.083   4.838   1.439  0.0000  0.0000  0.0000
16543TPS    CA219727   1.110   4.930   1.490  0.0000  0.0000  0.0000
16543TPS    CA119728   1.135   5.049   1.420  0.0000  0.0000  0.0000
16543TPS     Si19729   1.135   5.049   1.234  0.0000  0.0000  0.0000
16543TPS    CA619730   1.176   5.163   1.492  0.0000  0.0000  0.0000
16543TPS    HH619731   1.191   5.259   1.443  0.0000  0.0000  0.0000
16543TPS    CA519732   1.199   5.156   1.631  0.0000  0.0000  0.0000
16543TPS    HA519733   1.231   5.243   1.686  0.0000  0.0000  0.0000
16543TPS    CA419734   1.176   5.035   1.699  0.0000  0.0000  0.0000
16543TPS    HA419735   1.195   5.029   1.806  0.0000  0.0000  0.0000
16543TPS    CA319736   1.129   4.923   1.629  0.0000  0.0000  0.0000
16543TPS    HA319737   1.112   4.830   1.683  0.0000  0.0000  0.0000
16544TPS    HA219738   0.297   2.955   8.112  0.0000  0.0000  0.0000
16544TPS    CA219739   0.324   2.863   8.061  0.0000  0.0000  0.0000
16544TPS    CA119740   0.349   2.744   8.131  0.0000  0.0000  0.0000
16544TPS     Si19741   0.349   2.744   8.317  0.0000  0.0000  0.0000
16544TPS    CA619742   0.390   2.630   8.059  0.0000  0.0000  0.0000
16544TPS    HH619743   0.405   2.534   8.108  0.0000  0.0000  0.0000
16544TPS    CA519744   0.413   2.637   7.920  0.0000  0.0000  0.0000
16544TPS    HA519745   0.445   2.550   7.865  0.0000  0.0000  0.0000
16544TPS    CA419746   0.390   2.758   7.852  0.0000  0.0000  0.0000
16544TPS    HA419747   0.409   2.764   7.745  0.0000  0.0000  0.0000
16544TPS    CA319748   0.343   2.870   7.922  0.0000  0.0000  0.0000
16544TPS    HA319749   0.326   2.963   7.868  0.0000  0.0000  0.0000
16545TPS    HA219750   1.962   7.947   1.452  0.0000  0.0000  0.0000
16545TPS    CA219751   1.989   8.039   1.503  0.0000  0.0000  0.0000
16545TPS    CA119752   2.014   8.158   1.433  0.0000  0.0000  0.0000
16545TPS     Si19753   2.014   8.158   1.247  0.0000  0.0000  0.0000
16545TPS    CA619754   2.055   8.272   1.505  0.0000  0.0000  0.0000
16545TPS    HH619755   2.070   8.368   1.456  0.0000  0.0000  0.0000
16545TPS    CA519756   2.078   8.265   1.644  0.0000  0.0000  0.0000
16545TPS    HA519757   2.110   8.352   1.699  0.0000  0.0000  0.0000
16545TPS    CA419758   2.055   8.144   1.712  0.0000  0.0000  0.0000
16545TPS    HA419759   2.074   8.138   1.819  0.0000  0.0000  0.0000
16545TPS    CA319760   2.008   8.032   1.642  0.0000  0.0000  0.0000
16545TPS    HA319761   1.991   7.939   1.696  0.0000  0.0000  0.0000
16546TPS    HA219762   9.317   6.304   1.411  0.0000  0.0000  0.0000
16546TPS    CA219763   9.344   6.396   1.462  0.0000  0.0000  0.0000
16546TPS    CA119764   9.369   6.515   1.392  0.0000  0.0000  0.0000
16546TPS     Si19765   9.369   6.515   1.206  0.0000  0.0000  0.0000
16546TPS    CA619766   9.410   6.629   1.464  0.0000  0.0000  0.0000
16546TPS    HH619767   9.425   6.725   1.415  0.0000  0.0000  0.0000
16546TPS    CA519768   9.433   6.622   1.603  0.0000  0.0000  0.0000
16546TPS    HA519769   9.465   6.709   1.658  0.0000  0.0000  0.0000
16546TPS    CA419770   9.410   6.501   1.671  0.0000  0.0000  0.0000
16546TPS    HA419771   9.429   6.495   1.778  0.0000  0.0000  0.0000
16546TPS    CA319772   9.363   6.389   1.601  0.0000  0.0000  0.0000
16546TPS    HA319773   9.346   6.296   1.655  0.0000  0.0000  0.0000
16547TPS    HA219774   0.610   3.690   8.087  0.0000  0.0000  0.0000
16547TPS    CA219775   0.637   3.598   8.036  0.0000  0.0000  0.0000
16547TPS    CA119776   0.662   3.479   8.106  0.0000  0.0000  0.0000
16547TPS     Si19777   0.662   3.479   8.292  0.0000  0.0000  0.0000
16547TPS    CA619778   0.703   3.365   8.034  0.0000  0.0000  0.0000
16547TPS    HH619779   0.718   3.269   8.083  0.0000  0.0000  0.0000
16547TPS    CA519780   0.726   3.372   7.895  0.0000  0.0000  0.0000
16547TPS    HA519781   0.758   3.285   7.840  0.0000  0.0000  0.0000
16547TPS    CA419782   0.703   3.493   7.827  0.0000  0.0000  0.0000
16547TPS    HA419783   0.722   3.499   7.720  0.0000  0.0000  0.0000
16547TPS    CA319784   0.656   3.605   7.897  0.0000  0.0000  0.0000
16547TPS    HA319785   0.639   3.698   7.843  0.0000  0.0000  0.0000
16548TPS    HA219786   6.144   6.973   1.399  0.0000  0.0000  0.0000
16548TPS    CA219787   6.171   7.065   1.450  0.0000  0.0000  0.0000
16548TPS    CA119788   6.196   7.184   1.380  0.0000  0.0000  0.0000
16548TPS     Si19789   6.196   7.184   1.194  0.0000  0.0000  0.0000
16548TPS    CA619790   6.237   7.298   1.452  0.0000  0.0000  0.0000
16548TPS    HH619791   6.252   7.394   1.403  0.0000  0.0000  0.0000
16548TPS    CA519792   6.260   7.291   1.591  0.0000  0.0000  0.0000
16548TPS    HA519793   6.292   7.378   1.646  0.0000  0.0000  0.0000
16548TPS    CA419794   6.237   7.170   1.659  0.0000  0.0000  0.0000
16548TPS    HA419795   6.256   7.164   1.766  0.0000  0.0000  0.0000
16548TPS    CA319796   6.190   7.058   1.589  0.0000  0.0000  0.0000
16548TPS    HA319797   6.173   6.965   1.643  0.0000  0.0000  0.0000
16549TPS    HA219798   1.790   2.064   8.082  0.0000  0.0000  0.0000
16549TPS    CA219799   1.817   1.972   8.031  0.0000  0.0000  0.0000
16549TPS    CA119800   1.842   1.853   8.101  0.0000  0.0000  0.0000
16549TPS     Si19801   1.842   1.853   8.287  0.0000  0.0000  0.0000
16549TPS    CA619802   1.883   1.739   8.029  0.0000  0.0000  0.0000
16549TPS    HH619803   1.898   1.643   8.078  0.0000  0.0000  0.0000
16549TPS    CA519804   1.906   1.746   7.890  0.0000  0.0000  0.0000
16549TPS    HA519805   1.938   1.659   7.835  0.0000  0.0000  0.0000
16549TPS    CA419806   1.883   1.867   7.822  0.0000  0.0000  0.0000
16549TPS    HA419807   1.902   1.873   7.715  0.0000  0.0000  0.0000
16549TPS    CA319808   1.836   1.979   7.892  0.0000  0.0000  0.0000
16549TPS    HA319809   1.819   2.072   7.838  0.0000  0.0000  0.0000
16550TPS    HA219810   8.559   5.144   1.512  0.0000  0.0000  0.0000
16550TPS    CA219811   8.586   5.236   1.563  0.0000  0.0000  0.0000
16550TPS    CA119812   8.611   5.355   1.493  0.0000  0.0000  0.0000
16550TPS     Si19813   8.611   5.355   1.307  0.0000  0.0000  0.0000
16550TPS    CA619814   8.652   5.469   1.565  0.0000  0.0000  0.0000
16550TPS    HH619815   8.667   5.565   1.516  0.0000  0.0000  0.0000
16550TPS    CA519816   8.675   5.462   1.704  0.0000  0.0000  0.0000
16550TPS    HA519817   8.707   5.549   1.759  0.0000  0.0000  0.0000
16550TPS    CA419818   8.652   5.341   1.772  0.0000  0.0000  0.0000
16550TPS    HA419819   8.671   5.335   1.879  0.0000  0.0000  0.0000
16550TPS    CA319820   8.605   5.229   1.702  0.0000  0.0000  0.0000
16550TPS    HA319821   8.588   5.136   1.756  0.0000  0.0000  0.0000
16551TPS    HA219822   3.616   2.746   8.172  0.0000  0.0000  0.0000
16551TPS    CA219823   3.643   2.654   8.121  0.0000  0.0000  0.0000
16551TPS    CA119824   3.668   2.535   8.191  0.0000  0.0000  0.0000
16551TPS     Si19825   3.668   2.535   8.377  0.0000  0.0000  0.0000
16551TPS    CA619826   3.709   2.421   8.119  0.0000  0.0000  0.0000
16551TPS    HH619827   3.724   2.325   8.168  0.0000  0.0000  0.0000
16551TPS    CA519828   3.732   2.428   7.980  0.0000  0.0000  0.0000
16551TPS    HA519829   3.764   2.341   7.925  0.0000  0.0000  0.0000
16551TPS    CA419830   3.709   2.549   7.912  0.0000  0.0000  0.0000
16551TPS    HA419831   3.728   2.555   7.805  0.0000  0.0000  0.0000
16551TPS    CA319832   3.662   2.661   7.982  0.0000  0.0000  0.0000
16551TPS    HA319833   3.645   2.754   7.928  0.0000  0.0000  0.0000
16552TPS    HA219834   7.252   4.041   8.068  0.0000  0.0000  0.0000
16552TPS    CA219835   7.213   3.954   8.017  0.0000  0.0000  0.0000
16552TPS    CA119836   7.156   3.846   8.087  0.0000  0.0000  0.0000
16552TPS     Si19837   7.156   3.846   8.273  0.0000  0.0000  0.0000
16552TPS    CA619838   7.114   3.732   8.015  0.0000  0.0000  0.0000
16552TPS    HH619839   7.064   3.649   8.064  0.0000  0.0000  0.0000
16552TPS    CA519840   7.136   3.724   7.876  0.0000  0.0000  0.0000
16552TPS    HA519841   7.105   3.635   7.821  0.0000  0.0000  0.0000
16552TPS    CA419842   7.196   3.830   7.808  0.0000  0.0000  0.0000
16552TPS    HA419843   7.215   3.823   7.701  0.0000  0.0000  0.0000
16552TPS    CA319844   7.232   3.946   7.878  0.0000  0.0000  0.0000
16552TPS    HA319845   7.279   4.029   7.824  0.0000  0.0000  0.0000
16553TPS    HA219846   5.703   8.219   8.183  0.0000  0.0000  0.0000
16553TPS    CA219847   5.730   8.127   8.132  0.0000  0.0000  0.0000
16553TPS    CA119848   5.755   8.008   8.202  0.0000  0.0000  0.0000
16553TPS     Si19849   5.755   8.008   8.388  0.0000  0.0000  0.0000
16553TPS    CA619850   5.796   7.894   8.130  0.0000  0.0000  0.0000
16553TPS    HH619851   5.811   7.798   8.179  0.0000  0.0000  0.0000
16553TPS    CA519852   5.819   7.901   7.991  0.0000  0.0000  0.0000
16553TPS    HA519853   5.851   7.814   7.936  0.0000  0.0000  0.0000
16553TPS    CA419854   5.796   8.022   7.923  0.0000  0.0000  0.0000
16553TPS    HA419855   5.815   8.028   7.816  0.0000  0.0000  0.0000
16553TPS    CA319856   5.749   8.134   7.993  0.0000  0.0000  0.0000
16553TPS    HA319857   5.732   8.227   7.939  0.0000  0.0000  0.0000
16554TPS    HA219858   6.390   9.337   8.192  0.0000  0.0000  0.0000
16554TPS    CA219859   6.417   9.245   8.141  0.0000  0.0000  0.0000
16554TPS    CA119860   6.442   9.126   8.211  0.0000  0.0000  0.0000
16554TPS     Si19861   6.442   9.126   8.397  0.0000  0.0000  0.0000
16554TPS    CA619862   6.483   9.012   8.139  0.0000  0.0000  0.0000
16554TPS    HH619863   6.498   8.916   8.188  0.0000  0.0000  0.0000
16554TPS    CA519864   6.506   9.019   8.000  0.0000  0.0000  0.0000
16554TPS    HA519865   6.538   8.932   7.945  0.0000  0.0000  0.0000
16554TPS    CA419866   6.483   9.140   7.932  0.0000  0.0000  0.0000
16554TPS    HA419867   6.502   9.146   7.825  0.0000  0.0000  0.0000
16554TPS    CA319868   6.436   9.252   8.002  0.0000  0.0000  0.0000
16554TPS    HA319869   6.419   9.345   7.948  0.0000  0.0000  0.0000
16555TPS    HA219870   8.249   6.698   8.173  0.0000  0.0000  0.0000
16555TPS    CA219871   8.276   6.606   8.122  0.0000  0.0000  0.0000
16555TPS    CA119872   8.301   6.487   8.192  0.0000  0.0000  0.0000
16555TPS     Si19873   8.301   6.487   8.378  0.0000  0.0000  0.0000
16555TPS    CA619874   8.342   6.373   8.120  0.0000  0.0000  0.0000
16555TPS    HH619875   8.357   6.277   8.169  0.0000  0.0000  0.0000
16555TPS    CA519876   8.365   6.380   7.981  0.0000  0.0000  0.0000
16555TPS    HA519877   8.397   6.293   7.926  0.0000  0.0000  0.0000
16555TPS    CA419878   8.342   6.501   7.913  0.0000  0.0000  0.0000
16555TPS    HA419879   8.361   6.507   7.806  0.0000  0.0000  0.0000
16555TPS    CA319880   8.295   6.613   7.983  0.0000  0.0000  0.0000
16555TPS    HA319881   8.278   6.706   7.929  0.0000  0.0000  0.0000
16556TPS    HA219882   4.045  -0.033   1.401  0.0000  0.0000  0.0000
16556TPS    CA219883   4.072   0.059   1.452  0.0000  0.0000  0.0000
16556TPS    CA119884   4.097   0.178   1.382  0.0000  0.0000  0.0000
16556TPS     Si19885   4.097   0.178   1.196  0.0000  0.0000  0.0000
16556TPS    CA619886   4.138   0.292   1.454  0.0000  0.0000  0.0000
16556TPS    HH619887   4.153   0.388   1.405  0.0000  0.0000  0.0000
16556TPS    CA519888   4.161   0.285   1.593  0.0000  0.0000  0.0000
16556TPS    HA519889   4.193   0.372   1.648  0.0000  0.0000  0.0000
16556TPS    CA419890   4.138   0.164   1.661  0.0000  0.0000  0.0000
16556TPS    HA419891   4.157   0.158   1.768  0.0000  0.0000  0.0000
16556TPS    CA319892   4.091   0.052   1.591  0.0000  0.0000  0.0000
16556TPS    HA319893   4.074  -0.041   1.645  0.0000  0.0000  0.0000
16557TPS    HA219894   1.256   5.326   8.232  0.0000  0.0000  0.0000
16557TPS    CA219895   1.283   5.234   8.181  0.0000  0.0000  0.0000
16557TPS    CA119896   1.308   5.115   8.251  0.0000  0.0000  0.0000
16557TPS     Si19897   1.308   5.115   8.437  0.0000  0.0000  0.0000
16557TPS    CA619898   1.349   5.001   8.179  0.0000  0.0000  0.0000
16557TPS    HH619899   1.364   4.905   8.228  0.0000  0.0000  0.0000
16557TPS    CA519900   1.372   5.008   8.040  0.0000  0.0000  0.0000
16557TPS    HA519901   1.404   4.921   7.985  0.0000  0.0000  0.0000
16557TPS    CA419902   1.349   5.129   7.972  0.0000  0.0000  0.0000
16557TPS    HA419903   1.368   5.135   7.865  0.0000  0.0000  0.0000
16557TPS    CA319904   1.302   5.241   8.042  0.0000  0.0000  0.0000
16557TPS    HA319905   1.285   5.334   7.988  0.0000  0.0000  0.0000
16558TPS    HA219906   0.188   6.019   1.522  0.0000  0.0000  0.0000
16558TPS    CA219907   0.215   6.111   1.573  0.0000  0.0000  0.0000
16558TPS    CA119908   0.240   6.230   1.503  0.0000  0.0000  0.0000
16558TPS     Si19909   0.240   6.230   1.317  0.0000  0.0000  0.0000
16558TPS    CA619910   0.281   6.344   1.575  0.0000  0.0000  0.0000
16558TPS    HH619911   0.296   6.440   1.526  0.0000  0.0000  0.0000
16558TPS    CA519912   0.304   6.337   1.714  0.0000  0.0000  0.0000
16558TPS    HA519913   0.336   6.424   1.769  0.0000  0.0000  0.0000
16558TPS    CA419914   0.281   6.216   1.782  0.0000  0.0000  0.0000
16558TPS    HA419915   0.300   6.210   1.889  0.0000  0.0000  0.0000
16558TPS    CA319916   0.234   6.104   1.712  0.0000  0.0000  0.0000
16558TPS    HA319917   0.217   6.011   1.766  0.0000  0.0000  0.0000
16559TPS    HA219918   6.068   7.248   1.487  0.0000  0.0000  0.0000
16559TPS    CA219919   6.095   7.340   1.538  0.0000  0.0000  0.0000
16559TPS    CA119920   6.120   7.459   1.468  0.0000  0.0000  0.0000
16559TPS     Si19921   6.120   7.459   1.282  0.0000  0.0000  0.0000
16559TPS    CA619922   6.161   7.573   1.540  0.0000  0.0000  0.0000
16559TPS    HH619923   6.176   7.669   1.491  0.0000  0.0000  0.0000
16559TPS    CA519924   6.184   7.566   1.679  0.0000  0.0000  0.0000
16559TPS    HA519925   6.216   7.653   1.734  0.0000  0.0000  0.0000
16559TPS    CA419926   6.161   7.445   1.747  0.0000  0.0000  0.0000
16559TPS    HA419927   6.180   7.439   1.854  0.0000  0.0000  0.0000
16559TPS    CA319928   6.114   7.333   1.677  0.0000  0.0000  0.0000
16559TPS    HA319929   6.097   7.240   1.731  0.0000  0.0000  0.0000
16560TPS    HA219930   5.822   1.632   1.608  0.0000  0.0000  0.0000
16560TPS    CA219931   5.849   1.724   1.659  0.0000  0.0000  0.0000
16560TPS    CA119932   5.874   1.843   1.589  0.0000  0.0000  0.0000
16560TPS     Si19933   5.874   1.843   1.403  0.0000  0.0000  0.0000
16560TPS    CA619934   5.915   1.957   1.661  0.0000  0.0000  0.0000
16560TPS    HH619935   5.930   2.053   1.612  0.0000  0.0000  0.0000
16560TPS    CA519936   5.938   1.950   1.800  0.0000  0.0000  0.0000
16560TPS    HA519937   5.970   2.037   1.855  0.0000  0.0000  0.0000
16560TPS    CA419938   5.915   1.829   1.868  0.0000  0.0000  0.0000
16560TPS    HA419939   5.934   1.823   1.975  0.0000  0.0000  0.0000
16560TPS    CA319940   5.868   1.717   1.798  0.0000  0.0000  0.0000
16560TPS    HA319941   5.851   1.624   1.852  0.0000  0.0000  0.0000
16561TPS    HA219942   8.155   8.717   1.535  0.0000  0.0000  0.0000
16561TPS    CA219943   8.182   8.809   1.586  0.0000  0.0000  0.0000
16561TPS    CA119944   8.207   8.928   1.516  0.0000  0.0000  0.0000
16561TPS     Si19945   8.207   8.928   1.330  0.0000  0.0000  0.0000
16561TPS    CA619946   8.248   9.042   1.588  0.0000  0.0000  0.0000
16561TPS    HH619947   8.263   9.138   1.539  0.0000  0.0000  0.0000
16561TPS    CA519948   8.271   9.035   1.727  0.0000  0.0000  0.0000
16561TPS    HA519949   8.303   9.122   1.782  0.0000  0.0000  0.0000
16561TPS    CA419950   8.248   8.914   1.795  0.0000  0.0000  0.0000
16561TPS    HA419951   8.267   8.908   1.902  0.0000  0.0000  0.0000
16561TPS    CA319952   8.201   8.802   1.725  0.0000  0.0000  0.0000
16561TPS    HA319953   8.184   8.709   1.779  0.0000  0.0000  0.0000
16562TPS    HA219954   1.283   0.567   1.588  0.0000  0.0000  0.0000
16562TPS    CA219955   1.310   0.659   1.639  0.0000  0.0000  0.0000
16562TPS    CA119956   1.335   0.778   1.569  0.0000  0.0000  0.0000
16562TPS     Si19957   1.335   0.778   1.383  0.0000  0.0000  0.0000
16562TPS    CA619958   1.376   0.892   1.641  0.0000  0.0000  0.0000
16562TPS    HH619959   1.391   0.988   1.592  0.0000  0.0000  0.0000
16562TPS    CA519960   1.399   0.885   1.780  0.0000  0.0000  0.0000
16562TPS    HA519961   1.431   0.972   1.835  0.0000  0.0000  0.0000
16562TPS    CA419962   1.376   0.764   1.848  0.0000  0.0000  0.0000
16562TPS    HA419963   1.395   0.758   1.955  0.0000  0.0000  0.0000
16562TPS    CA319964   1.329   0.652   1.778  0.0000  0.0000  0.0000
16562TPS    HA319965   1.312   0.559   1.832  0.0000  0.0000  0.0000
16563TPS    HA219966   2.118   4.862   7.986  0.0000  0.0000  0.0000
16563TPS    CA219967   2.079   4.775   7.935  0.0000  0.0000  0.0000
16563TPS    CA119968   2.022   4.667   8.005  0.0000  0.0000  0.0000
16563TPS     Si19969   2.022   4.667   8.191  0.0000  0.0000  0.0000
16563TPS    CA619970   1.980   4.553   7.933  0.0000  0.0000  0.0000
16563TPS    HH619971   1.930   4.470   7.982  0.0000  0.0000  0.0000
16563TPS    CA519972   2.002   4.545   7.794  0.0000  0.0000  0.0000
16563TPS    HA519973   1.971   4.456   7.739  0.0000  0.0000  0.0000
16563TPS    CA419974   2.062   4.651   7.726  0.0000  0.0000  0.0000
16563TPS    HA419975   2.081   4.644   7.619  0.0000  0.0000  0.0000
16563TPS    CA319976   2.098   4.767   7.796  0.0000  0.0000  0.0000
16563TPS    HA319977   2.145   4.850   7.742  0.0000  0.0000  0.0000
16564TPS    HA219978  -0.019   0.701   1.608  0.0000  0.0000  0.0000
16564TPS    CA219979   0.008   0.793   1.659  0.0000  0.0000  0.0000
16564TPS    CA119980   0.033   0.912   1.589  0.0000  0.0000  0.0000
16564TPS     Si19981   0.033   0.912   1.403  0.0000  0.0000  0.0000
16564TPS    CA619982   0.074   1.026   1.661  0.0000  0.0000  0.0000
16564TPS    HH619983   0.089   1.122   1.612  0.0000  0.0000  0.0000
16564TPS    CA519984   0.097   1.019   1.800  0.0000  0.0000  0.0000
16564TPS    HA519985   0.129   1.106   1.855  0.0000  0.0000  0.0000
16564TPS    CA419986   0.074   0.898   1.868  0.0000  0.0000  0.0000
16564TPS    HA419987   0.093   0.892   1.975  0.0000  0.0000  0.0000
16564TPS    CA319988   0.027   0.786   1.798  0.0000  0.0000  0.0000
16564TPS    HA319989   0.010   0.693   1.852  0.0000  0.0000  0.0000
16565TPS    HA219990   5.006   3.027   8.157  0.0000  0.0000  0.0000
16565TPS    CA219991   5.000   2.932   8.106  0.0000  0.0000  0.0000
16565TPS    CA119992   4.983   2.811   8.176  0.0000  0.0000  0.0000
16565TPS     Si19993   4.983   2.811   8.362  0.0000  0.0000  0.0000
16565TPS    CA619994   4.983   2.690   8.104  0.0000  0.0000  0.0000
16565TPS    HH619995   4.964   2.595   8.153  0.0000  0.0000  0.0000
16565TPS    CA519996   5.006   2.689   7.965  0.0000  0.0000  0.0000
16565TPS    HA519997   5.007   2.596   7.910  0.0000  0.0000  0.0000
16565TPS    CA419998   5.026   2.810   7.897  0.0000  0.0000  0.0000
16565TPS    HA419999   5.046   2.809   7.790  0.0000  0.0000  0.0000
16565TPS    CA320000   5.020   2.931   7.967  0.0000  0.0000  0.0000
16565TPS    HA320001   5.036   3.024   7.913  0.0000  0.0000  0.0000
16566TPS    HA220002   6.139   8.216   1.586  0.0000  0.0000  0.0000
16566TPS    CA220003   6.166   8.308   1.637  0.0000  0.0000  0.0000
16566TPS    CA120004   6.191   8.427   1.567  0.0000  0.0000  0.0000
16566TPS     Si20005   6.191   8.427   1.381  0.0000  0.0000  0.0000
16566TPS    CA620006   6.232   8.541   1.639  0.0000  0.0000  0.0000
16566TPS    HH620007   6.247   8.637   1.590  0.0000  0.0000  0.0000
16566TPS    CA520008   6.255   8.534   1.778  0.0000  0.0000  0.0000
16566TPS    HA520009   6.287   8.621   1.833  0.0000  0.0000  0.0000
16566TPS    CA420010   6.232   8.413   1.846  0.0000  0.0000  0.0000
16566TPS    HA420011   6.251   8.407   1.953  0.0000  0.0000  0.0000
16566TPS    CA320012   6.185   8.301   1.776  0.0000  0.0000  0.0000
16566TPS    HA320013   6.168   8.208   1.830  0.0000  0.0000  0.0000
16567TPS    HA220014   1.345   0.378   8.090  0.0000  0.0000  0.0000
16567TPS    CA220015   1.372   0.286   8.039  0.0000  0.0000  0.0000
16567TPS    CA120016   1.397   0.167   8.109  0.0000  0.0000  0.0000
16567TPS     Si20017   1.397   0.167   8.295  0.0000  0.0000  0.0000
16567TPS    CA620018   1.438   0.053   8.037  0.0000  0.0000  0.0000
16567TPS    HH620019   1.453  -0.043   8.086  0.0000  0.0000  0.0000
16567TPS    CA520020   1.461   0.060   7.898  0.0000  0.0000  0.0000
16567TPS    HA520021   1.493  -0.027   7.843  0.0000  0.0000  0.0000
16567TPS    CA420022   1.438   0.181   7.830  0.0000  0.0000  0.0000
16567TPS    HA420023   1.457   0.187   7.723  0.0000  0.0000  0.0000
16567TPS    CA320024   1.391   0.293   7.900  0.0000  0.0000  0.0000
16567TPS    HA320025   1.374   0.386   7.846  0.0000  0.0000  0.0000
16568TPS    HA220026   6.133   6.301   8.124  0.0000  0.0000  0.0000
16568TPS    CA220027   6.160   6.209   8.073  0.0000  0.0000  0.0000
16568TPS    CA120028   6.185   6.090   8.143  0.0000  0.0000  0.0000
16568TPS     Si20029   6.185   6.090   8.329  0.0000  0.0000  0.0000
16568TPS    CA620030   6.226   5.976   8.071  0.0000  0.0000  0.0000
16568TPS    HH620031   6.241   5.880   8.120  0.0000  0.0000  0.0000
16568TPS    CA520032   6.249   5.983   7.932  0.0000  0.0000  0.0000
16568TPS    HA520033   6.281   5.896   7.877  0.0000  0.0000  0.0000
16568TPS    CA420034   6.226   6.104   7.864  0.0000  0.0000  0.0000
16568TPS    HA420035   6.245   6.110   7.757  0.0000  0.0000  0.0000
16568TPS    CA320036   6.179   6.216   7.934  0.0000  0.0000  0.0000
16568TPS    HA320037   6.162   6.309   7.880  0.0000  0.0000  0.0000
16569TPS    HA220038   2.822   3.179   1.549  0.0000  0.0000  0.0000
16569TPS    CA220039   2.816   3.274   1.600  0.0000  0.0000  0.0000
16569TPS    CA120040   2.799   3.395   1.530  0.0000  0.0000  0.0000
16569TPS     Si20041   2.799   3.395   1.344  0.0000  0.0000  0.0000
16569TPS    CA620042   2.799   3.516   1.602  0.0000  0.0000  0.0000
16569TPS    HH620043   2.780   3.611   1.553  0.0000  0.0000  0.0000
16569TPS    CA520044   2.822   3.517   1.741  0.0000  0.0000  0.0000
16569TPS    HA520045   2.823   3.610   1.796  0.0000  0.0000  0.0000
16569TPS    CA420046   2.842   3.396   1.809  0.0000  0.0000  0.0000
16569TPS    HA420047   2.862   3.397   1.916  0.0000  0.0000  0.0000
16569TPS    CA320048   2.836   3.275   1.739  0.0000  0.0000  0.0000
16569TPS    HA320049   2.852   3.182   1.793  0.0000  0.0000  0.0000
16570TPS    HA220050   4.856   2.782   8.149  0.0000  0.0000  0.0000
16570TPS    CA220051   4.777   2.835   8.098  0.0000  0.0000  0.0000
16570TPS    CA120052   4.681   2.910   8.168  0.0000  0.0000  0.0000
16570TPS     Si20053   4.681   2.910   8.354  0.0000  0.0000  0.0000
16570TPS    CA620054   4.576   2.971   8.096  0.0000  0.0000  0.0000
16570TPS    HH620055   4.503   3.034   8.145  0.0000  0.0000  0.0000
16570TPS    CA520056   4.564   2.951   7.957  0.0000  0.0000  0.0000
16570TPS    HA520057   4.483   2.997   7.902  0.0000  0.0000  0.0000
16570TPS    CA420058   4.658   2.873   7.889  0.0000  0.0000  0.0000
16570TPS    HA420059   4.648   2.856   7.782  0.0000  0.0000  0.0000
16570TPS    CA320060   4.767   2.817   7.959  0.0000  0.0000  0.0000
16570TPS    HA320061   4.839   2.757   7.905  0.0000  0.0000  0.0000
16571TPS    HA220062   2.555   9.405   1.464  0.0000  0.0000  0.0000
16571TPS    CA220063   2.648   9.428   1.515  0.0000  0.0000  0.0000
16571TPS    CA120064   2.764   9.466   1.445  0.0000  0.0000  0.0000
16571TPS     Si20065   2.764   9.466   1.259  0.0000  0.0000  0.0000
16571TPS    CA620066   2.883   9.488   1.517  0.0000  0.0000  0.0000
16571TPS    HH620067   2.974   9.522   1.468  0.0000  0.0000  0.0000
16571TPS    CA520068   2.888   9.464   1.656  0.0000  0.0000  0.0000
16571TPS    HA520069   2.980   9.480   1.711  0.0000  0.0000  0.0000
16571TPS    CA420070   2.773   9.424   1.724  0.0000  0.0000  0.0000
16571TPS    HA420071   2.777   9.404   1.831  0.0000  0.0000  0.0000
16571TPS    CA320072   2.652   9.408   1.654  0.0000  0.0000  0.0000
16571TPS    HA320073   2.563   9.377   1.708  0.0000  0.0000  0.0000
16572TPS    HA220074   8.593   2.852   8.200  0.0000  0.0000  0.0000
16572TPS    CA220075   8.620   2.760   8.149  0.0000  0.0000  0.0000
16572TPS    CA120076   8.645   2.641   8.219  0.0000  0.0000  0.0000
16572TPS     Si20077   8.645   2.641   8.405  0.0000  0.0000  0.0000
16572TPS    CA620078   8.686   2.527   8.147  0.0000  0.0000  0.0000
16572TPS    HH620079   8.701   2.431   8.196  0.0000  0.0000  0.0000
16572TPS    CA520080   8.709   2.534   8.008  0.0000  0.0000  0.0000
16572TPS    HA520081   8.741   2.447   7.953  0.0000  0.0000  0.0000
16572TPS    CA420082   8.686   2.655   7.940  0.0000  0.0000  0.0000
16572TPS    HA420083   8.705   2.661   7.833  0.0000  0.0000  0.0000
16572TPS    CA320084   8.639   2.767   8.010  0.0000  0.0000  0.0000
16572TPS    HA320085   8.622   2.860   7.956  0.0000  0.0000  0.0000
16573TPS    HA220086   6.445   3.993   1.579  0.0000  0.0000  0.0000
16573TPS    CA220087   6.472   4.085   1.630  0.0000  0.0000  0.0000
16573TPS    CA120088   6.497   4.204   1.560  0.0000  0.0000  0.0000
16573TPS     Si20089   6.497   4.204   1.374  0.0000  0.0000  0.0000
16573TPS    CA620090   6.538   4.318   1.632  0.0000  0.0000  0.0000
16573TPS    HH620091   6.553   4.414   1.583  0.0000  0.0000  0.0000
16573TPS    CA520092   6.561   4.311   1.771  0.0000  0.0000  0.0000
16573TPS    HA520093   6.593   4.398   1.826  0.0000  0.0000  0.0000
16573TPS    CA420094   6.538   4.190   1.839  0.0000  0.0000  0.0000
16573TPS    HA420095   6.557   4.184   1.946  0.0000  0.0000  0.0000
16573TPS    CA320096   6.491   4.078   1.769  0.0000  0.0000  0.0000
16573TPS    HA320097   6.474   3.985   1.823  0.0000  0.0000  0.0000
16574TPS    HA220098   5.829   3.718   1.362  0.0000  0.0000  0.0000
16574TPS    CA220099   5.856   3.810   1.413  0.0000  0.0000  0.0000
16574TPS    CA120100   5.881   3.929   1.343  0.0000  0.0000  0.0000
16574TPS     Si20101   5.881   3.929   1.157  0.0000  0.0000  0.0000
16574TPS    CA620102   5.922   4.043   1.415  0.0000  0.0000  0.0000
16574TPS    HH620103   5.937   4.139   1.366  0.0000  0.0000  0.0000
16574TPS    CA520104   5.945   4.036   1.554  0.0000  0.0000  0.0000
16574TPS    HA520105   5.977   4.123   1.609  0.0000  0.0000  0.0000
16574TPS    CA420106   5.922   3.915   1.622  0.0000  0.0000  0.0000
16574TPS    HA420107   5.941   3.909   1.729  0.0000  0.0000  0.0000
16574TPS    CA320108   5.875   3.803   1.552  0.0000  0.0000  0.0000
16574TPS    HA320109   5.858   3.710   1.606  0.0000  0.0000  0.0000
16575TPS    HA220110   5.157   4.525   8.166  0.0000  0.0000  0.0000
16575TPS    CA220111   5.078   4.578   8.115  0.0000  0.0000  0.0000
16575TPS    CA120112   4.982   4.653   8.185  0.0000  0.0000  0.0000
16575TPS     Si20113   4.982   4.653   8.371  0.0000  0.0000  0.0000
16575TPS    CA620114   4.877   4.714   8.113  0.0000  0.0000  0.0000
16575TPS    HH620115   4.804   4.777   8.162  0.0000  0.0000  0.0000
16575TPS    CA520116   4.865   4.694   7.974  0.0000  0.0000  0.0000
16575TPS    HA520117   4.784   4.740   7.919  0.0000  0.0000  0.0000
16575TPS    CA420118   4.959   4.616   7.906  0.0000  0.0000  0.0000
16575TPS    HA420119   4.949   4.599   7.799  0.0000  0.0000  0.0000
16575TPS    CA320120   5.068   4.560   7.976  0.0000  0.0000  0.0000
16575TPS    HA320121   5.140   4.500   7.922  0.0000  0.0000  0.0000
16576TPS    HA220122   0.060   2.768   8.075  0.0000  0.0000  0.0000
16576TPS    CA220123   0.087   2.676   8.024  0.0000  0.0000  0.0000
16576TPS    CA120124   0.112   2.557   8.094  0.0000  0.0000  0.0000
16576TPS     Si20125   0.112   2.557   8.280  0.0000  0.0000  0.0000
16576TPS    CA620126   0.153   2.443   8.022  0.0000  0.0000  0.0000
16576TPS    HH620127   0.168   2.347   8.071  0.0000  0.0000  0.0000
16576TPS    CA520128   0.176   2.450   7.883  0.0000  0.0000  0.0000
16576TPS    HA520129   0.208   2.363   7.828  0.0000  0.0000  0.0000
16576TPS    CA420130   0.153   2.571   7.815  0.0000  0.0000  0.0000
16576TPS    HA420131   0.172   2.577   7.708  0.0000  0.0000  0.0000
16576TPS    CA320132   0.106   2.683   7.885  0.0000  0.0000  0.0000
16576TPS    HA320133   0.089   2.776   7.831  0.0000  0.0000  0.0000
16577TPS    HA220134   1.846   7.706   8.128  0.0000  0.0000  0.0000
16577TPS    CA220135   1.873   7.614   8.077  0.0000  0.0000  0.0000
16577TPS    CA120136   1.898   7.495   8.147  0.0000  0.0000  0.0000
16577TPS     Si20137   1.898   7.495   8.333  0.0000  0.0000  0.0000
16577TPS    CA620138   1.939   7.381   8.075  0.0000  0.0000  0.0000
16577TPS    HH620139   1.954   7.285   8.124  0.0000  0.0000  0.0000
16577TPS    CA520140   1.962   7.388   7.936  0.0000  0.0000  0.0000
16577TPS    HA520141   1.994   7.301   7.881  0.0000  0.0000  0.0000
16577TPS    CA420142   1.939   7.509   7.868  0.0000  0.0000  0.0000
16577TPS    HA420143   1.958   7.515   7.761  0.0000  0.0000  0.0000
16577TPS    CA320144   1.892   7.621   7.938  0.0000  0.0000  0.0000
16577TPS    HA320145   1.875   7.714   7.884  0.0000  0.0000  0.0000
16578TPS    HA220146   7.085   6.280   1.448  0.0000  0.0000  0.0000
16578TPS    CA220147   7.112   6.372   1.499  0.0000  0.0000  0.0000
16578TPS    CA120148   7.137   6.491   1.429  0.0000  0.0000  0.0000
16578TPS     Si20149   7.137   6.491   1.243  0.0000  0.0000  0.0000
16578TPS    CA620150   7.178   6.605   1.501  0.0000  0.0000  0.0000
16578TPS    HH620151   7.193   6.701   1.452  0.0000  0.0000  0.0000
16578TPS    CA520152   7.201   6.598   1.640  0.0000  0.0000  0.0000
16578TPS    HA520153   7.233   6.685   1.695  0.0000  0.0000  0.0000
16578TPS    CA420154   7.178   6.477   1.708  0.0000  0.0000  0.0000
16578TPS    HA420155   7.197   6.471   1.815  0.0000  0.0000  0.0000
16578TPS    CA320156   7.131   6.365   1.638  0.0000  0.0000  0.0000
16578TPS    HA320157   7.114   6.272   1.692  0.0000  0.0000  0.0000
16579TPS    HA220158   8.283   8.815   8.166  0.0000  0.0000  0.0000
16579TPS    CA220159   8.310   8.723   8.115  0.0000  0.0000  0.0000
16579TPS    CA120160   8.335   8.604   8.185  0.0000  0.0000  0.0000
16579TPS     Si20161   8.335   8.604   8.371  0.0000  0.0000  0.0000
16579TPS    CA620162   8.376   8.490   8.113  0.0000  0.0000  0.0000
16579TPS    HH620163   8.391   8.394   8.162  0.0000  0.0000  0.0000
16579TPS    CA520164   8.399   8.497   7.974  0.0000  0.0000  0.0000
16579TPS    HA520165   8.431   8.410   7.919  0.0000  0.0000  0.0000
16579TPS    CA420166   8.376   8.618   7.906  0.0000  0.0000  0.0000
16579TPS    HA420167   8.395   8.624   7.799  0.0000  0.0000  0.0000
16579TPS    CA320168   8.329   8.730   7.976  0.0000  0.0000  0.0000
16579TPS    HA320169   8.312   8.823   7.922  0.0000  0.0000  0.0000
16580TPS    HA220170   0.532   5.160   1.595  0.0000  0.0000  0.0000
16580TPS    CA220171   0.559   5.252   1.646  0.0000  0.0000  0.0000
16580TPS    CA120172   0.584   5.371   1.576  0.0000  0.0000  0.0000
16580TPS     Si20173   0.584   5.371   1.390  0.0000  0.0000  0.0000
16580TPS    CA620174   0.625   5.485   1.648  0.0000  0.0000  0.0000
16580TPS    HH620175   0.640   5.581   1.599  0.0000  0.0000  0.0000
16580TPS    CA520176   0.648   5.478   1.787  0.0000  0.0000  0.0000
16580TPS    HA520177   0.680   5.565   1.842  0.0000  0.0000  0.0000
16580TPS    CA420178   0.625   5.357   1.855  0.0000  0.0000  0.0000
16580TPS    HA420179   0.644   5.351   1.962  0.0000  0.0000  0.0000
16580TPS    CA320180   0.578   5.245   1.785  0.0000  0.0000  0.0000
16580TPS    HA320181   0.561   5.152   1.839  0.0000  0.0000  0.0000
16581TPS    HA220182   1.621   8.981   8.056  0.0000  0.0000  0.0000
16581TPS    CA220183   1.615   8.886   8.005  0.0000  0.0000  0.0000
16581TPS    CA120184   1.598   8.765   8.075  0.0000  0.0000  0.0000
16581TPS     Si20185   1.598   8.765   8.261  0.0000  0.0000  0.0000
16581TPS    CA620186   1.598   8.644   8.003  0.0000  0.0000  0.0000
16581TPS    HH620187   1.579   8.549   8.052  0.0000  0.0000  0.0000
16581TPS    CA520188   1.621   8.643   7.864  0.0000  0.0000  0.0000
16581TPS    HA520189   1.622   8.550   7.809  0.0000  0.0000  0.0000
16581TPS    CA420190   1.641   8.764   7.796  0.0000  0.0000  0.0000
16581TPS    HA420191   1.661   8.763   7.689  0.0000  0.0000  0.0000
16581TPS    CA320192   1.635   8.885   7.866  0.0000  0.0000  0.0000
16581TPS    HA320193   1.651   8.978   7.812  0.0000  0.0000  0.0000
16582TPS    HA220194   8.045   4.572   1.609  0.0000  0.0000  0.0000
16582TPS    CA220195   8.111   4.504   1.660  0.0000  0.0000  0.0000
16582TPS    CA120196   8.202   4.422   1.590  0.0000  0.0000  0.0000
16582TPS     Si20197   8.202   4.422   1.404  0.0000  0.0000  0.0000
16582TPS    CA620198   8.280   4.329   1.662  0.0000  0.0000  0.0000
16582TPS    HH620199   8.355   4.268   1.613  0.0000  0.0000  0.0000
16582TPS    CA520200   8.263   4.314   1.801  0.0000  0.0000  0.0000
16582TPS    HA520201   8.322   4.242   1.856  0.0000  0.0000  0.0000
16582TPS    CA420202   8.170   4.393   1.869  0.0000  0.0000  0.0000
16582TPS    HA420203   8.155   4.380   1.976  0.0000  0.0000  0.0000
16582TPS    CA320204   8.096   4.490   1.799  0.0000  0.0000  0.0000
16582TPS    HA320205   8.024   4.552   1.853  0.0000  0.0000  0.0000
16583TPS    HA220206   2.670   1.647   8.180  0.0000  0.0000  0.0000
16583TPS    CA220207   2.697   1.555   8.129  0.0000  0.0000  0.0000
16583TPS    CA120208   2.722   1.436   8.199  0.0000  0.0000  0.0000
16583TPS     Si20209   2.722   1.436   8.385  0.0000  0.0000  0.0000
16583TPS    CA620210   2.763   1.322   8.127  0.0000  0.0000  0.0000
16583TPS    HH620211   2.778   1.226   8.176  0.0000  0.0000  0.0000
16583TPS    CA520212   2.786   1.329   7.988  0.0000  0.0000  0.0000
16583TPS    HA520213   2.818   1.242   7.933  0.0000  0.0000  0.0000
16583TPS    CA420214   2.763   1.450   7.920  0.0000  0.0000  0.0000
16583TPS    HA420215   2.782   1.456   7.813  0.0000  0.0000  0.0000
16583TPS    CA320216   2.716   1.562   7.990  0.0000  0.0000  0.0000
16583TPS    HA320217   2.699   1.655   7.936  0.0000  0.0000  0.0000
16584TPS    HA220218   6.421   4.548   1.433  0.0000  0.0000  0.0000
16584TPS    CA220219   6.448   4.640   1.484  0.0000  0.0000  0.0000
16584TPS    CA120220   6.473   4.759   1.414  0.0000  0.0000  0.0000
16584TPS     Si20221   6.473   4.759   1.228  0.0000  0.0000  0.0000
16584TPS    CA620222   6.514   4.873   1.486  0.0000  0.0000  0.0000
16584TPS    HH620223   6.529   4.969   1.437  0.0000  0.0000  0.0000
16584TPS    CA520224   6.537   4.866   1.625  0.0000  0.0000  0.0000
16584TPS    HA520225   6.569   4.953   1.680  0.0000  0.0000  0.0000
16584TPS    CA420226   6.514   4.745   1.693  0.0000  0.0000  0.0000
16584TPS    HA420227   6.533   4.739   1.800  0.0000  0.0000  0.0000
16584TPS    CA320228   6.467   4.633   1.623  0.0000  0.0000  0.0000
16584TPS    HA320229   6.450   4.540   1.677  0.0000  0.0000  0.0000
16585TPS    HA220230   7.407   7.877   1.478  0.0000  0.0000  0.0000
16585TPS    CA220231   7.434   7.969   1.529  0.0000  0.0000  0.0000
16585TPS    CA120232   7.459   8.088   1.459  0.0000  0.0000  0.0000
16585TPS     Si20233   7.459   8.088   1.273  0.0000  0.0000  0.0000
16585TPS    CA620234   7.500   8.202   1.531  0.0000  0.0000  0.0000
16585TPS    HH620235   7.515   8.298   1.482  0.0000  0.0000  0.0000
16585TPS    CA520236   7.523   8.195   1.670  0.0000  0.0000  0.0000
16585TPS    HA520237   7.555   8.282   1.725  0.0000  0.0000  0.0000
16585TPS    CA420238   7.500   8.074   1.738  0.0000  0.0000  0.0000
16585TPS    HA420239   7.519   8.068   1.845  0.0000  0.0000  0.0000
16585TPS    CA320240   7.453   7.962   1.668  0.0000  0.0000  0.0000
16585TPS    HA320241   7.436   7.869   1.722  0.0000  0.0000  0.0000
16586TPS    HA220242   7.831   1.777   8.012  0.0000  0.0000  0.0000
16586TPS    CA220243   7.858   1.685   7.961  0.0000  0.0000  0.0000
16586TPS    CA120244   7.883   1.566   8.031  0.0000  0.0000  0.0000
16586TPS     Si20245   7.883   1.566   8.217  0.0000  0.0000  0.0000
16586TPS    CA620246   7.924   1.452   7.959  0.0000  0.0000  0.0000
16586TPS    HH620247   7.939   1.356   8.008  0.0000  0.0000  0.0000
16586TPS    CA520248   7.947   1.459   7.820  0.0000  0.0000  0.0000
16586TPS    HA520249   7.979   1.372   7.765  0.0000  0.0000  0.0000
16586TPS    CA420250   7.924   1.580   7.752  0.0000  0.0000  0.0000
16586TPS    HA420251   7.943   1.586   7.645  0.0000  0.0000  0.0000
16586TPS    CA320252   7.877   1.692   7.822  0.0000  0.0000  0.0000
16586TPS    HA320253   7.860   1.785   7.768  0.0000  0.0000  0.0000
16587TPS    HA220254   2.358   1.424   8.079  0.0000  0.0000  0.0000
16587TPS    CA220255   2.352   1.329   8.028  0.0000  0.0000  0.0000
16587TPS    CA120256   2.335   1.208   8.098  0.0000  0.0000  0.0000
16587TPS     Si20257   2.335   1.208   8.284  0.0000  0.0000  0.0000
16587TPS    CA620258   2.335   1.087   8.026  0.0000  0.0000  0.0000
16587TPS    HH620259   2.316   0.992   8.075  0.0000  0.0000  0.0000
16587TPS    CA520260   2.358   1.086   7.887  0.0000  0.0000  0.0000
16587TPS    HA520261   2.359   0.993   7.832  0.0000  0.0000  0.0000
16587TPS    CA420262   2.378   1.207   7.819  0.0000  0.0000  0.0000
16587TPS    HA420263   2.398   1.206   7.712  0.0000  0.0000  0.0000
16587TPS    CA320264   2.372   1.328   7.889  0.0000  0.0000  0.0000
16587TPS    HA320265   2.388   1.421   7.835  0.0000  0.0000  0.0000
16588TPS    HA220266   8.675   2.608   1.529  0.0000  0.0000  0.0000
16588TPS    CA220267   8.702   2.700   1.580  0.0000  0.0000  0.0000
16588TPS    CA120268   8.727   2.819   1.510  0.0000  0.0000  0.0000
16588TPS     Si20269   8.727   2.819   1.324  0.0000  0.0000  0.0000
16588TPS    CA620270   8.768   2.933   1.582  0.0000  0.0000  0.0000
16588TPS    HH620271   8.783   3.029   1.533  0.0000  0.0000  0.0000
16588TPS    CA520272   8.791   2.926   1.721  0.0000  0.0000  0.0000
16588TPS    HA520273   8.823   3.013   1.776  0.0000  0.0000  0.0000
16588TPS    CA420274   8.768   2.805   1.789  0.0000  0.0000  0.0000
16588TPS    HA420275   8.787   2.799   1.896  0.0000  0.0000  0.0000
16588TPS    CA320276   8.721   2.693   1.719  0.0000  0.0000  0.0000
16588TPS    HA320277   8.704   2.600   1.773  0.0000  0.0000  0.0000
16589TPS    HA220278   8.345   3.026   8.121  0.0000  0.0000  0.0000
16589TPS    CA220279   8.372   2.934   8.070  0.0000  0.0000  0.0000
16589TPS    CA120280   8.397   2.815   8.140  0.0000  0.0000  0.0000
16589TPS     Si20281   8.397   2.815   8.326  0.0000  0.0000  0.0000
16589TPS    CA620282   8.438   2.701   8.068  0.0000  0.0000  0.0000
16589TPS    HH620283   8.453   2.605   8.117  0.0000  0.0000  0.0000
16589TPS    CA520284   8.461   2.708   7.929  0.0000  0.0000  0.0000
16589TPS    HA520285   8.493   2.621   7.874  0.0000  0.0000  0.0000
16589TPS    CA420286   8.438   2.829   7.861  0.0000  0.0000  0.0000
16589TPS    HA420287   8.457   2.835   7.754  0.0000  0.0000  0.0000
16589TPS    CA320288   8.391   2.941   7.931  0.0000  0.0000  0.0000
16589TPS    HA320289   8.374   3.034   7.877  0.0000  0.0000  0.0000
16590TPS    HA220290   6.389   4.320   8.182  0.0000  0.0000  0.0000
16590TPS    CA220291   6.383   4.225   8.131  0.0000  0.0000  0.0000
16590TPS    CA120292   6.366   4.104   8.201  0.0000  0.0000  0.0000
16590TPS     Si20293   6.366   4.104   8.387  0.0000  0.0000  0.0000
16590TPS    CA620294   6.366   3.983   8.129  0.0000  0.0000  0.0000
16590TPS    HH620295   6.347   3.888   8.178  0.0000  0.0000  0.0000
16590TPS    CA520296   6.389   3.982   7.990  0.0000  0.0000  0.0000
16590TPS    HA520297   6.390   3.889   7.935  0.0000  0.0000  0.0000
16590TPS    CA420298   6.409   4.103   7.922  0.0000  0.0000  0.0000
16590TPS    HA420299   6.429   4.102   7.815  0.0000  0.0000  0.0000
16590TPS    CA320300   6.403   4.224   7.992  0.0000  0.0000  0.0000
16590TPS    HA320301   6.419   4.317   7.938  0.0000  0.0000  0.0000
16591TPS    HA220302   5.451   2.436   8.115  0.0000  0.0000  0.0000
16591TPS    CA220303   5.478   2.344   8.064  0.0000  0.0000  0.0000
16591TPS    CA120304   5.503   2.225   8.134  0.0000  0.0000  0.0000
16591TPS     Si20305   5.503   2.225   8.320  0.0000  0.0000  0.0000
16591TPS    CA620306   5.544   2.111   8.062  0.0000  0.0000  0.0000
16591TPS    HH620307   5.559   2.015   8.111  0.0000  0.0000  0.0000
16591TPS    CA520308   5.567   2.118   7.923  0.0000  0.0000  0.0000
16591TPS    HA520309   5.599   2.031   7.868  0.0000  0.0000  0.0000
16591TPS    CA420310   5.544   2.239   7.855  0.0000  0.0000  0.0000
16591TPS    HA420311   5.563   2.245   7.748  0.0000  0.0000  0.0000
16591TPS    CA320312   5.497   2.351   7.925  0.0000  0.0000  0.0000
16591TPS    HA320313   5.480   2.444   7.871  0.0000  0.0000  0.0000
16592TPS    HA220314   0.171   7.187   7.995  0.0000  0.0000  0.0000
16592TPS    CA220315   0.198   7.095   7.944  0.0000  0.0000  0.0000
16592TPS    CA120316   0.223   6.976   8.014  0.0000  0.0000  0.0000
16592TPS     Si20317   0.223   6.976   8.200  0.0000  0.0000  0.0000
16592TPS    CA620318   0.264   6.862   7.942  0.0000  0.0000  0.0000
16592TPS    HH620319   0.279   6.766   7.991  0.0000  0.0000  0.0000
16592TPS    CA520320   0.287   6.869   7.803  0.0000  0.0000  0.0000
16592TPS    HA520321   0.319   6.782   7.748  0.0000  0.0000  0.0000
16592TPS    CA420322   0.264   6.990   7.735  0.0000  0.0000  0.0000
16592TPS    HA420323   0.283   6.996   7.628  0.0000  0.0000  0.0000
16592TPS    CA320324   0.217   7.102   7.805  0.0000  0.0000  0.0000
16592TPS    HA320325   0.200   7.195   7.751  0.0000  0.0000  0.0000
16593TPS    HA220326   3.189   5.045   8.058  0.0000  0.0000  0.0000
16593TPS    CA220327   3.216   4.953   8.007  0.0000  0.0000  0.0000
16593TPS    CA120328   3.241   4.834   8.077  0.0000  0.0000  0.0000
16593TPS     Si20329   3.241   4.834   8.263  0.0000  0.0000  0.0000
16593TPS    CA620330   3.282   4.720   8.005  0.0000  0.0000  0.0000
16593TPS    HH620331   3.297   4.624   8.054  0.0000  0.0000  0.0000
16593TPS    CA520332   3.305   4.727   7.866  0.0000  0.0000  0.0000
16593TPS    HA520333   3.337   4.640   7.811  0.0000  0.0000  0.0000
16593TPS    CA420334   3.282   4.848   7.798  0.0000  0.0000  0.0000
16593TPS    HA420335   3.301   4.854   7.691  0.0000  0.0000  0.0000
16593TPS    CA320336   3.235   4.960   7.868  0.0000  0.0000  0.0000
16593TPS    HA320337   3.218   5.053   7.814  0.0000  0.0000  0.0000
16594TPS    HA220338   0.503   0.227   8.091  0.0000  0.0000  0.0000
16594TPS    CA220339   0.497   0.132   8.040  0.0000  0.0000  0.0000
16594TPS    CA120340   0.480   0.011   8.110  0.0000  0.0000  0.0000
16594TPS     Si20341   0.480   0.011   8.296  0.0000  0.0000  0.0000
16594TPS    CA620342   0.480  -0.110   8.038  0.0000  0.0000  0.0000
16594TPS    HH620343   0.461  -0.205   8.087  0.0000  0.0000  0.0000
16594TPS    CA520344   0.503  -0.111   7.899  0.0000  0.0000  0.0000
16594TPS    HA520345   0.504  -0.204   7.844  0.0000  0.0000  0.0000
16594TPS    CA420346   0.523   0.010   7.831  0.0000  0.0000  0.0000
16594TPS    HA420347   0.543   0.009   7.724  0.0000  0.0000  0.0000
16594TPS    CA320348   0.517   0.131   7.901  0.0000  0.0000  0.0000
16594TPS    HA320349   0.533   0.224   7.847  0.0000  0.0000  0.0000
16595TPS    HA220350   0.313   1.866   8.050  0.0000  0.0000  0.0000
16595TPS    CA220351   0.340   1.774   7.999  0.0000  0.0000  0.0000
16595TPS    CA120352   0.365   1.655   8.069  0.0000  0.0000  0.0000
16595TPS     Si20353   0.365   1.655   8.255  0.0000  0.0000  0.0000
16595TPS    CA620354   0.406   1.541   7.997  0.0000  0.0000  0.0000
16595TPS    HH620355   0.421   1.445   8.046  0.0000  0.0000  0.0000
16595TPS    CA520356   0.429   1.548   7.858  0.0000  0.0000  0.0000
16595TPS    HA520357   0.461   1.461   7.803  0.0000  0.0000  0.0000
16595TPS    CA420358   0.406   1.669   7.790  0.0000  0.0000  0.0000
16595TPS    HA420359   0.425   1.675   7.683  0.0000  0.0000  0.0000
16595TPS    CA320360   0.359   1.781   7.860  0.0000  0.0000  0.0000
16595TPS    HA320361   0.342   1.874   7.806  0.0000  0.0000  0.0000
16596TPS    HA220362   7.746   2.263   8.047  0.0000  0.0000  0.0000
16596TPS    CA220363   7.740   2.168   7.996  0.0000  0.0000  0.0000
16596TPS    CA120364   7.723   2.047   8.066  0.0000  0.0000  0.0000
16596TPS     Si20365   7.723   2.047   8.252  0.0000  0.0000  0.0000
16596TPS    CA620366   7.723   1.926   7.994  0.0000  0.0000  0.0000
16596TPS    HH620367   7.704   1.831   8.043  0.0000  0.0000  0.0000
16596TPS    CA520368   7.746   1.925   7.855  0.0000  0.0000  0.0000
16596TPS    HA520369   7.747   1.832   7.800  0.0000  0.0000  0.0000
16596TPS    CA420370   7.766   2.046   7.787  0.0000  0.0000  0.0000
16596TPS    HA420371   7.786   2.045   7.680  0.0000  0.0000  0.0000
16596TPS    CA320372   7.760   2.167   7.857  0.0000  0.0000  0.0000
16596TPS    HA320373   7.776   2.260   7.803  0.0000  0.0000  0.0000
16597TPS    HA220374   0.925   8.343   8.049  0.0000  0.0000  0.0000
16597TPS    CA220375   0.952   8.251   7.998  0.0000  0.0000  0.0000
16597TPS    CA120376   0.977   8.132   8.068  0.0000  0.0000  0.0000
16597TPS     Si20377   0.977   8.132   8.254  0.0000  0.0000  0.0000
16597TPS    CA620378   1.018   8.018   7.996  0.0000  0.0000  0.0000
16597TPS    HH620379   1.033   7.922   8.045  0.0000  0.0000  0.0000
16597TPS    CA520380   1.041   8.025   7.857  0.0000  0.0000  0.0000
16597TPS    HA520381   1.073   7.938   7.802  0.0000  0.0000  0.0000
16597TPS    CA420382   1.018   8.146   7.789  0.0000  0.0000  0.0000
16597TPS    HA420383   1.037   8.152   7.682  0.0000  0.0000  0.0000
16597TPS    CA320384   0.971   8.258   7.859  0.0000  0.0000  0.0000
16597TPS    HA320385   0.954   8.351   7.805  0.0000  0.0000  0.0000
16598TPS    HA220386   5.882   2.210   1.442  0.0000  0.0000  0.0000
16598TPS    CA220387   5.909   2.302   1.493  0.0000  0.0000  0.0000
16598TPS    CA120388   5.934   2.421   1.423  0.0000  0.0000  0.0000
16598TPS     Si20389   5.934   2.421   1.237  0.0000  0.0000  0.0000
16598TPS    CA620390   5.975   2.535   1.495  0.0000  0.0000  0.0000
16598TPS    HH620391   5.990   2.631   1.446  0.0000  0.0000  0.0000
16598TPS    CA520392   5.998   2.528   1.634  0.0000  0.0000  0.0000
16598TPS    HA520393   6.030   2.615   1.689  0.0000  0.0000  0.0000
16598TPS    CA420394   5.975   2.407   1.702  0.0000  0.0000  0.0000
16598TPS    HA420395   5.994   2.401   1.809  0.0000  0.0000  0.0000
16598TPS    CA320396   5.928   2.295   1.632  0.0000  0.0000  0.0000
16598TPS    HA320397   5.911   2.202   1.686  0.0000  0.0000  0.0000
16599TPS    HA220398   2.652   1.088   1.350  0.0000  0.0000  0.0000
16599TPS    CA220399   2.679   1.180   1.401  0.0000  0.0000  0.0000
16599TPS    CA120400   2.704   1.299   1.331  0.0000  0.0000  0.0000
16599TPS     Si20401   2.704   1.299   1.145  0.0000  0.0000  0.0000
16599TPS    CA620402   2.745   1.413   1.403  0.0000  0.0000  0.0000
16599TPS    HH620403   2.760   1.509   1.354  0.0000  0.0000  0.0000
16599TPS    CA520404   2.768   1.406   1.542  0.0000  0.0000  0.0000
16599TPS    HA520405   2.800   1.493   1.597  0.0000  0.0000  0.0000
16599TPS    CA420406   2.745   1.285   1.610  0.0000  0.0000  0.0000
16599TPS    HA420407   2.764   1.279   1.717  0.0000  0.0000  0.0000
16599TPS    CA320408   2.698   1.173   1.540  0.0000  0.0000  0.0000
16599TPS    HA320409   2.681   1.080   1.594  0.0000  0.0000  0.0000
16600TPS    HA220410   0.355   3.169   1.491  0.0000  0.0000  0.0000
16600TPS    CA220411   0.382   3.261   1.542  0.0000  0.0000  0.0000
16600TPS    CA120412   0.407   3.380   1.472  0.0000  0.0000  0.0000
16600TPS     Si20413   0.407   3.380   1.286  0.0000  0.0000  0.0000
16600TPS    CA620414   0.448   3.494   1.544  0.0000  0.0000  0.0000
16600TPS    HH620415   0.463   3.590   1.495  0.0000  0.0000  0.0000
16600TPS    CA520416   0.471   3.487   1.683  0.0000  0.0000  0.0000
16600TPS    HA520417   0.503   3.574   1.738  0.0000  0.0000  0.0000
16600TPS    CA420418   0.448   3.366   1.751  0.0000  0.0000  0.0000
16600TPS    HA420419   0.467   3.360   1.858  0.0000  0.0000  0.0000
16600TPS    CA320420   0.401   3.254   1.681  0.0000  0.0000  0.0000
16600TPS    HA320421   0.384   3.161   1.735  0.0000  0.0000  0.0000
16601TPS    HA220422   6.386   3.248   1.341  0.0000  0.0000  0.0000
16601TPS    CA220423   6.413   3.340   1.392  0.0000  0.0000  0.0000
16601TPS    CA120424   6.438   3.459   1.322  0.0000  0.0000  0.0000
16601TPS     Si20425   6.438   3.459   1.136  0.0000  0.0000  0.0000
16601TPS    CA620426   6.479   3.573   1.394  0.0000  0.0000  0.0000
16601TPS    HH620427   6.494   3.669   1.345  0.0000  0.0000  0.0000
16601TPS    CA520428   6.502   3.566   1.533  0.0000  0.0000  0.0000
16601TPS    HA520429   6.534   3.653   1.588  0.0000  0.0000  0.0000
16601TPS    CA420430   6.479   3.445   1.601  0.0000  0.0000  0.0000
16601TPS    HA420431   6.498   3.439   1.708  0.0000  0.0000  0.0000
16601TPS    CA320432   6.432   3.333   1.531  0.0000  0.0000  0.0000
16601TPS    HA320433   6.415   3.240   1.585  0.0000  0.0000  0.0000
16602TPS    HA220434   5.545   3.389   7.970  0.0000  0.0000  0.0000
16602TPS    CA220435   5.572   3.297   7.919  0.0000  0.0000  0.0000
16602TPS    CA120436   5.597   3.178   7.989  0.0000  0.0000  0.0000
16602TPS     Si20437   5.597   3.178   8.175  0.0000  0.0000  0.0000
16602TPS    CA620438   5.638   3.064   7.917  0.0000  0.0000  0.0000
16602TPS    HH620439   5.653   2.968   7.966  0.0000  0.0000  0.0000
16602TPS    CA520440   5.661   3.071   7.778  0.0000  0.0000  0.0000
16602TPS    HA520441   5.693   2.984   7.723  0.0000  0.0000  0.0000
16602TPS    CA420442   5.638   3.192   7.710  0.0000  0.0000  0.0000
16602TPS    HA420443   5.657   3.198   7.603  0.0000  0.0000  0.0000
16602TPS    CA320444   5.591   3.304   7.780  0.0000  0.0000  0.0000
16602TPS    HA320445   5.574   3.397   7.726  0.0000  0.0000  0.0000
16603TPS    HA220446   0.982   1.189   8.098  0.0000  0.0000  0.0000
16603TPS    CA220447   1.009   1.097   8.047  0.0000  0.0000  0.0000
16603TPS    CA120448   1.034   0.978   8.117  0.0000  0.0000  0.0000
16603TPS     Si20449   1.034   0.978   8.303  0.0000  0.0000  0.0000
16603TPS    CA620450   1.075   0.864   8.045  0.0000  0.0000  0.0000
16603TPS    HH620451   1.090   0.768   8.094  0.0000  0.0000  0.0000
16603TPS    CA520452   1.098   0.871   7.906  0.0000  0.0000  0.0000
16603TPS    HA520453   1.130   0.784   7.851  0.0000  0.0000  0.0000
16603TPS    CA420454   1.075   0.992   7.838  0.0000  0.0000  0.0000
16603TPS    HA420455   1.094   0.998   7.731  0.0000  0.0000  0.0000
16603TPS    CA320456   1.028   1.104   7.908  0.0000  0.0000  0.0000
16603TPS    HA320457   1.011   1.197   7.854  0.0000  0.0000  0.0000
16604TPS    HA220458   9.458   6.898   8.021  0.0000  0.0000  0.0000
16604TPS    CA220459   9.485   6.806   7.970  0.0000  0.0000  0.0000
16604TPS    CA120460   9.510   6.687   8.040  0.0000  0.0000  0.0000
16604TPS     Si20461   9.510   6.687   8.226  0.0000  0.0000  0.0000
16604TPS    CA620462   9.551   6.573   7.968  0.0000  0.0000  0.0000
16604TPS    HH620463   9.566   6.477   8.017  0.0000  0.0000  0.0000
16604TPS    CA520464   9.574   6.580   7.829  0.0000  0.0000  0.0000
16604TPS    HA520465   9.606   6.493   7.774  0.0000  0.0000  0.0000
16604TPS    CA420466   9.551   6.701   7.761  0.0000  0.0000  0.0000
16604TPS    HA420467   9.570   6.707   7.654  0.0000  0.0000  0.0000
16604TPS    CA320468   9.504   6.813   7.831  0.0000  0.0000  0.0000
16604TPS    HA320469   9.487   6.906   7.777  0.0000  0.0000  0.0000
16605TPS    HA220470   6.192   5.203   8.101  0.0000  0.0000  0.0000
16605TPS    CA220471   6.219   5.111   8.050  0.0000  0.0000  0.0000
16605TPS    CA120472   6.244   4.992   8.120  0.0000  0.0000  0.0000
16605TPS     Si20473   6.244   4.992   8.306  0.0000  0.0000  0.0000
16605TPS    CA620474   6.285   4.878   8.048  0.0000  0.0000  0.0000
16605TPS    HH620475   6.300   4.782   8.097  0.0000  0.0000  0.0000
16605TPS    CA520476   6.308   4.885   7.909  0.0000  0.0000  0.0000
16605TPS    HA520477   6.340   4.798   7.854  0.0000  0.0000  0.0000
16605TPS    CA420478   6.285   5.006   7.841  0.0000  0.0000  0.0000
16605TPS    HA420479   6.304   5.012   7.734  0.0000  0.0000  0.0000
16605TPS    CA320480   6.238   5.118   7.911  0.0000  0.0000  0.0000
16605TPS    HA320481   6.221   5.211   7.857  0.0000  0.0000  0.0000
16606TPS    HA220482   6.905   4.161   1.396  0.0000  0.0000  0.0000
16606TPS    CA220483   6.932   4.253   1.447  0.0000  0.0000  0.0000
16606TPS    CA120484   6.957   4.372   1.377  0.0000  0.0000  0.0000
16606TPS     Si20485   6.957   4.372   1.191  0.0000  0.0000  0.0000
16606TPS    CA620486   6.998   4.486   1.449  0.0000  0.0000  0.0000
16606TPS    HH620487   7.013   4.582   1.400  0.0000  0.0000  0.0000
16606TPS    CA520488   7.021   4.479   1.588  0.0000  0.0000  0.0000
16606TPS    HA520489   7.053   4.566   1.643  0.0000  0.0000  0.0000
16606TPS    CA420490   6.998   4.358   1.656  0.0000  0.0000  0.0000
16606TPS    HA420491   7.017   4.352   1.763  0.0000  0.0000  0.0000
16606TPS    CA320492   6.951   4.246   1.586  0.0000  0.0000  0.0000
16606TPS    HA320493   6.934   4.153   1.640  0.0000  0.0000  0.0000
16607TPS    HA220494   8.971   1.465   8.027  0.0000  0.0000  0.0000
16607TPS    CA220495   8.998   1.373   7.976  0.0000  0.0000  0.0000
16607TPS    CA120496   9.023   1.254   8.046  0.0000  0.0000  0.0000
16607TPS     Si20497   9.023   1.254   8.232  0.0000  0.0000  0.0000
16607TPS    CA620498   9.064   1.140   7.974  0.0000  0.0000  0.0000
16607TPS    HH620499   9.079   1.044   8.023  0.0000  0.0000  0.0000
16607TPS    CA520500   9.087   1.147   7.835  0.0000  0.0000  0.0000
16607TPS    HA520501   9.119   1.060   7.780  0.0000  0.0000  0.0000
16607TPS    CA420502   9.064   1.268   7.767  0.0000  0.0000  0.0000
16607TPS    HA420503   9.083   1.274   7.660  0.0000  0.0000  0.0000
16607TPS    CA320504   9.017   1.380   7.837  0.0000  0.0000  0.0000
16607TPS    HA320505   9.000   1.473   7.783  0.0000  0.0000  0.0000
16608TPS    HA220506   8.902   2.828   1.484  0.0000  0.0000  0.0000
16608TPS    CA220507   8.929   2.920   1.535  0.0000  0.0000  0.0000
16608TPS    CA120508   8.954   3.039   1.465  0.0000  0.0000  0.0000
16608TPS     Si20509   8.954   3.039   1.279  0.0000  0.0000  0.0000
16608TPS    CA620510   8.995   3.153   1.537  0.0000  0.0000  0.0000
16608TPS    HH620511   9.010   3.249   1.488  0.0000  0.0000  0.0000
16608TPS    CA520512   9.018   3.146   1.676  0.0000  0.0000  0.0000
16608TPS    HA520513   9.050   3.233   1.731  0.0000  0.0000  0.0000
16608TPS    CA420514   8.995   3.025   1.744  0.0000  0.0000  0.0000
16608TPS    HA420515   9.014   3.019   1.851  0.0000  0.0000  0.0000
16608TPS    CA320516   8.948   2.913   1.674  0.0000  0.0000  0.0000
16608TPS    HA320517   8.931   2.820   1.728  0.0000  0.0000  0.0000
16609TPS    HA220518   2.113   6.660   1.632  0.0000  0.0000  0.0000
16609TPS    CA220519   2.140   6.752   1.683  0.0000  0.0000  0.0000
16609TPS    CA120520   2.165   6.871   1.613  0.0000  0.0000  0.0000
16609TPS     Si20521   2.165   6.871   1.427  0.0000  0.0000  0.0000
16609TPS    CA620522   2.206   6.985   1.685  0.0000  0.0000  0.0000
16609TPS    HH620523   2.221   7.081   1.636  0.0000  0.0000  0.0000
16609TPS    CA520524   2.229   6.978   1.824  0.0000  0.0000  0.0000
16609TPS    HA520525   2.261   7.065   1.879  0.0000  0.0000  0.0000
16609TPS    CA420526   2.206   6.857   1.892  0.0000  0.0000  0.0000
16609TPS    HA420527   2.225   6.851   1.999  0.0000  0.0000  0.0000
16609TPS    CA320528   2.159   6.745   1.822  0.0000  0.0000  0.0000
16609TPS    HA320529   2.142   6.652   1.876  0.0000  0.0000  0.0000
16610TPS    HA220530   0.276   6.288   8.178  0.0000  0.0000  0.0000
16610TPS    CA220531   0.303   6.196   8.127  0.0000  0.0000  0.0000
16610TPS    CA120532   0.328   6.077   8.197  0.0000  0.0000  0.0000
16610TPS     Si20533   0.328   6.077   8.383  0.0000  0.0000  0.0000
16610TPS    CA620534   0.369   5.963   8.125  0.0000  0.0000  0.0000
16610TPS    HH620535   0.384   5.867   8.174  0.0000  0.0000  0.0000
16610TPS    CA520536   0.392   5.970   7.986  0.0000  0.0000  0.0000
16610TPS    HA520537   0.424   5.883   7.931  0.0000  0.0000  0.0000
16610TPS    CA420538   0.369   6.091   7.918  0.0000  0.0000  0.0000
16610TPS    HA420539   0.388   6.097   7.811  0.0000  0.0000  0.0000
16610TPS    CA320540   0.322   6.203   7.988  0.0000  0.0000  0.0000
16610TPS    HA320541   0.305   6.296   7.934  0.0000  0.0000  0.0000
16611TPS    HA220542   5.831   7.661   1.603  0.0000  0.0000  0.0000
16611TPS    CA220543   5.858   7.753   1.654  0.0000  0.0000  0.0000
16611TPS    CA120544   5.883   7.872   1.584  0.0000  0.0000  0.0000
16611TPS     Si20545   5.883   7.872   1.398  0.0000  0.0000  0.0000
16611TPS    CA620546   5.924   7.986   1.656  0.0000  0.0000  0.0000
16611TPS    HH620547   5.939   8.082   1.607  0.0000  0.0000  0.0000
16611TPS    CA520548   5.947   7.979   1.795  0.0000  0.0000  0.0000
16611TPS    HA520549   5.979   8.066   1.850  0.0000  0.0000  0.0000
16611TPS    CA420550   5.924   7.858   1.863  0.0000  0.0000  0.0000
16611TPS    HA420551   5.943   7.852   1.970  0.0000  0.0000  0.0000
16611TPS    CA320552   5.877   7.746   1.793  0.0000  0.0000  0.0000
16611TPS    HA320553   5.860   7.653   1.847  0.0000  0.0000  0.0000
16612TPS    HA220554   6.201   2.845   1.446  0.0000  0.0000  0.0000
16612TPS    CA220555   6.228   2.937   1.497  0.0000  0.0000  0.0000
16612TPS    CA120556   6.253   3.056   1.427  0.0000  0.0000  0.0000
16612TPS     Si20557   6.253   3.056   1.241  0.0000  0.0000  0.0000
16612TPS    CA620558   6.294   3.170   1.499  0.0000  0.0000  0.0000
16612TPS    HH620559   6.309   3.266   1.450  0.0000  0.0000  0.0000
16612TPS    CA520560   6.317   3.163   1.638  0.0000  0.0000  0.0000
16612TPS    HA520561   6.349   3.250   1.693  0.0000  0.0000  0.0000
16612TPS    CA420562   6.294   3.042   1.706  0.0000  0.0000  0.0000
16612TPS    HA420563   6.313   3.036   1.813  0.0000  0.0000  0.0000
16612TPS    CA320564   6.247   2.930   1.636  0.0000  0.0000  0.0000
16612TPS    HA320565   6.230   2.837   1.690  0.0000  0.0000  0.0000
16613TPS    HA220566   9.129   4.903   1.620  0.0000  0.0000  0.0000
16613TPS    CA220567   9.156   4.995   1.671  0.0000  0.0000  0.0000
16613TPS    CA120568   9.181   5.114   1.601  0.0000  0.0000  0.0000
16613TPS     Si20569   9.181   5.114   1.415  0.0000  0.0000  0.0000
16613TPS    CA620570   9.222   5.228   1.673  0.0000  0.0000  0.0000
16613TPS    HH620571   9.237   5.324   1.624  0.0000  0.0000  0.0000
16613TPS    CA520572   9.245   5.221   1.812  0.0000  0.0000  0.0000
16613TPS    HA520573   9.277   5.308   1.867  0.0000  0.0000  0.0000
16613TPS    CA420574   9.222   5.100   1.880  0.0000  0.0000  0.0000
16613TPS    HA420575   9.241   5.094   1.987  0.0000  0.0000  0.0000
16613TPS    CA320576   9.175   4.988   1.810  0.0000  0.0000  0.0000
16613TPS    HA320577   9.158   4.895   1.864  0.0000  0.0000  0.0000
16614TPS    HA220578   6.630   8.711   1.393  0.0000  0.0000  0.0000
16614TPS    CA220579   6.657   8.803   1.444  0.0000  0.0000  0.0000
16614TPS    CA120580   6.682   8.922   1.374  0.0000  0.0000  0.0000
16614TPS     Si20581   6.682   8.922   1.188  0.0000  0.0000  0.0000
16614TPS    CA620582   6.723   9.036   1.446  0.0000  0.0000  0.0000
16614TPS    HH620583   6.738   9.132   1.397  0.0000  0.0000  0.0000
16614TPS    CA520584   6.746   9.029   1.585  0.0000  0.0000  0.0000
16614TPS    HA520585   6.778   9.116   1.640  0.0000  0.0000  0.0000
16614TPS    CA420586   6.723   8.908   1.653  0.0000  0.0000  0.0000
16614TPS    HA420587   6.742   8.902   1.760  0.0000  0.0000  0.0000
16614TPS    CA320588   6.676   8.796   1.583  0.0000  0.0000  0.0000
16614TPS    HA320589   6.659   8.703   1.637  0.0000  0.0000  0.0000
16615TPS    HA220590   3.705   5.075   8.140  0.0000  0.0000  0.0000
16615TPS    CA220591   3.800   5.086   8.089  0.0000  0.0000  0.0000
16615TPS    CA120592   3.922   5.090   8.159  0.0000  0.0000  0.0000
16615TPS     Si20593   3.922   5.090   8.345  0.0000  0.0000  0.0000
16615TPS    CA620594   4.042   5.111   8.087  0.0000  0.0000  0.0000
16615TPS    HH620595   4.138   5.109   8.136  0.0000  0.0000  0.0000
16615TPS    CA520596   4.038   5.134   7.948  0.0000  0.0000  0.0000
16615TPS    HA520597   4.130   5.151   7.893  0.0000  0.0000  0.0000
16615TPS    CA420598   3.916   5.133   7.880  0.0000  0.0000  0.0000
16615TPS    HA420599   3.913   5.153   7.773  0.0000  0.0000  0.0000
16615TPS    CA320600   3.797   5.106   7.950  0.0000  0.0000  0.0000
16615TPS    HA320601   3.703   5.105   7.896  0.0000  0.0000  0.0000
16616TPS    HA220602   3.168   4.252   1.497  0.0000  0.0000  0.0000
16616TPS    CA220603   3.195   4.344   1.548  0.0000  0.0000  0.0000
16616TPS    CA120604   3.220   4.463   1.478  0.0000  0.0000  0.0000
16616TPS     Si20605   3.220   4.463   1.292  0.0000  0.0000  0.0000
16616TPS    CA620606   3.261   4.577   1.550  0.0000  0.0000  0.0000
16616TPS    HH620607   3.276   4.673   1.501  0.0000  0.0000  0.0000
16616TPS    CA520608   3.284   4.570   1.689  0.0000  0.0000  0.0000
16616TPS    HA520609   3.316   4.657   1.744  0.0000  0.0000  0.0000
16616TPS    CA420610   3.261   4.449   1.757  0.0000  0.0000  0.0000
16616TPS    HA420611   3.280   4.443   1.864  0.0000  0.0000  0.0000
16616TPS    CA320612   3.214   4.337   1.687  0.0000  0.0000  0.0000
16616TPS    HA320613   3.197   4.244   1.741  0.0000  0.0000  0.0000
16617TPS    HA220614   9.140   6.306   8.160  0.0000  0.0000  0.0000
16617TPS    CA220615   9.167   6.214   8.109  0.0000  0.0000  0.0000
16617TPS    CA120616   9.192   6.095   8.179  0.0000  0.0000  0.0000
16617TPS     Si20617   9.192   6.095   8.365  0.0000  0.0000  0.0000
16617TPS    CA620618   9.233   5.981   8.107  0.0000  0.0000  0.0000
16617TPS    HH620619   9.248   5.885   8.156  0.0000  0.0000  0.0000
16617TPS    CA520620   9.256   5.988   7.968  0.0000  0.0000  0.0000
16617TPS    HA520621   9.288   5.901   7.913  0.0000  0.0000  0.0000
16617TPS    CA420622   9.233   6.109   7.900  0.0000  0.0000  0.0000
16617TPS    HA420623   9.252   6.115   7.793  0.0000  0.0000  0.0000
16617TPS    CA320624   9.186   6.221   7.970  0.0000  0.0000  0.0000
16617TPS    HA320625   9.169   6.314   7.916  0.0000  0.0000  0.0000
16618TPS    HA220626   2.986   3.325   1.058  0.0000  0.0000  0.0000
16618TPS    CA220627   2.959   3.233   1.109  0.0000  0.0000  0.0000
16618TPS    CA120628   2.934   3.114   1.039  0.0000  0.0000  0.0000
16618TPS     Si20629   2.934   3.114   0.853  0.0000  0.0000  0.0000
16618TPS    CA620630   2.893   3.000   1.111  0.0000  0.0000  0.0000
16618TPS    HH620631   2.878   2.904   1.062  0.0000  0.0000  0.0000
16618TPS    CA520632   2.870   3.007   1.250  0.0000  0.0000  0.0000
16618TPS    HA520633   2.838   2.920   1.305  0.0000  0.0000  0.0000
16618TPS    CA420634   2.893   3.128   1.318  0.0000  0.0000  0.0000
16618TPS    HA420635   2.874   3.134   1.425  0.0000  0.0000  0.0000
16618TPS    CA320636   2.940   3.240   1.248  0.0000  0.0000  0.0000
16618TPS    HA320637   2.957   3.333   1.302  0.0000  0.0000  0.0000
16619TPS    HA220638   0.523   0.507   8.010  0.0000  0.0000  0.0000
16619TPS    CA220639   0.484   0.420   7.959  0.0000  0.0000  0.0000
16619TPS    CA120640   0.427   0.312   8.029  0.0000  0.0000  0.0000
16619TPS     Si20641   0.427   0.312   8.215  0.0000  0.0000  0.0000
16619TPS    CA620642   0.385   0.198   7.957  0.0000  0.0000  0.0000
16619TPS    HH620643   0.335   0.115   8.006  0.0000  0.0000  0.0000
16619TPS    CA520644   0.407   0.190   7.818  0.0000  0.0000  0.0000
16619TPS    HA520645   0.376   0.101   7.763  0.0000  0.0000  0.0000
16619TPS    CA420646   0.467   0.296   7.750  0.0000  0.0000  0.0000
16619TPS    HA420647   0.486   0.289   7.643  0.0000  0.0000  0.0000
16619TPS    CA320648   0.503   0.412   7.820  0.0000  0.0000  0.0000
16619TPS    HA320649   0.550   0.495   7.766  0.0000  0.0000  0.0000
16620TPS    HA220650   0.269   7.244   1.483  0.0000  0.0000  0.0000
16620TPS    CA220651   0.296   7.336   1.534  0.0000  0.0000  0.0000
16620TPS    CA120652   0.321   7.455   1.464  0.0000  0.0000  0.0000
16620TPS     Si20653   0.321   7.455   1.278  0.0000  0.0000  0.0000
16620TPS    CA620654   0.362   7.569   1.536  0.0000  0.0000  0.0000
16620TPS    HH620655   0.377   7.665   1.487  0.0000  0.0000  0.0000
16620TPS    CA520656   0.385   7.562   1.675  0.0000  0.0000  0.0000
16620TPS    HA520657   0.417   7.649   1.730  0.0000  0.0000  0.0000
16620TPS    CA420658   0.362   7.441   1.743  0.0000  0.0000  0.0000
16620TPS    HA420659   0.381   7.435   1.850  0.0000  0.0000  0.0000
16620TPS    CA320660   0.315   7.329   1.673  0.0000  0.0000  0.0000
16620TPS    HA320661   0.298   7.236   1.727  0.0000  0.0000  0.0000
16621TPS    HA220662   7.147   1.572   1.252  0.0000  0.0000  0.0000
16621TPS    CA220663   7.141   1.667   1.303  0.0000  0.0000  0.0000
16621TPS    CA120664   7.124   1.788   1.233  0.0000  0.0000  0.0000
16621TPS     Si20665   7.124   1.788   1.047  0.0000  0.0000  0.0000
16621TPS    CA620666   7.124   1.909   1.305  0.0000  0.0000  0.0000
16621TPS    HH620667   7.105   2.004   1.256  0.0000  0.0000  0.0000
16621TPS    CA520668   7.147   1.910   1.444  0.0000  0.0000  0.0000
16621TPS    HA520669   7.148   2.003   1.499  0.0000  0.0000  0.0000
16621TPS    CA420670   7.167   1.789   1.512  0.0000  0.0000  0.0000
16621TPS    HA420671   7.187   1.790   1.619  0.0000  0.0000  0.0000
16621TPS    CA320672   7.161   1.668   1.442  0.0000  0.0000  0.0000
16621TPS    HA320673   7.177   1.575   1.496  0.0000  0.0000  0.0000
16622TPS    HA220674   6.001   8.112   8.151  0.0000  0.0000  0.0000
16622TPS    CA220675   6.028   8.020   8.100  0.0000  0.0000  0.0000
16622TPS    CA120676   6.053   7.901   8.170  0.0000  0.0000  0.0000
16622TPS     Si20677   6.053   7.901   8.356  0.0000  0.0000  0.0000
16622TPS    CA620678   6.094   7.787   8.098  0.0000  0.0000  0.0000
16622TPS    HH620679   6.109   7.691   8.147  0.0000  0.0000  0.0000
16622TPS    CA520680   6.117   7.794   7.959  0.0000  0.0000  0.0000
16622TPS    HA520681   6.149   7.707   7.904  0.0000  0.0000  0.0000
16622TPS    CA420682   6.094   7.915   7.891  0.0000  0.0000  0.0000
16622TPS    HA420683   6.113   7.921   7.784  0.0000  0.0000  0.0000
16622TPS    CA320684   6.047   8.027   7.961  0.0000  0.0000  0.0000
16622TPS    HA320685   6.030   8.120   7.907  0.0000  0.0000  0.0000
16623TPS    HA220686   2.792   7.852   1.440  0.0000  0.0000  0.0000
16623TPS    CA220687   2.699   7.829   1.491  0.0000  0.0000  0.0000
16623TPS    CA120688   2.583   7.791   1.421  0.0000  0.0000  0.0000
16623TPS     Si20689   2.583   7.791   1.235  0.0000  0.0000  0.0000
16623TPS    CA620690   2.464   7.769   1.493  0.0000  0.0000  0.0000
16623TPS    HH620691   2.373   7.735   1.444  0.0000  0.0000  0.0000
16623TPS    CA520692   2.459   7.793   1.632  0.0000  0.0000  0.0000
16623TPS    HA520693   2.367   7.777   1.687  0.0000  0.0000  0.0000
16623TPS    CA420694   2.574   7.833   1.700  0.0000  0.0000  0.0000
16623TPS    HA420695   2.570   7.853   1.807  0.0000  0.0000  0.0000
16623TPS    CA320696   2.695   7.849   1.630  0.0000  0.0000  0.0000
16623TPS    HA320697   2.784   7.880   1.684  0.0000  0.0000  0.0000
16624TPS    HA220698   1.774   9.271   8.026  0.0000  0.0000  0.0000
16624TPS    CA220699   1.801   9.179   7.975  0.0000  0.0000  0.0000
16624TPS    CA120700   1.826   9.060   8.045  0.0000  0.0000  0.0000
16624TPS     Si20701   1.826   9.060   8.231  0.0000  0.0000  0.0000
16624TPS    CA620702   1.867   8.946   7.973  0.0000  0.0000  0.0000
16624TPS    HH620703   1.882   8.850   8.022  0.0000  0.0000  0.0000
16624TPS    CA520704   1.890   8.953   7.834  0.0000  0.0000  0.0000
16624TPS    HA520705   1.922   8.866   7.779  0.0000  0.0000  0.0000
16624TPS    CA420706   1.867   9.074   7.766  0.0000  0.0000  0.0000
16624TPS    HA420707   1.886   9.080   7.659  0.0000  0.0000  0.0000
16624TPS    CA320708   1.820   9.186   7.836  0.0000  0.0000  0.0000
16624TPS    HA320709   1.803   9.279   7.782  0.0000  0.0000  0.0000
16625TPS    HA220710   2.064   7.326   8.142  0.0000  0.0000  0.0000
16625TPS    CA220711   2.091   7.234   8.091  0.0000  0.0000  0.0000
16625TPS    CA120712   2.116   7.115   8.161  0.0000  0.0000  0.0000
16625TPS     Si20713   2.116   7.115   8.347  0.0000  0.0000  0.0000
16625TPS    CA620714   2.157   7.001   8.089  0.0000  0.0000  0.0000
16625TPS    HH620715   2.172   6.905   8.138  0.0000  0.0000  0.0000
16625TPS    CA520716   2.180   7.008   7.950  0.0000  0.0000  0.0000
16625TPS    HA520717   2.212   6.921   7.895  0.0000  0.0000  0.0000
16625TPS    CA420718   2.157   7.129   7.882  0.0000  0.0000  0.0000
16625TPS    HA420719   2.176   7.135   7.775  0.0000  0.0000  0.0000
16625TPS    CA320720   2.110   7.241   7.952  0.0000  0.0000  0.0000
16625TPS    HA320721   2.093   7.334   7.898  0.0000  0.0000  0.0000
16626TPS    HA220722   1.307   2.041   1.623  0.0000  0.0000  0.0000
16626TPS    CA220723   1.334   2.133   1.674  0.0000  0.0000  0.0000
16626TPS    CA120724   1.359   2.252   1.604  0.0000  0.0000  0.0000
16626TPS     Si20725   1.359   2.252   1.418  0.0000  0.0000  0.0000
16626TPS    CA620726   1.400   2.366   1.676  0.0000  0.0000  0.0000
16626TPS    HH620727   1.415   2.462   1.627  0.0000  0.0000  0.0000
16626TPS    CA520728   1.423   2.359   1.815  0.0000  0.0000  0.0000
16626TPS    HA520729   1.455   2.446   1.870  0.0000  0.0000  0.0000
16626TPS    CA420730   1.400   2.238   1.883  0.0000  0.0000  0.0000
16626TPS    HA420731   1.419   2.232   1.990  0.0000  0.0000  0.0000
16626TPS    CA320732   1.353   2.126   1.813  0.0000  0.0000  0.0000
16626TPS    HA320733   1.336   2.033   1.867  0.0000  0.0000  0.0000
16627TPS    HA220734   2.495   4.226   7.950  0.0000  0.0000  0.0000
16627TPS    CA220735   2.522   4.134   7.899  0.0000  0.0000  0.0000
16627TPS    CA120736   2.547   4.015   7.969  0.0000  0.0000  0.0000
16627TPS     Si20737   2.547   4.015   8.155  0.0000  0.0000  0.0000
16627TPS    CA620738   2.588   3.901   7.897  0.0000  0.0000  0.0000
16627TPS    HH620739   2.603   3.805   7.946  0.0000  0.0000  0.0000
16627TPS    CA520740   2.611   3.908   7.758  0.0000  0.0000  0.0000
16627TPS    HA520741   2.643   3.821   7.703  0.0000  0.0000  0.0000
16627TPS    CA420742   2.588   4.029   7.690  0.0000  0.0000  0.0000
16627TPS    HA420743   2.607   4.035   7.583  0.0000  0.0000  0.0000
16627TPS    CA320744   2.541   4.141   7.760  0.0000  0.0000  0.0000
16627TPS    HA320745   2.524   4.234   7.706  0.0000  0.0000  0.0000
16628TPS    HA220746   8.156   0.233   8.071  0.0000  0.0000  0.0000
16628TPS    CA220747   8.150   0.138   8.020  0.0000  0.0000  0.0000
16628TPS    CA120748   8.133   0.017   8.090  0.0000  0.0000  0.0000
16628TPS     Si20749   8.133   0.017   8.276  0.0000  0.0000  0.0000
16628TPS    CA620750   8.133  -0.104   8.018  0.0000  0.0000  0.0000
16628TPS    HH620751   8.114  -0.199   8.067  0.0000  0.0000  0.0000
16628TPS    CA520752   8.156  -0.105   7.879  0.0000  0.0000  0.0000
16628TPS    HA520753   8.157  -0.198   7.824  0.0000  0.0000  0.0000
16628TPS    CA420754   8.176   0.016   7.811  0.0000  0.0000  0.0000
16628TPS    HA420755   8.196   0.015   7.704  0.0000  0.0000  0.0000
16628TPS    CA320756   8.170   0.137   7.881  0.0000  0.0000  0.0000
16628TPS    HA320757   8.186   0.230   7.827  0.0000  0.0000  0.0000
16629TPS    HA220758   7.595   6.203   1.502  0.0000  0.0000  0.0000
16629TPS    CA220759   7.622   6.295   1.553  0.0000  0.0000  0.0000
16629TPS    CA120760   7.647   6.414   1.483  0.0000  0.0000  0.0000
16629TPS     Si20761   7.647   6.414   1.297  0.0000  0.0000  0.0000
16629TPS    CA620762   7.688   6.528   1.555  0.0000  0.0000  0.0000
16629TPS    HH620763   7.703   6.624   1.506  0.0000  0.0000  0.0000
16629TPS    CA520764   7.711   6.521   1.694  0.0000  0.0000  0.0000
16629TPS    HA520765   7.743   6.608   1.749  0.0000  0.0000  0.0000
16629TPS    CA420766   7.688   6.400   1.762  0.0000  0.0000  0.0000
16629TPS    HA420767   7.707   6.394   1.869  0.0000  0.0000  0.0000
16629TPS    CA320768   7.641   6.288   1.692  0.0000  0.0000  0.0000
16629TPS    HA320769   7.624   6.195   1.746  0.0000  0.0000  0.0000
16630TPS    HA220770   2.212   5.455   1.532  0.0000  0.0000  0.0000
16630TPS    CA220771   2.206   5.550   1.583  0.0000  0.0000  0.0000
16630TPS    CA120772   2.189   5.671   1.513  0.0000  0.0000  0.0000
16630TPS     Si20773   2.189   5.671   1.327  0.0000  0.0000  0.0000
16630TPS    CA620774   2.189   5.792   1.585  0.0000  0.0000  0.0000
16630TPS    HH620775   2.170   5.887   1.536  0.0000  0.0000  0.0000
16630TPS    CA520776   2.212   5.793   1.724  0.0000  0.0000  0.0000
16630TPS    HA520777   2.213   5.886   1.779  0.0000  0.0000  0.0000
16630TPS    CA420778   2.232   5.672   1.792  0.0000  0.0000  0.0000
16630TPS    HA420779   2.252   5.673   1.899  0.0000  0.0000  0.0000
16630TPS    CA320780   2.226   5.551   1.722  0.0000  0.0000  0.0000
16630TPS    HA320781   2.242   5.458   1.776  0.0000  0.0000  0.0000
16631TPS    HA220782   1.915   6.813   1.644  0.0000  0.0000  0.0000
16631TPS    CA220783   1.909   6.908   1.695  0.0000  0.0000  0.0000
16631TPS    CA120784   1.892   7.029   1.625  0.0000  0.0000  0.0000
16631TPS     Si20785   1.892   7.029   1.439  0.0000  0.0000  0.0000
16631TPS    CA620786   1.892   7.150   1.697  0.0000  0.0000  0.0000
16631TPS    HH620787   1.873   7.245   1.648  0.0000  0.0000  0.0000
16631TPS    CA520788   1.915   7.151   1.836  0.0000  0.0000  0.0000
16631TPS    HA520789   1.916   7.244   1.891  0.0000  0.0000  0.0000
16631TPS    CA420790   1.935   7.030   1.904  0.0000  0.0000  0.0000
16631TPS    HA420791   1.955   7.031   2.011  0.0000  0.0000  0.0000
16631TPS    CA320792   1.929   6.909   1.834  0.0000  0.0000  0.0000
16631TPS    HA320793   1.945   6.816   1.888  0.0000  0.0000  0.0000
16632TPS    HA220794   6.407   0.241   1.349  0.0000  0.0000  0.0000
16632TPS    CA220795   6.321   0.283   1.400  0.0000  0.0000  0.0000
16632TPS    CA120796   6.208   0.329   1.330  0.0000  0.0000  0.0000
16632TPS     Si20797   6.208   0.329   1.144  0.0000  0.0000  0.0000
16632TPS    CA620798   6.103   0.389   1.402  0.0000  0.0000  0.0000
16632TPS    HH620799   6.011   0.421   1.353  0.0000  0.0000  0.0000
16632TPS    CA520800   6.114   0.410   1.541  0.0000  0.0000  0.0000
16632TPS    HA520801   6.033   0.457   1.596  0.0000  0.0000  0.0000
16632TPS    CA420802   6.229   0.367   1.609  0.0000  0.0000  0.0000
16632TPS    HA420803   6.238   0.385   1.716  0.0000  0.0000  0.0000
16632TPS    CA320804   6.331   0.301   1.539  0.0000  0.0000  0.0000
16632TPS    HA320805   6.419   0.268   1.593  0.0000  0.0000  0.0000
16633TPS    HA220806   3.118   8.853   8.157  0.0000  0.0000  0.0000
16633TPS    CA220807   3.112   8.758   8.106  0.0000  0.0000  0.0000
16633TPS    CA120808   3.095   8.637   8.176  0.0000  0.0000  0.0000
16633TPS     Si20809   3.095   8.637   8.362  0.0000  0.0000  0.0000
16633TPS    CA620810   3.095   8.516   8.104  0.0000  0.0000  0.0000
16633TPS    HH620811   3.076   8.421   8.153  0.0000  0.0000  0.0000
16633TPS    CA520812   3.118   8.515   7.965  0.0000  0.0000  0.0000
16633TPS    HA520813   3.119   8.422   7.910  0.0000  0.0000  0.0000
16633TPS    CA420814   3.138   8.636   7.897  0.0000  0.0000  0.0000
16633TPS    HA420815   3.158   8.635   7.790  0.0000  0.0000  0.0000
16633TPS    CA320816   3.132   8.757   7.967  0.0000  0.0000  0.0000
16633TPS    HA320817   3.148   8.850   7.913  0.0000  0.0000  0.0000
16634TPS    HA220818   6.503   8.863   1.375  0.0000  0.0000  0.0000
16634TPS    CA220819   6.509   8.768   1.426  0.0000  0.0000  0.0000
16634TPS    CA120820   6.526   8.647   1.356  0.0000  0.0000  0.0000
16634TPS     Si20821   6.526   8.647   1.170  0.0000  0.0000  0.0000
16634TPS    CA620822   6.526   8.526   1.428  0.0000  0.0000  0.0000
16634TPS    HH620823   6.545   8.431   1.379  0.0000  0.0000  0.0000
16634TPS    CA520824   6.503   8.525   1.567  0.0000  0.0000  0.0000
16634TPS    HA520825   6.502   8.432   1.622  0.0000  0.0000  0.0000
16634TPS    CA420826   6.483   8.646   1.635  0.0000  0.0000  0.0000
16634TPS    HA420827   6.463   8.645   1.742  0.0000  0.0000  0.0000
16634TPS    CA320828   6.489   8.767   1.565  0.0000  0.0000  0.0000
16634TPS    HA320829   6.473   8.860   1.619  0.0000  0.0000  0.0000
16635TPS    HA220830   7.481   3.620   8.017  0.0000  0.0000  0.0000
16635TPS    CA220831   7.508   3.528   7.966  0.0000  0.0000  0.0000
16635TPS    CA120832   7.533   3.409   8.036  0.0000  0.0000  0.0000
16635TPS     Si20833   7.533   3.409   8.222  0.0000  0.0000  0.0000
16635TPS    CA620834   7.574   3.295   7.964  0.0000  0.0000  0.0000
16635TPS    HH620835   7.589   3.199   8.013  0.0000  0.0000  0.0000
16635TPS    CA520836   7.597   3.302   7.825  0.0000  0.0000  0.0000
16635TPS    HA520837   7.629   3.215   7.770  0.0000  0.0000  0.0000
16635TPS    CA420838   7.574   3.423   7.757  0.0000  0.0000  0.0000
16635TPS    HA420839   7.593   3.429   7.650  0.0000  0.0000  0.0000
16635TPS    CA320840   7.527   3.535   7.827  0.0000  0.0000  0.0000
16635TPS    HA320841   7.510   3.628   7.773  0.0000  0.0000  0.0000
16636TPS    HA220842   6.125   9.790   8.200  0.0000  0.0000  0.0000
16636TPS    CA220843   6.119   9.695   8.149  0.0000  0.0000  0.0000
16636TPS    CA120844   6.102   9.574   8.219  0.0000  0.0000  0.0000
16636TPS     Si20845   6.102   9.574   8.405  0.0000  0.0000  0.0000
16636TPS    CA620846   6.102   9.453   8.147  0.0000  0.0000  0.0000
16636TPS    HH620847   6.083   9.358   8.196  0.0000  0.0000  0.0000
16636TPS    CA520848   6.125   9.452   8.008  0.0000  0.0000  0.0000
16636TPS    HA520849   6.126   9.359   7.953  0.0000  0.0000  0.0000
16636TPS    CA420850   6.145   9.573   7.940  0.0000  0.0000  0.0000
16636TPS    HA420851   6.165   9.572   7.833  0.0000  0.0000  0.0000
16636TPS    CA320852   6.139   9.694   8.010  0.0000  0.0000  0.0000
16636TPS    HA320853   6.155   9.787   7.956  0.0000  0.0000  0.0000
16637TPS    HA220854   9.270   5.780   1.331  0.0000  0.0000  0.0000
16637TPS    CA220855   9.297   5.872   1.382  0.0000  0.0000  0.0000
16637TPS    CA120856   9.322   5.991   1.312  0.0000  0.0000  0.0000
16637TPS     Si20857   9.322   5.991   1.126  0.0000  0.0000  0.0000
16637TPS    CA620858   9.363   6.105   1.384  0.0000  0.0000  0.0000
16637TPS    HH620859   9.378   6.201   1.335  0.0000  0.0000  0.0000
16637TPS    CA520860   9.386   6.098   1.523  0.0000  0.0000  0.0000
16637TPS    HA520861   9.418   6.185   1.578  0.0000  0.0000  0.0000
16637TPS    CA420862   9.363   5.977   1.591  0.0000  0.0000  0.0000
16637TPS    HA420863   9.382   5.971   1.698  0.0000  0.0000  0.0000
16637TPS    CA320864   9.316   5.865   1.521  0.0000  0.0000  0.0000
16637TPS    HA320865   9.299   5.772   1.575  0.0000  0.0000  0.0000
16638TPS    HA220866   1.100   1.650   1.460  0.0000  0.0000  0.0000
16638TPS    CA220867   1.127   1.742   1.511  0.0000  0.0000  0.0000
16638TPS    CA120868   1.152   1.861   1.441  0.0000  0.0000  0.0000
16638TPS     Si20869   1.152   1.861   1.255  0.0000  0.0000  0.0000
16638TPS    CA620870   1.193   1.975   1.513  0.0000  0.0000  0.0000
16638TPS    HH620871   1.208   2.071   1.464  0.0000  0.0000  0.0000
16638TPS    CA520872   1.216   1.968   1.652  0.0000  0.0000  0.0000
16638TPS    HA520873   1.248   2.055   1.707  0.0000  0.0000  0.0000
16638TPS    CA420874   1.193   1.847   1.720  0.0000  0.0000  0.0000
16638TPS    HA420875   1.212   1.841   1.827  0.0000  0.0000  0.0000
16638TPS    CA320876   1.146   1.735   1.650  0.0000  0.0000  0.0000
16638TPS    HA320877   1.129   1.642   1.704  0.0000  0.0000  0.0000
16639TPS    HA220878   0.349   3.650   8.076  0.0000  0.0000  0.0000
16639TPS    CA220879   0.283   3.582   8.025  0.0000  0.0000  0.0000
16639TPS    CA120880   0.192   3.500   8.095  0.0000  0.0000  0.0000
16639TPS     Si20881   0.192   3.500   8.281  0.0000  0.0000  0.0000
16639TPS    CA620882   0.114   3.407   8.023  0.0000  0.0000  0.0000
16639TPS    HH620883   0.039   3.346   8.072  0.0000  0.0000  0.0000
16639TPS    CA520884   0.131   3.392   7.884  0.0000  0.0000  0.0000
16639TPS    HA520885   0.072   3.320   7.829  0.0000  0.0000  0.0000
16639TPS    CA420886   0.224   3.471   7.816  0.0000  0.0000  0.0000
16639TPS    HA420887   0.239   3.458   7.709  0.0000  0.0000  0.0000
16639TPS    CA320888   0.298   3.568   7.886  0.0000  0.0000  0.0000
16639TPS    HA320889   0.370   3.630   7.832  0.0000  0.0000  0.0000
16640TPS    HA220890   9.095   4.567   8.099  0.0000  0.0000  0.0000
16640TPS    CA220891   9.122   4.475   8.048  0.0000  0.0000  0.0000
16640TPS    CA120892   9.147   4.356   8.118  0.0000  0.0000  0.0000
16640TPS     Si20893   9.147   4.356   8.304  0.0000  0.0000  0.0000
16640TPS    CA620894   9.188   4.242   8.046  0.0000  0.0000  0.0000
16640TPS    HH620895   9.203   4.146   8.095  0.0000  0.0000  0.0000
16640TPS    CA520896   9.211   4.249   7.907  0.0000  0.0000  0.0000
16640TPS    HA520897   9.243   4.162   7.852  0.0000  0.0000  0.0000
16640TPS    CA420898   9.188   4.370   7.839  0.0000  0.0000  0.0000
16640TPS    HA420899   9.207   4.376   7.732  0.0000  0.0000  0.0000
16640TPS    CA320900   9.141   4.482   7.909  0.0000  0.0000  0.0000
16640TPS    HA320901   9.124   4.575   7.855  0.0000  0.0000  0.0000
16641TPS    HA220902   4.772   0.924   8.087  0.0000  0.0000  0.0000
16641TPS    CA220903   4.799   0.832   8.036  0.0000  0.0000  0.0000
16641TPS    CA120904   4.824   0.713   8.106  0.0000  0.0000  0.0000
16641TPS     Si20905   4.824   0.713   8.292  0.0000  0.0000  0.0000
16641TPS    CA620906   4.865   0.599   8.034  0.0000  0.0000  0.0000
16641TPS    HH620907   4.880   0.503   8.083  0.0000  0.0000  0.0000
16641TPS    CA520908   4.888   0.606   7.895  0.0000  0.0000  0.0000
16641TPS    HA520909   4.920   0.519   7.840  0.0000  0.0000  0.0000
16641TPS    CA420910   4.865   0.727   7.827  0.0000  0.0000  0.0000
16641TPS    HA420911   4.884   0.733   7.720  0.0000  0.0000  0.0000
16641TPS    CA320912   4.818   0.839   7.897  0.0000  0.0000  0.0000
16641TPS    HA320913   4.801   0.932   7.843  0.0000  0.0000  0.0000
16642TPS    HA220914   5.210   0.219   8.060  0.0000  0.0000  0.0000
16642TPS    CA220915   5.237   0.127   8.009  0.0000  0.0000  0.0000
16642TPS    CA120916   5.262   0.008   8.079  0.0000  0.0000  0.0000
16642TPS     Si20917   5.262   0.008   8.265  0.0000  0.0000  0.0000
16642TPS    CA620918   5.303  -0.106   8.007  0.0000  0.0000  0.0000
16642TPS    HH620919   5.318  -0.202   8.056  0.0000  0.0000  0.0000
16642TPS    CA520920   5.326  -0.099   7.868  0.0000  0.0000  0.0000
16642TPS    HA520921   5.358  -0.186   7.813  0.0000  0.0000  0.0000
16642TPS    CA420922   5.303   0.022   7.800  0.0000  0.0000  0.0000
16642TPS    HA420923   5.322   0.028   7.693  0.0000  0.0000  0.0000
16642TPS    CA320924   5.256   0.134   7.870  0.0000  0.0000  0.0000
16642TPS    HA320925   5.239   0.227   7.816  0.0000  0.0000  0.0000
16643TPS    HA220926   4.099   4.691   8.040  0.0000  0.0000  0.0000
16643TPS    CA220927   4.126   4.599   7.989  0.0000  0.0000  0.0000
16643TPS    CA120928   4.151   4.480   8.059  0.0000  0.0000  0.0000
16643TPS     Si20929   4.151   4.480   8.245  0.0000  0.0000  0.0000
16643TPS    CA620930   4.192   4.366   7.987  0.0000  0.0000  0.0000
16643TPS    HH620931   4.207   4.270   8.036  0.0000  0.0000  0.0000
16643TPS    CA520932   4.215   4.373   7.848  0.0000  0.0000  0.0000
16643TPS    HA520933   4.247   4.286   7.793  0.0000  0.0000  0.0000
16643TPS    CA420934   4.192   4.494   7.780  0.0000  0.0000  0.0000
16643TPS    HA420935   4.211   4.500   7.673  0.0000  0.0000  0.0000
16643TPS    CA320936   4.145   4.606   7.850  0.0000  0.0000  0.0000
16643TPS    HA320937   4.128   4.699   7.796  0.0000  0.0000  0.0000
16644TPS    HA220938   6.803   6.846   1.440  0.0000  0.0000  0.0000
16644TPS    CA220939   6.830   6.938   1.491  0.0000  0.0000  0.0000
16644TPS    CA120940   6.855   7.057   1.421  0.0000  0.0000  0.0000
16644TPS     Si20941   6.855   7.057   1.235  0.0000  0.0000  0.0000
16644TPS    CA620942   6.896   7.171   1.493  0.0000  0.0000  0.0000
16644TPS    HH620943   6.911   7.267   1.444  0.0000  0.0000  0.0000
16644TPS    CA520944   6.919   7.164   1.632  0.0000  0.0000  0.0000
16644TPS    HA520945   6.951   7.251   1.687  0.0000  0.0000  0.0000
16644TPS    CA420946   6.896   7.043   1.700  0.0000  0.0000  0.0000
16644TPS    HA420947   6.915   7.037   1.807  0.0000  0.0000  0.0000
16644TPS    CA320948   6.849   6.931   1.630  0.0000  0.0000  0.0000
16644TPS    HA320949   6.832   6.838   1.684  0.0000  0.0000  0.0000
16645TPS    HA220950   5.447   6.413   1.594  0.0000  0.0000  0.0000
16645TPS    CA220951   5.474   6.505   1.645  0.0000  0.0000  0.0000
16645TPS    CA120952   5.499   6.624   1.575  0.0000  0.0000  0.0000
16645TPS     Si20953   5.499   6.624   1.389  0.0000  0.0000  0.0000
16645TPS    CA620954   5.540   6.738   1.647  0.0000  0.0000  0.0000
16645TPS    HH620955   5.555   6.834   1.598  0.0000  0.0000  0.0000
16645TPS    CA520956   5.563   6.731   1.786  0.0000  0.0000  0.0000
16645TPS    HA520957   5.595   6.818   1.841  0.0000  0.0000  0.0000
16645TPS    CA420958   5.540   6.610   1.854  0.0000  0.0000  0.0000
16645TPS    HA420959   5.559   6.604   1.961  0.0000  0.0000  0.0000
16645TPS    CA320960   5.493   6.498   1.784  0.0000  0.0000  0.0000
16645TPS    HA320961   5.476   6.405   1.838  0.0000  0.0000  0.0000
16646TPS    HA220962   7.990   2.641   1.308  0.0000  0.0000  0.0000
16646TPS    CA220963   8.017   2.733   1.359  0.0000  0.0000  0.0000
16646TPS    CA120964   8.042   2.852   1.289  0.0000  0.0000  0.0000
16646TPS     Si20965   8.042   2.852   1.103  0.0000  0.0000  0.0000
16646TPS    CA620966   8.083   2.966   1.361  0.0000  0.0000  0.0000
16646TPS    HH620967   8.098   3.062   1.312  0.0000  0.0000  0.0000
16646TPS    CA520968   8.106   2.959   1.500  0.0000  0.0000  0.0000
16646TPS    HA520969   8.138   3.046   1.555  0.0000  0.0000  0.0000
16646TPS    CA420970   8.083   2.838   1.568  0.0000  0.0000  0.0000
16646TPS    HA420971   8.102   2.832   1.675  0.0000  0.0000  0.0000
16646TPS    CA320972   8.036   2.726   1.498  0.0000  0.0000  0.0000
16646TPS    HA320973   8.019   2.633   1.552  0.0000  0.0000  0.0000
16647TPS    HA220974   3.891   6.121   1.469  0.0000  0.0000  0.0000
16647TPS    CA220975   3.918   6.213   1.520  0.0000  0.0000  0.0000
16647TPS    CA120976   3.943   6.332   1.450  0.0000  0.0000  0.0000
16647TPS     Si20977   3.943   6.332   1.264  0.0000  0.0000  0.0000
16647TPS    CA620978   3.984   6.446   1.522  0.0000  0.0000  0.0000
16647TPS    HH620979   3.999   6.542   1.473  0.0000  0.0000  0.0000
16647TPS    CA520980   4.007   6.439   1.661  0.0000  0.0000  0.0000
16647TPS    HA520981   4.039   6.526   1.716  0.0000  0.0000  0.0000
16647TPS    CA420982   3.984   6.318   1.729  0.0000  0.0000  0.0000
16647TPS    HA420983   4.003   6.312   1.836  0.0000  0.0000  0.0000
16647TPS    CA320984   3.937   6.206   1.659  0.0000  0.0000  0.0000
16647TPS    HA320985   3.920   6.113   1.713  0.0000  0.0000  0.0000
16648TPS    HA220986   6.836   2.249   8.166  0.0000  0.0000  0.0000
16648TPS    CA220987   6.830   2.154   8.115  0.0000  0.0000  0.0000
16648TPS    CA120988   6.813   2.033   8.185  0.0000  0.0000  0.0000
16648TPS     Si20989   6.813   2.033   8.371  0.0000  0.0000  0.0000
16648TPS    CA620990   6.813   1.912   8.113  0.0000  0.0000  0.0000
16648TPS    HH620991   6.794   1.817   8.162  0.0000  0.0000  0.0000
16648TPS    CA520992   6.836   1.911   7.974  0.0000  0.0000  0.0000
16648TPS    HA520993   6.837   1.818   7.919  0.0000  0.0000  0.0000
16648TPS    CA420994   6.856   2.032   7.906  0.0000  0.0000  0.0000
16648TPS    HA420995   6.876   2.031   7.799  0.0000  0.0000  0.0000
16648TPS    CA320996   6.850   2.153   7.976  0.0000  0.0000  0.0000
16648TPS    HA320997   6.866   2.246   7.922  0.0000  0.0000  0.0000
16649TPS    HA220998   2.815   7.028   8.093  0.0000  0.0000  0.0000
16649TPS    CA220999   2.809   6.933   8.042  0.0000  0.0000  0.0000
16649TPS    CA121000   2.792   6.812   8.112  0.0000  0.0000  0.0000
16649TPS     Si21001   2.792   6.812   8.298  0.0000  0.0000  0.0000
16649TPS    CA621002   2.792   6.691   8.040  0.0000  0.0000  0.0000
16649TPS    HH621003   2.773   6.596   8.089  0.0000  0.0000  0.0000
16649TPS    CA521004   2.815   6.690   7.901  0.0000  0.0000  0.0000
16649TPS    HA521005   2.816   6.597   7.846  0.0000  0.0000  0.0000
16649TPS    CA421006   2.835   6.811   7.833  0.0000  0.0000  0.0000
16649TPS    HA421007   2.855   6.810   7.726  0.0000  0.0000  0.0000
16649TPS    CA321008   2.829   6.932   7.903  0.0000  0.0000  0.0000
16649TPS    HA321009   2.845   7.025   7.849  0.0000  0.0000  0.0000
16650TPS    HA221010   9.177   0.749   8.092  0.0000  0.0000  0.0000
16650TPS    CA221011   9.204   0.657   8.041  0.0000  0.0000  0.0000
16650TPS    CA121012   9.229   0.538   8.111  0.0000  0.0000  0.0000
16650TPS     Si21013   9.229   0.538   8.297  0.0000  0.0000  0.0000
16650TPS    CA621014   9.270   0.424   8.039  0.0000  0.0000  0.0000
16650TPS    HH621015   9.285   0.328   8.088  0.0000  0.0000  0.0000
16650TPS    CA521016   9.293   0.431   7.900  0.0000  0.0000  0.0000
16650TPS    HA521017   9.325   0.344   7.845  0.0000  0.0000  0.0000
16650TPS    CA421018   9.270   0.552   7.832  0.0000  0.0000  0.0000
16650TPS    HA421019   9.289   0.558   7.725  0.0000  0.0000  0.0000
16650TPS    CA321020   9.223   0.664   7.902  0.0000  0.0000  0.0000
16650TPS    HA321021   9.206   0.757   7.848  0.0000  0.0000  0.0000
16651TPS    HA221022   1.322   7.494   8.150  0.0000  0.0000  0.0000
16651TPS    CA221023   1.349   7.402   8.099  0.0000  0.0000  0.0000
16651TPS    CA121024   1.374   7.283   8.169  0.0000  0.0000  0.0000
16651TPS     Si21025   1.374   7.283   8.355  0.0000  0.0000  0.0000
16651TPS    CA621026   1.415   7.169   8.097  0.0000  0.0000  0.0000
16651TPS    HH621027   1.430   7.073   8.146  0.0000  0.0000  0.0000
16651TPS    CA521028   1.438   7.176   7.958  0.0000  0.0000  0.0000
16651TPS    HA521029   1.470   7.089   7.903  0.0000  0.0000  0.0000
16651TPS    CA421030   1.415   7.297   7.890  0.0000  0.0000  0.0000
16651TPS    HA421031   1.434   7.303   7.783  0.0000  0.0000  0.0000
16651TPS    CA321032   1.368   7.409   7.960  0.0000  0.0000  0.0000
16651TPS    HA321033   1.351   7.502   7.906  0.0000  0.0000  0.0000
16652TPS    HA221034   5.286   0.734   1.540  0.0000  0.0000  0.0000
16652TPS    CA221035   5.313   0.826   1.591  0.0000  0.0000  0.0000
16652TPS    CA121036   5.338   0.945   1.521  0.0000  0.0000  0.0000
16652TPS     Si21037   5.338   0.945   1.335  0.0000  0.0000  0.0000
16652TPS    CA621038   5.379   1.059   1.593  0.0000  0.0000  0.0000
16652TPS    HH621039   5.394   1.155   1.544  0.0000  0.0000  0.0000
16652TPS    CA521040   5.402   1.052   1.732  0.0000  0.0000  0.0000
16652TPS    HA521041   5.434   1.139   1.787  0.0000  0.0000  0.0000
16652TPS    CA421042   5.379   0.931   1.800  0.0000  0.0000  0.0000
16652TPS    HA421043   5.398   0.925   1.907  0.0000  0.0000  0.0000
16652TPS    CA321044   5.332   0.819   1.730  0.0000  0.0000  0.0000
16652TPS    HA321045   5.315   0.726   1.784  0.0000  0.0000  0.0000
16653TPS    HA221046   0.480   9.253   8.142  0.0000  0.0000  0.0000
16653TPS    CA221047   0.507   9.161   8.091  0.0000  0.0000  0.0000
16653TPS    CA121048   0.532   9.042   8.161  0.0000  0.0000  0.0000
16653TPS     Si21049   0.532   9.042   8.347  0.0000  0.0000  0.0000
16653TPS    CA621050   0.573   8.928   8.089  0.0000  0.0000  0.0000
16653TPS    HH621051   0.588   8.832   8.138  0.0000  0.0000  0.0000
16653TPS    CA521052   0.596   8.935   7.950  0.0000  0.0000  0.0000
16653TPS    HA521053   0.628   8.848   7.895  0.0000  0.0000  0.0000
16653TPS    CA421054   0.573   9.056   7.882  0.0000  0.0000  0.0000
16653TPS    HA421055   0.592   9.062   7.775  0.0000  0.0000  0.0000
16653TPS    CA321056   0.526   9.168   7.952  0.0000  0.0000  0.0000
16653TPS    HA321057   0.509   9.261   7.898  0.0000  0.0000  0.0000
16654TPS    HA221058   5.075   5.462   1.521  0.0000  0.0000  0.0000
16654TPS    CA221059   5.102   5.554   1.572  0.0000  0.0000  0.0000
16654TPS    CA121060   5.127   5.673   1.502  0.0000  0.0000  0.0000
16654TPS     Si21061   5.127   5.673   1.316  0.0000  0.0000  0.0000
16654TPS    CA621062   5.168   5.787   1.574  0.0000  0.0000  0.0000
16654TPS    HH621063   5.183   5.883   1.525  0.0000  0.0000  0.0000
16654TPS    CA521064   5.191   5.780   1.713  0.0000  0.0000  0.0000
16654TPS    HA521065   5.223   5.867   1.768  0.0000  0.0000  0.0000
16654TPS    CA421066   5.168   5.659   1.781  0.0000  0.0000  0.0000
16654TPS    HA421067   5.187   5.653   1.888  0.0000  0.0000  0.0000
16654TPS    CA321068   5.121   5.547   1.711  0.0000  0.0000  0.0000
16654TPS    HA321069   5.104   5.454   1.765  0.0000  0.0000  0.0000
16655TPS    HA221070   1.598   5.559   7.976  0.0000  0.0000  0.0000
16655TPS    CA221071   1.625   5.467   7.925  0.0000  0.0000  0.0000
16655TPS    CA121072   1.650   5.348   7.995  0.0000  0.0000  0.0000
16655TPS     Si21073   1.650   5.348   8.181  0.0000  0.0000  0.0000
16655TPS    CA621074   1.691   5.234   7.923  0.0000  0.0000  0.0000
16655TPS    HH621075   1.706   5.138   7.972  0.0000  0.0000  0.0000
16655TPS    CA521076   1.714   5.241   7.784  0.0000  0.0000  0.0000
16655TPS    HA521077   1.746   5.154   7.729  0.0000  0.0000  0.0000
16655TPS    CA421078   1.691   5.362   7.716  0.0000  0.0000  0.0000
16655TPS    HA421079   1.710   5.368   7.609  0.0000  0.0000  0.0000
16655TPS    CA321080   1.644   5.474   7.786  0.0000  0.0000  0.0000
16655TPS    HA321081   1.627   5.567   7.732  0.0000  0.0000  0.0000
16656TPS    HA221082   8.867   2.987   8.129  0.0000  0.0000  0.0000
16656TPS    CA221083   8.894   2.895   8.078  0.0000  0.0000  0.0000
16656TPS    CA121084   8.919   2.776   8.148  0.0000  0.0000  0.0000
16656TPS     Si21085   8.919   2.776   8.334  0.0000  0.0000  0.0000
16656TPS    CA621086   8.960   2.662   8.076  0.0000  0.0000  0.0000
16656TPS    HH621087   8.975   2.566   8.125  0.0000  0.0000  0.0000
16656TPS    CA521088   8.983   2.669   7.937  0.0000  0.0000  0.0000
16656TPS    HA521089   9.015   2.582   7.882  0.0000  0.0000  0.0000
16656TPS    CA421090   8.960   2.790   7.869  0.0000  0.0000  0.0000
16656TPS    HA421091   8.979   2.796   7.762  0.0000  0.0000  0.0000
16656TPS    CA321092   8.913   2.902   7.939  0.0000  0.0000  0.0000
16656TPS    HA321093   8.896   2.995   7.885  0.0000  0.0000  0.0000
16657TPS    HA221094   5.424   6.984   1.573  0.0000  0.0000  0.0000
16657TPS    CA221095   5.451   7.076   1.624  0.0000  0.0000  0.0000
16657TPS    CA121096   5.476   7.195   1.554  0.0000  0.0000  0.0000
16657TPS     Si21097   5.476   7.195   1.368  0.0000  0.0000  0.0000
16657TPS    CA621098   5.517   7.309   1.626  0.0000  0.0000  0.0000
16657TPS    HH621099   5.532   7.405   1.577  0.0000  0.0000  0.0000
16657TPS    CA521100   5.540   7.302   1.765  0.0000  0.0000  0.0000
16657TPS    HA521101   5.572   7.389   1.820  0.0000  0.0000  0.0000
16657TPS    CA421102   5.517   7.181   1.833  0.0000  0.0000  0.0000
16657TPS    HA421103   5.536   7.175   1.940  0.0000  0.0000  0.0000
16657TPS    CA321104   5.470   7.069   1.763  0.0000  0.0000  0.0000
16657TPS    HA321105   5.453   6.976   1.817  0.0000  0.0000  0.0000
16658TPS    HA221106   4.015   4.869   8.220  0.0000  0.0000  0.0000
16658TPS    CA221107   4.094   4.816   8.169  0.0000  0.0000  0.0000
16658TPS    CA121108   4.190   4.741   8.239  0.0000  0.0000  0.0000
16658TPS     Si21109   4.190   4.741   8.425  0.0000  0.0000  0.0000
16658TPS    CA621110   4.295   4.680   8.167  0.0000  0.0000  0.0000
16658TPS    HH621111   4.368   4.617   8.216  0.0000  0.0000  0.0000
16658TPS    CA521112   4.307   4.700   8.028  0.0000  0.0000  0.0000
16658TPS    HA521113   4.388   4.654   7.973  0.0000  0.0000  0.0000
16658TPS    CA421114   4.213   4.778   7.960  0.0000  0.0000  0.0000
16658TPS    HA421115   4.223   4.795   7.853  0.0000  0.0000  0.0000
16658TPS    CA321116   4.104   4.834   8.030  0.0000  0.0000  0.0000
16658TPS    HA321117   4.032   4.894   7.976  0.0000  0.0000  0.0000
16659TPS    HA221118   5.675   4.068   8.091  0.0000  0.0000  0.0000
16659TPS    CA221119   5.609   4.000   8.040  0.0000  0.0000  0.0000
16659TPS    CA121120   5.518   3.918   8.110  0.0000  0.0000  0.0000
16659TPS     Si21121   5.518   3.918   8.296  0.0000  0.0000  0.0000
16659TPS    CA621122   5.440   3.825   8.038  0.0000  0.0000  0.0000
16659TPS    HH621123   5.365   3.764   8.087  0.0000  0.0000  0.0000
16659TPS    CA521124   5.457   3.810   7.899  0.0000  0.0000  0.0000
16659TPS    HA521125   5.398   3.738   7.844  0.0000  0.0000  0.0000
16659TPS    CA421126   5.550   3.889   7.831  0.0000  0.0000  0.0000
16659TPS    HA421127   5.565   3.876   7.724  0.0000  0.0000  0.0000
16659TPS    CA321128   5.624   3.986   7.901  0.0000  0.0000  0.0000
16659TPS    HA321129   5.696   4.048   7.847  0.0000  0.0000  0.0000
16660TPS    HA221130   2.261   1.971   8.218  0.0000  0.0000  0.0000
16660TPS    CA221131   2.288   1.879   8.167  0.0000  0.0000  0.0000
16660TPS    CA121132   2.313   1.760   8.237  0.0000  0.0000  0.0000
16660TPS     Si21133   2.313   1.760   8.423  0.0000  0.0000  0.0000
16660TPS    CA621134   2.354   1.646   8.165  0.0000  0.0000  0.0000
16660TPS    HH621135   2.369   1.550   8.214  0.0000  0.0000  0.0000
16660TPS    CA521136   2.377   1.653   8.026  0.0000  0.0000  0.0000
16660TPS    HA521137   2.409   1.566   7.971  0.0000  0.0000  0.0000
16660TPS    CA421138   2.354   1.774   7.958  0.0000  0.0000  0.0000
16660TPS    HA421139   2.373   1.780   7.851  0.0000  0.0000  0.0000
16660TPS    CA321140   2.307   1.886   8.028  0.0000  0.0000  0.0000
16660TPS    HA321141   2.290   1.979   7.974  0.0000  0.0000  0.0000
16661TPS    HA221142   1.555   2.997   8.014  0.0000  0.0000  0.0000
16661TPS    CA221143   1.582   2.905   7.963  0.0000  0.0000  0.0000
16661TPS    CA121144   1.607   2.786   8.033  0.0000  0.0000  0.0000
16661TPS     Si21145   1.607   2.786   8.219  0.0000  0.0000  0.0000
16661TPS    CA621146   1.648   2.672   7.961  0.0000  0.0000  0.0000
16661TPS    HH621147   1.663   2.576   8.010  0.0000  0.0000  0.0000
16661TPS    CA521148   1.671   2.679   7.822  0.0000  0.0000  0.0000
16661TPS    HA521149   1.703   2.592   7.767  0.0000  0.0000  0.0000
16661TPS    CA421150   1.648   2.800   7.754  0.0000  0.0000  0.0000
16661TPS    HA421151   1.667   2.806   7.647  0.0000  0.0000  0.0000
16661TPS    CA321152   1.601   2.912   7.824  0.0000  0.0000  0.0000
16661TPS    HA321153   1.584   3.005   7.770  0.0000  0.0000  0.0000
16662TPS    HA221154   0.525   7.784   1.366  0.0000  0.0000  0.0000
16662TPS    CA221155   0.432   7.761   1.417  0.0000  0.0000  0.0000
16662TPS    CA121156   0.316   7.723   1.347  0.0000  0.0000  0.0000
16662TPS     Si21157   0.316   7.723   1.161  0.0000  0.0000  0.0000
16662TPS    CA621158   0.197   7.701   1.419  0.0000  0.0000  0.0000
16662TPS    HH621159   0.106   7.667   1.370  0.0000  0.0000  0.0000
16662TPS    CA521160   0.192   7.725   1.558  0.0000  0.0000  0.0000
16662TPS    HA521161   0.100   7.709   1.613  0.0000  0.0000  0.0000
16662TPS    CA421162   0.307   7.765   1.626  0.0000  0.0000  0.0000
16662TPS    HA421163   0.303   7.785   1.733  0.0000  0.0000  0.0000
16662TPS    CA321164   0.428   7.781   1.556  0.0000  0.0000  0.0000
16662TPS    HA321165   0.517   7.812   1.610  0.0000  0.0000  0.0000
16663TPS    HA221166   2.641   8.693   8.123  0.0000  0.0000  0.0000
16663TPS    CA221167   2.635   8.598   8.072  0.0000  0.0000  0.0000
16663TPS    CA121168   2.618   8.477   8.142  0.0000  0.0000  0.0000
16663TPS     Si21169   2.618   8.477   8.328  0.0000  0.0000  0.0000
16663TPS    CA621170   2.618   8.356   8.070  0.0000  0.0000  0.0000
16663TPS    HH621171   2.599   8.261   8.119  0.0000  0.0000  0.0000
16663TPS    CA521172   2.641   8.355   7.931  0.0000  0.0000  0.0000
16663TPS    HA521173   2.642   8.262   7.876  0.0000  0.0000  0.0000
16663TPS    CA421174   2.661   8.476   7.863  0.0000  0.0000  0.0000
16663TPS    HA421175   2.681   8.475   7.756  0.0000  0.0000  0.0000
16663TPS    CA321176   2.655   8.597   7.933  0.0000  0.0000  0.0000
16663TPS    HA321177   2.671   8.690   7.879  0.0000  0.0000  0.0000
16664TPS    HA221178   2.207   3.944   8.099  0.0000  0.0000  0.0000
16664TPS    CA221179   2.234   3.852   8.048  0.0000  0.0000  0.0000
16664TPS    CA121180   2.259   3.733   8.118  0.0000  0.0000  0.0000
16664TPS     Si21181   2.259   3.733   8.304  0.0000  0.0000  0.0000
16664TPS    CA621182   2.300   3.619   8.046  0.0000  0.0000  0.0000
16664TPS    HH621183   2.315   3.523   8.095  0.0000  0.0000  0.0000
16664TPS    CA521184   2.323   3.626   7.907  0.0000  0.0000  0.0000
16664TPS    HA521185   2.355   3.539   7.852  0.0000  0.0000  0.0000
16664TPS    CA421186   2.300   3.747   7.839  0.0000  0.0000  0.0000
16664TPS    HA421187   2.319   3.753   7.732  0.0000  0.0000  0.0000
16664TPS    CA321188   2.253   3.859   7.909  0.0000  0.0000  0.0000
16664TPS    HA321189   2.236   3.952   7.855  0.0000  0.0000  0.0000
16665TPS    HA221190   4.950   1.293   1.508  0.0000  0.0000  0.0000
16665TPS    CA221191   4.977   1.385   1.559  0.0000  0.0000  0.0000
16665TPS    CA121192   5.002   1.504   1.489  0.0000  0.0000  0.0000
16665TPS     Si21193   5.002   1.504   1.303  0.0000  0.0000  0.0000
16665TPS    CA621194   5.043   1.618   1.561  0.0000  0.0000  0.0000
16665TPS    HH621195   5.058   1.714   1.512  0.0000  0.0000  0.0000
16665TPS    CA521196   5.066   1.611   1.700  0.0000  0.0000  0.0000
16665TPS    HA521197   5.098   1.698   1.755  0.0000  0.0000  0.0000
16665TPS    CA421198   5.043   1.490   1.768  0.0000  0.0000  0.0000
16665TPS    HA421199   5.062   1.484   1.875  0.0000  0.0000  0.0000
16665TPS    CA321200   4.996   1.378   1.698  0.0000  0.0000  0.0000
16665TPS    HA321201   4.979   1.285   1.752  0.0000  0.0000  0.0000
16666TPS    HA221202   3.864   4.391   1.639  0.0000  0.0000  0.0000
16666TPS    CA221203   3.891   4.483   1.690  0.0000  0.0000  0.0000
16666TPS    CA121204   3.916   4.602   1.620  0.0000  0.0000  0.0000
16666TPS     Si21205   3.916   4.602   1.434  0.0000  0.0000  0.0000
16666TPS    CA621206   3.957   4.716   1.692  0.0000  0.0000  0.0000
16666TPS    HH621207   3.972   4.812   1.643  0.0000  0.0000  0.0000
16666TPS    CA521208   3.980   4.709   1.831  0.0000  0.0000  0.0000
16666TPS    HA521209   4.012   4.796   1.886  0.0000  0.0000  0.0000
16666TPS    CA421210   3.957   4.588   1.899  0.0000  0.0000  0.0000
16666TPS    HA421211   3.976   4.582   2.006  0.0000  0.0000  0.0000
16666TPS    CA321212   3.910   4.476   1.829  0.0000  0.0000  0.0000
16666TPS    HA321213   3.893   4.383   1.883  0.0000  0.0000  0.0000
16667TPS    HA221214   4.756   8.941   8.112  0.0000  0.0000  0.0000
16667TPS    CA221215   4.783   8.849   8.061  0.0000  0.0000  0.0000
16667TPS    CA121216   4.808   8.730   8.131  0.0000  0.0000  0.0000
16667TPS     Si21217   4.808   8.730   8.317  0.0000  0.0000  0.0000
16667TPS    CA621218   4.849   8.616   8.059  0.0000  0.0000  0.0000
16667TPS    HH621219   4.864   8.520   8.108  0.0000  0.0000  0.0000
16667TPS    CA521220   4.872   8.623   7.920  0.0000  0.0000  0.0000
16667TPS    HA521221   4.904   8.536   7.865  0.0000  0.0000  0.0000
16667TPS    CA421222   4.849   8.744   7.852  0.0000  0.0000  0.0000
16667TPS    HA421223   4.868   8.750   7.745  0.0000  0.0000  0.0000
16667TPS    CA321224   4.802   8.856   7.922  0.0000  0.0000  0.0000
16667TPS    HA321225   4.785   8.949   7.868  0.0000  0.0000  0.0000
16668TPS    HA221226   8.806   8.000   8.248  0.0000  0.0000  0.0000
16668TPS    CA221227   8.833   7.908   8.197  0.0000  0.0000  0.0000
16668TPS    CA121228   8.858   7.789   8.267  0.0000  0.0000  0.0000
16668TPS     Si21229   8.858   7.789   8.453  0.0000  0.0000  0.0000
16668TPS    CA621230   8.899   7.675   8.195  0.0000  0.0000  0.0000
16668TPS    HH621231   8.914   7.579   8.244  0.0000  0.0000  0.0000
16668TPS    CA521232   8.922   7.682   8.056  0.0000  0.0000  0.0000
16668TPS    HA521233   8.954   7.595   8.001  0.0000  0.0000  0.0000
16668TPS    CA421234   8.899   7.803   7.988  0.0000  0.0000  0.0000
16668TPS    HA421235   8.918   7.809   7.881  0.0000  0.0000  0.0000
16668TPS    CA321236   8.852   7.915   8.058  0.0000  0.0000  0.0000
16668TPS    HA321237   8.835   8.008   8.004  0.0000  0.0000  0.0000
16669TPS    HA221238   8.977   1.645   1.480  0.0000  0.0000  0.0000
16669TPS    CA221239   9.004   1.737   1.531  0.0000  0.0000  0.0000
16669TPS    CA121240   9.029   1.856   1.461  0.0000  0.0000  0.0000
16669TPS     Si21241   9.029   1.856   1.275  0.0000  0.0000  0.0000
16669TPS    CA621242   9.070   1.970   1.533  0.0000  0.0000  0.0000
16669TPS    HH621243   9.085   2.066   1.484  0.0000  0.0000  0.0000
16669TPS    CA521244   9.093   1.963   1.672  0.0000  0.0000  0.0000
16669TPS    HA521245   9.125   2.050   1.727  0.0000  0.0000  0.0000
16669TPS    CA421246   9.070   1.842   1.740  0.0000  0.0000  0.0000
16669TPS    HA421247   9.089   1.836   1.847  0.0000  0.0000  0.0000
16669TPS    CA321248   9.023   1.730   1.670  0.0000  0.0000  0.0000
16669TPS    HA321249   9.006   1.637   1.724  0.0000  0.0000  0.0000
16670TPS    HA221250   0.334   8.112   8.127  0.0000  0.0000  0.0000
16670TPS    CA221251   0.361   8.020   8.076  0.0000  0.0000  0.0000
16670TPS    CA121252   0.386   7.901   8.146  0.0000  0.0000  0.0000
16670TPS     Si21253   0.386   7.901   8.332  0.0000  0.0000  0.0000
16670TPS    CA621254   0.427   7.787   8.074  0.0000  0.0000  0.0000
16670TPS    HH621255   0.442   7.691   8.123  0.0000  0.0000  0.0000
16670TPS    CA521256   0.450   7.794   7.935  0.0000  0.0000  0.0000
16670TPS    HA521257   0.482   7.707   7.880  0.0000  0.0000  0.0000
16670TPS    CA421258   0.427   7.915   7.867  0.0000  0.0000  0.0000
16670TPS    HA421259   0.446   7.921   7.760  0.0000  0.0000  0.0000
16670TPS    CA321260   0.380   8.027   7.937  0.0000  0.0000  0.0000
16670TPS    HA321261   0.363   8.120   7.883  0.0000  0.0000  0.0000
16671TPS    HA221262   3.026   2.781   1.365  0.0000  0.0000  0.0000
16671TPS    CA221263   3.053   2.873   1.416  0.0000  0.0000  0.0000
16671TPS    CA121264   3.078   2.992   1.346  0.0000  0.0000  0.0000
16671TPS     Si21265   3.078   2.992   1.160  0.0000  0.0000  0.0000
16671TPS    CA621266   3.119   3.106   1.418  0.0000  0.0000  0.0000
16671TPS    HH621267   3.134   3.202   1.369  0.0000  0.0000  0.0000
16671TPS    CA521268   3.142   3.099   1.557  0.0000  0.0000  0.0000
16671TPS    HA521269   3.174   3.186   1.612  0.0000  0.0000  0.0000
16671TPS    CA421270   3.119   2.978   1.625  0.0000  0.0000  0.0000
16671TPS    HA421271   3.138   2.972   1.732  0.0000  0.0000  0.0000
16671TPS    CA321272   3.072   2.866   1.555  0.0000  0.0000  0.0000
16671TPS    HA321273   3.055   2.773   1.609  0.0000  0.0000  0.0000
16672TPS    HA221274   3.777   4.038   8.044  0.0000  0.0000  0.0000
16672TPS    CA221275   3.804   3.946   7.993  0.0000  0.0000  0.0000
16672TPS    CA121276   3.829   3.827   8.063  0.0000  0.0000  0.0000
16672TPS     Si21277   3.829   3.827   8.249  0.0000  0.0000  0.0000
16672TPS    CA621278   3.870   3.713   7.991  0.0000  0.0000  0.0000
16672TPS    HH621279   3.885   3.617   8.040  0.0000  0.0000  0.0000
16672TPS    CA521280   3.893   3.720   7.852  0.0000  0.0000  0.0000
16672TPS    HA521281   3.925   3.633   7.797  0.0000  0.0000  0.0000
16672TPS    CA421282   3.870   3.841   7.784  0.0000  0.0000  0.0000
16672TPS    HA421283   3.889   3.847   7.677  0.0000  0.0000  0.0000
16672TPS    CA321284   3.823   3.953   7.854  0.0000  0.0000  0.0000
16672TPS    HA321285   3.806   4.046   7.800  0.0000  0.0000  0.0000
16673TPS    HA221286   8.612   5.428   8.001  0.0000  0.0000  0.0000
16673TPS    CA221287   8.639   5.336   7.950  0.0000  0.0000  0.0000
16673TPS    CA121288   8.664   5.217   8.020  0.0000  0.0000  0.0000
16673TPS     Si21289   8.664   5.217   8.206  0.0000  0.0000  0.0000
16673TPS    CA621290   8.705   5.103   7.948  0.0000  0.0000  0.0000
16673TPS    HH621291   8.720   5.007   7.997  0.0000  0.0000  0.0000
16673TPS    CA521292   8.728   5.110   7.809  0.0000  0.0000  0.0000
16673TPS    HA521293   8.760   5.023   7.754  0.0000  0.0000  0.0000
16673TPS    CA421294   8.705   5.231   7.741  0.0000  0.0000  0.0000
16673TPS    HA421295   8.724   5.237   7.634  0.0000  0.0000  0.0000
16673TPS    CA321296   8.658   5.343   7.811  0.0000  0.0000  0.0000
16673TPS    HA321297   8.641   5.436   7.757  0.0000  0.0000  0.0000
16674TPS    HA221298   2.757   6.239   1.460  0.0000  0.0000  0.0000
16674TPS    CA221299   2.784   6.331   1.511  0.0000  0.0000  0.0000
16674TPS    CA121300   2.809   6.450   1.441  0.0000  0.0000  0.0000
16674TPS     Si21301   2.809   6.450   1.255  0.0000  0.0000  0.0000
16674TPS    CA621302   2.850   6.564   1.513  0.0000  0.0000  0.0000
16674TPS    HH621303   2.865   6.660   1.464  0.0000  0.0000  0.0000
16674TPS    CA521304   2.873   6.557   1.652  0.0000  0.0000  0.0000
16674TPS    HA521305   2.905   6.644   1.707  0.0000  0.0000  0.0000
16674TPS    CA421306   2.850   6.436   1.720  0.0000  0.0000  0.0000
16674TPS    HA421307   2.869   6.430   1.827  0.0000  0.0000  0.0000
16674TPS    CA321308   2.803   6.324   1.650  0.0000  0.0000  0.0000
16674TPS    HA321309   2.786   6.231   1.704  0.0000  0.0000  0.0000
16675TPS    HA221310   7.237   3.373   1.578  0.0000  0.0000  0.0000
16675TPS    CA221311   7.264   3.465   1.629  0.0000  0.0000  0.0000
16675TPS    CA121312   7.289   3.584   1.559  0.0000  0.0000  0.0000
16675TPS     Si21313   7.289   3.584   1.373  0.0000  0.0000  0.0000
16675TPS    CA621314   7.330   3.698   1.631  0.0000  0.0000  0.0000
16675TPS    HH621315   7.345   3.794   1.582  0.0000  0.0000  0.0000
16675TPS    CA521316   7.353   3.691   1.770  0.0000  0.0000  0.0000
16675TPS    HA521317   7.385   3.778   1.825  0.0000  0.0000  0.0000
16675TPS    CA421318   7.330   3.570   1.838  0.0000  0.0000  0.0000
16675TPS    HA421319   7.349   3.564   1.945  0.0000  0.0000  0.0000
16675TPS    CA321320   7.283   3.458   1.768  0.0000  0.0000  0.0000
16675TPS    HA321321   7.266   3.365   1.822  0.0000  0.0000  0.0000
16676TPS    HA221322   7.583   3.554   1.619  0.0000  0.0000  0.0000
16676TPS    CA221323   7.610   3.646   1.670  0.0000  0.0000  0.0000
16676TPS    CA121324   7.635   3.765   1.600  0.0000  0.0000  0.0000
16676TPS     Si21325   7.635   3.765   1.414  0.0000  0.0000  0.0000
16676TPS    CA621326   7.676   3.879   1.672  0.0000  0.0000  0.0000
16676TPS    HH621327   7.691   3.975   1.623  0.0000  0.0000  0.0000
16676TPS    CA521328   7.699   3.872   1.811  0.0000  0.0000  0.0000
16676TPS    HA521329   7.731   3.959   1.866  0.0000  0.0000  0.0000
16676TPS    CA421330   7.676   3.751   1.879  0.0000  0.0000  0.0000
16676TPS    HA421331   7.695   3.745   1.986  0.0000  0.0000  0.0000
16676TPS    CA321332   7.629   3.639   1.809  0.0000  0.0000  0.0000
16676TPS    HA321333   7.612   3.546   1.863  0.0000  0.0000  0.0000
16677TPS    HA221334   6.902   5.268   1.367  0.0000  0.0000  0.0000
16677TPS    CA221335   6.929   5.360   1.418  0.0000  0.0000  0.0000
16677TPS    CA121336   6.954   5.479   1.348  0.0000  0.0000  0.0000
16677TPS     Si21337   6.954   5.479   1.162  0.0000  0.0000  0.0000
16677TPS    CA621338   6.995   5.593   1.420  0.0000  0.0000  0.0000
16677TPS    HH621339   7.010   5.689   1.371  0.0000  0.0000  0.0000
16677TPS    CA521340   7.018   5.586   1.559  0.0000  0.0000  0.0000
16677TPS    HA521341   7.050   5.673   1.614  0.0000  0.0000  0.0000
16677TPS    CA421342   6.995   5.465   1.627  0.0000  0.0000  0.0000
16677TPS    HA421343   7.014   5.459   1.734  0.0000  0.0000  0.0000
16677TPS    CA321344   6.948   5.353   1.557  0.0000  0.0000  0.0000
16677TPS    HA321345   6.931   5.260   1.611  0.0000  0.0000  0.0000
16678TPS    HA221346   4.626   5.070   1.294  0.0000  0.0000  0.0000
16678TPS    CA221347   4.653   5.162   1.345  0.0000  0.0000  0.0000
16678TPS    CA121348   4.678   5.281   1.275  0.0000  0.0000  0.0000
16678TPS     Si21349   4.678   5.281   1.089  0.0000  0.0000  0.0000
16678TPS    CA621350   4.719   5.395   1.347  0.0000  0.0000  0.0000
16678TPS    HH621351   4.734   5.491   1.298  0.0000  0.0000  0.0000
16678TPS    CA521352   4.742   5.388   1.486  0.0000  0.0000  0.0000
16678TPS    HA521353   4.774   5.475   1.541  0.0000  0.0000  0.0000
16678TPS    CA421354   4.719   5.267   1.554  0.0000  0.0000  0.0000
16678TPS    HA421355   4.738   5.261   1.661  0.0000  0.0000  0.0000
16678TPS    CA321356   4.672   5.155   1.484  0.0000  0.0000  0.0000
16678TPS    HA321357   4.655   5.062   1.538  0.0000  0.0000  0.0000
16679TPS    HA221358   0.554   0.851   1.428  0.0000  0.0000  0.0000
16679TPS    CA221359   0.593   0.764   1.479  0.0000  0.0000  0.0000
16679TPS    CA121360   0.650   0.656   1.409  0.0000  0.0000  0.0000
16679TPS     Si21361   0.650   0.656   1.223  0.0000  0.0000  0.0000
16679TPS    CA621362   0.692   0.542   1.481  0.0000  0.0000  0.0000
16679TPS    HH621363   0.742   0.459   1.432  0.0000  0.0000  0.0000
16679TPS    CA521364   0.670   0.534   1.620  0.0000  0.0000  0.0000
16679TPS    HA521365   0.701   0.445   1.675  0.0000  0.0000  0.0000
16679TPS    CA421366   0.610   0.640   1.688  0.0000  0.0000  0.0000
16679TPS    HA421367   0.591   0.633   1.795  0.0000  0.0000  0.0000
16679TPS    CA321368   0.574   0.756   1.618  0.0000  0.0000  0.0000
16679TPS    HA321369   0.527   0.839   1.672  0.0000  0.0000  0.0000
16680TPS    HA221370   3.741   6.321   1.548  0.0000  0.0000  0.0000
16680TPS    CA221371   3.735   6.416   1.599  0.0000  0.0000  0.0000
16680TPS    CA121372   3.718   6.537   1.529  0.0000  0.0000  0.0000
16680TPS     Si21373   3.718   6.537   1.343  0.0000  0.0000  0.0000
16680TPS    CA621374   3.718   6.658   1.601  0.0000  0.0000  0.0000
16680TPS    HH621375   3.699   6.753   1.552  0.0000  0.0000  0.0000
16680TPS    CA521376   3.741   6.659   1.740  0.0000  0.0000  0.0000
16680TPS    HA521377   3.742   6.752   1.795  0.0000  0.0000  0.0000
16680TPS    CA421378   3.761   6.538   1.808  0.0000  0.0000  0.0000
16680TPS    HA421379   3.781   6.539   1.915  0.0000  0.0000  0.0000
16680TPS    CA321380   3.755   6.417   1.738  0.0000  0.0000  0.0000
16680TPS    HA321381   3.771   6.324   1.792  0.0000  0.0000  0.0000
16681TPS    HA221382   1.027   0.688   1.535  0.0000  0.0000  0.0000
16681TPS    CA221383   1.054   0.780   1.586  0.0000  0.0000  0.0000
16681TPS    CA121384   1.079   0.899   1.516  0.0000  0.0000  0.0000
16681TPS     Si21385   1.079   0.899   1.330  0.0000  0.0000  0.0000
16681TPS    CA621386   1.120   1.013   1.588  0.0000  0.0000  0.0000
16681TPS    HH621387   1.135   1.109   1.539  0.0000  0.0000  0.0000
16681TPS    CA521388   1.143   1.006   1.727  0.0000  0.0000  0.0000
16681TPS    HA521389   1.175   1.093   1.782  0.0000  0.0000  0.0000
16681TPS    CA421390   1.120   0.885   1.795  0.0000  0.0000  0.0000
16681TPS    HA421391   1.139   0.879   1.902  0.0000  0.0000  0.0000
16681TPS    CA321392   1.073   0.773   1.725  0.0000  0.0000  0.0000
16681TPS    HA321393   1.056   0.680   1.779  0.0000  0.0000  0.0000
16682TPS    HA221394   8.170   3.082   1.442  0.0000  0.0000  0.0000
16682TPS    CA221395   8.197   3.174   1.493  0.0000  0.0000  0.0000
16682TPS    CA121396   8.222   3.293   1.423  0.0000  0.0000  0.0000
16682TPS     Si21397   8.222   3.293   1.237  0.0000  0.0000  0.0000
16682TPS    CA621398   8.263   3.407   1.495  0.0000  0.0000  0.0000
16682TPS    HH621399   8.278   3.503   1.446  0.0000  0.0000  0.0000
16682TPS    CA521400   8.286   3.400   1.634  0.0000  0.0000  0.0000
16682TPS    HA521401   8.318   3.487   1.689  0.0000  0.0000  0.0000
16682TPS    CA421402   8.263   3.279   1.702  0.0000  0.0000  0.0000
16682TPS    HA421403   8.282   3.273   1.809  0.0000  0.0000  0.0000
16682TPS    CA321404   8.216   3.167   1.632  0.0000  0.0000  0.0000
16682TPS    HA321405   8.199   3.074   1.686  0.0000  0.0000  0.0000
16683TPS    HA221406   8.058   7.250   1.276  0.0000  0.0000  0.0000
16683TPS    CA221407   8.144   7.208   1.327  0.0000  0.0000  0.0000
16683TPS    CA121408   8.257   7.162   1.257  0.0000  0.0000  0.0000
16683TPS     Si21409   8.257   7.162   1.071  0.0000  0.0000  0.0000
16683TPS    CA621410   8.362   7.102   1.329  0.0000  0.0000  0.0000
16683TPS    HH621411   8.454   7.070   1.280  0.0000  0.0000  0.0000
16683TPS    CA521412   8.351   7.081   1.468  0.0000  0.0000  0.0000
16683TPS    HA521413   8.432   7.034   1.523  0.0000  0.0000  0.0000
16683TPS    CA421414   8.236   7.124   1.536  0.0000  0.0000  0.0000
16683TPS    HA421415   8.227   7.106   1.643  0.0000  0.0000  0.0000
16683TPS    CA321416   8.134   7.190   1.466  0.0000  0.0000  0.0000
16683TPS    HA321417   8.046   7.223   1.520  0.0000  0.0000  0.0000
16684TPS    HA221418   3.126   8.050   8.044  0.0000  0.0000  0.0000
16684TPS    CA221419   3.087   7.963   7.993  0.0000  0.0000  0.0000
16684TPS    CA121420   3.030   7.855   8.063  0.0000  0.0000  0.0000
16684TPS     Si21421   3.030   7.855   8.249  0.0000  0.0000  0.0000
16684TPS    CA621422   2.988   7.741   7.991  0.0000  0.0000  0.0000
16684TPS    HH621423   2.938   7.658   8.040  0.0000  0.0000  0.0000
16684TPS    CA521424   3.010   7.733   7.852  0.0000  0.0000  0.0000
16684TPS    HA521425   2.979   7.644   7.797  0.0000  0.0000  0.0000
16684TPS    CA421426   3.070   7.839   7.784  0.0000  0.0000  0.0000
16684TPS    HA421427   3.089   7.832   7.677  0.0000  0.0000  0.0000
16684TPS    CA321428   3.106   7.955   7.854  0.0000  0.0000  0.0000
16684TPS    HA321429   3.153   8.038   7.800  0.0000  0.0000  0.0000
16685TPS    HA221430   4.707   4.585   8.216  0.0000  0.0000  0.0000
16685TPS    CA221431   4.713   4.680   8.165  0.0000  0.0000  0.0000
16685TPS    CA121432   4.730   4.801   8.235  0.0000  0.0000  0.0000
16685TPS     Si21433   4.730   4.801   8.421  0.0000  0.0000  0.0000
16685TPS    CA621434   4.730   4.922   8.163  0.0000  0.0000  0.0000
16685TPS    HH621435   4.749   5.017   8.212  0.0000  0.0000  0.0000
16685TPS    CA521436   4.707   4.923   8.024  0.0000  0.0000  0.0000
16685TPS    HA521437   4.706   5.016   7.969  0.0000  0.0000  0.0000
16685TPS    CA421438   4.687   4.802   7.956  0.0000  0.0000  0.0000
16685TPS    HA421439   4.667   4.803   7.849  0.0000  0.0000  0.0000
16685TPS    CA321440   4.693   4.681   8.026  0.0000  0.0000  0.0000
16685TPS    HA321441   4.677   4.588   7.972  0.0000  0.0000  0.0000
16686TPS    HA221442   2.321   6.700   8.067  0.0000  0.0000  0.0000
16686TPS    CA221443   2.242   6.753   8.016  0.0000  0.0000  0.0000
16686TPS    CA121444   2.146   6.828   8.086  0.0000  0.0000  0.0000
16686TPS     Si21445   2.146   6.828   8.272  0.0000  0.0000  0.0000
16686TPS    CA621446   2.041   6.889   8.014  0.0000  0.0000  0.0000
16686TPS    HH621447   1.968   6.952   8.063  0.0000  0.0000  0.0000
16686TPS    CA521448   2.029   6.869   7.875  0.0000  0.0000  0.0000
16686TPS    HA521449   1.948   6.915   7.820  0.0000  0.0000  0.0000
16686TPS    CA421450   2.123   6.791   7.807  0.0000  0.0000  0.0000
16686TPS    HA421451   2.113   6.774   7.700  0.0000  0.0000  0.0000
16686TPS    CA321452   2.232   6.735   7.877  0.0000  0.0000  0.0000
16686TPS    HA321453   2.304   6.675   7.823  0.0000  0.0000  0.0000
16687TPS    HA221454   1.826   8.345   8.169  0.0000  0.0000  0.0000
16687TPS    CA221455   1.853   8.253   8.118  0.0000  0.0000  0.0000
16687TPS    CA121456   1.878   8.134   8.188  0.0000  0.0000  0.0000
16687TPS     Si21457   1.878   8.134   8.374  0.0000  0.0000  0.0000
16687TPS    CA621458   1.919   8.020   8.116  0.0000  0.0000  0.0000
16687TPS    HH621459   1.934   7.924   8.165  0.0000  0.0000  0.0000
16687TPS    CA521460   1.942   8.027   7.977  0.0000  0.0000  0.0000
16687TPS    HA521461   1.974   7.940   7.922  0.0000  0.0000  0.0000
16687TPS    CA421462   1.919   8.148   7.909  0.0000  0.0000  0.0000
16687TPS    HA421463   1.938   8.154   7.802  0.0000  0.0000  0.0000
16687TPS    CA321464   1.872   8.260   7.979  0.0000  0.0000  0.0000
16687TPS    HA321465   1.855   8.353   7.925  0.0000  0.0000  0.0000
16688TPS    HA221466   7.634   5.061   1.541  0.0000  0.0000  0.0000
16688TPS    CA221467   7.661   5.153   1.592  0.0000  0.0000  0.0000
16688TPS    CA121468   7.686   5.272   1.522  0.0000  0.0000  0.0000
16688TPS     Si21469   7.686   5.272   1.336  0.0000  0.0000  0.0000
16688TPS    CA621470   7.727   5.386   1.594  0.0000  0.0000  0.0000
16688TPS    HH621471   7.742   5.482   1.545  0.0000  0.0000  0.0000
16688TPS    CA521472   7.750   5.379   1.733  0.0000  0.0000  0.0000
16688TPS    HA521473   7.782   5.466   1.788  0.0000  0.0000  0.0000
16688TPS    CA421474   7.727   5.258   1.801  0.0000  0.0000  0.0000
16688TPS    HA421475   7.746   5.252   1.908  0.0000  0.0000  0.0000
16688TPS    CA321476   7.680   5.146   1.731  0.0000  0.0000  0.0000
16688TPS    HA321477   7.663   5.053   1.785  0.0000  0.0000  0.0000
16689TPS    HA221478   6.216   8.271   8.274  0.0000  0.0000  0.0000
16689TPS    CA221479   6.243   8.179   8.223  0.0000  0.0000  0.0000
16689TPS    CA121480   6.268   8.060   8.293  0.0000  0.0000  0.0000
16689TPS     Si21481   6.268   8.060   8.479  0.0000  0.0000  0.0000
16689TPS    CA621482   6.309   7.946   8.221  0.0000  0.0000  0.0000
16689TPS    HH621483   6.324   7.850   8.270  0.0000  0.0000  0.0000
16689TPS    CA521484   6.332   7.953   8.082  0.0000  0.0000  0.0000
16689TPS    HA521485   6.364   7.866   8.027  0.0000  0.0000  0.0000
16689TPS    CA421486   6.309   8.074   8.014  0.0000  0.0000  0.0000
16689TPS    HA421487   6.328   8.080   7.907  0.0000  0.0000  0.0000
16689TPS    CA321488   6.262   8.186   8.084  0.0000  0.0000  0.0000
16689TPS    HA321489   6.245   8.279   8.030  0.0000  0.0000  0.0000
16690TPS    HA221490   7.963   8.476   8.011  0.0000  0.0000  0.0000
16690TPS    CA221491   7.990   8.384   7.960  0.0000  0.0000  0.0000
16690TPS    CA121492   8.015   8.265   8.030  0.0000  0.0000  0.0000
16690TPS     Si21493   8.015   8.265   8.216  0.0000  0.0000  0.0000
16690TPS    CA621494   8.056   8.151   7.958  0.0000  0.0000  0.0000
16690TPS    HH621495   8.071   8.055   8.007  0.0000  0.0000  0.0000
16690TPS    CA521496   8.079   8.158   7.819  0.0000  0.0000  0.0000
16690TPS    HA521497   8.111   8.071   7.764  0.0000  0.0000  0.0000
16690TPS    CA421498   8.056   8.279   7.751  0.0000  0.0000  0.0000
16690TPS    HA421499   8.075   8.285   7.644  0.0000  0.0000  0.0000
16690TPS    CA321500   8.009   8.391   7.821  0.0000  0.0000  0.0000
16690TPS    HA321501   7.992   8.484   7.767  0.0000  0.0000  0.0000
16691TPS    HA221502   8.013   8.563   1.485  0.0000  0.0000  0.0000
16691TPS    CA221503   8.106   8.586   1.536  0.0000  0.0000  0.0000
16691TPS    CA121504   8.222   8.624   1.466  0.0000  0.0000  0.0000
16691TPS     Si21505   8.222   8.624   1.280  0.0000  0.0000  0.0000
16691TPS    CA621506   8.341   8.646   1.538  0.0000  0.0000  0.0000
16691TPS    HH621507   8.432   8.680   1.489  0.0000  0.0000  0.0000
16691TPS    CA521508   8.346   8.622   1.677  0.0000  0.0000  0.0000
16691TPS    HA521509   8.438   8.638   1.732  0.0000  0.0000  0.0000
16691TPS    CA421510   8.231   8.582   1.745  0.0000  0.0000  0.0000
16691TPS    HA421511   8.235   8.562   1.852  0.0000  0.0000  0.0000
16691TPS    CA321512   8.110   8.566   1.675  0.0000  0.0000  0.0000
16691TPS    HA321513   8.021   8.535   1.729  0.0000  0.0000  0.0000
16692TPS    HA221514   6.797   0.901   8.113  0.0000  0.0000  0.0000
16692TPS    CA221515   6.824   0.809   8.062  0.0000  0.0000  0.0000
16692TPS    CA121516   6.849   0.690   8.132  0.0000  0.0000  0.0000
16692TPS     Si21517   6.849   0.690   8.318  0.0000  0.0000  0.0000
16692TPS    CA621518   6.890   0.576   8.060  0.0000  0.0000  0.0000
16692TPS    HH621519   6.905   0.480   8.109  0.0000  0.0000  0.0000
16692TPS    CA521520   6.913   0.583   7.921  0.0000  0.0000  0.0000
16692TPS    HA521521   6.945   0.496   7.866  0.0000  0.0000  0.0000
16692TPS    CA421522   6.890   0.704   7.853  0.0000  0.0000  0.0000
16692TPS    HA421523   6.909   0.710   7.746  0.0000  0.0000  0.0000
16692TPS    CA321524   6.843   0.816   7.923  0.0000  0.0000  0.0000
16692TPS    HA321525   6.826   0.909   7.869  0.0000  0.0000  0.0000
16693TPS    HA221526   6.473   9.787   8.073  0.0000  0.0000  0.0000
16693TPS    CA221527   6.500   9.695   8.022  0.0000  0.0000  0.0000
16693TPS    CA121528   6.525   9.576   8.092  0.0000  0.0000  0.0000
16693TPS     Si21529   6.525   9.576   8.278  0.0000  0.0000  0.0000
16693TPS    CA621530   6.566   9.462   8.020  0.0000  0.0000  0.0000
16693TPS    HH621531   6.581   9.366   8.069  0.0000  0.0000  0.0000
16693TPS    CA521532   6.589   9.469   7.881  0.0000  0.0000  0.0000
16693TPS    HA521533   6.621   9.382   7.826  0.0000  0.0000  0.0000
16693TPS    CA421534   6.566   9.590   7.813  0.0000  0.0000  0.0000
16693TPS    HA421535   6.585   9.596   7.706  0.0000  0.0000  0.0000
16693TPS    CA321536   6.519   9.702   7.883  0.0000  0.0000  0.0000
16693TPS    HA321537   6.502   9.795   7.829  0.0000  0.0000  0.0000
16694TPS    HA221538   2.204   6.246   1.449  0.0000  0.0000  0.0000
16694TPS    CA221539   2.231   6.338   1.500  0.0000  0.0000  0.0000
16694TPS    CA121540   2.256   6.457   1.430  0.0000  0.0000  0.0000
16694TPS     Si21541   2.256   6.457   1.244  0.0000  0.0000  0.0000
16694TPS    CA621542   2.297   6.571   1.502  0.0000  0.0000  0.0000
16694TPS    HH621543   2.312   6.667   1.453  0.0000  0.0000  0.0000
16694TPS    CA521544   2.320   6.564   1.641  0.0000  0.0000  0.0000
16694TPS    HA521545   2.352   6.651   1.696  0.0000  0.0000  0.0000
16694TPS    CA421546   2.297   6.443   1.709  0.0000  0.0000  0.0000
16694TPS    HA421547   2.316   6.437   1.816  0.0000  0.0000  0.0000
16694TPS    CA321548   2.250   6.331   1.639  0.0000  0.0000  0.0000
16694TPS    HA321549   2.233   6.238   1.693  0.0000  0.0000  0.0000
16695TPS    HA221550   6.092   2.096   1.531  0.0000  0.0000  0.0000
16695TPS    CA221551   6.185   2.119   1.582  0.0000  0.0000  0.0000
16695TPS    CA121552   6.301   2.157   1.512  0.0000  0.0000  0.0000
16695TPS     Si21553   6.301   2.157   1.326  0.0000  0.0000  0.0000
16695TPS    CA621554   6.420   2.179   1.584  0.0000  0.0000  0.0000
16695TPS    HH621555   6.511   2.213   1.535  0.0000  0.0000  0.0000
16695TPS    CA521556   6.425   2.155   1.723  0.0000  0.0000  0.0000
16695TPS    HA521557   6.517   2.171   1.778  0.0000  0.0000  0.0000
16695TPS    CA421558   6.310   2.115   1.791  0.0000  0.0000  0.0000
16695TPS    HA421559   6.314   2.095   1.898  0.0000  0.0000  0.0000
16695TPS    CA321560   6.189   2.099   1.721  0.0000  0.0000  0.0000
16695TPS    HA321561   6.100   2.068   1.775  0.0000  0.0000  0.0000
16696TPS    HA221562   3.812   3.962   1.511  0.0000  0.0000  0.0000
16696TPS    CA221563   3.839   4.054   1.562  0.0000  0.0000  0.0000
16696TPS    CA121564   3.864   4.173   1.492  0.0000  0.0000  0.0000
16696TPS     Si21565   3.864   4.173   1.306  0.0000  0.0000  0.0000
16696TPS    CA621566   3.905   4.287   1.564  0.0000  0.0000  0.0000
16696TPS    HH621567   3.920   4.383   1.515  0.0000  0.0000  0.0000
16696TPS    CA521568   3.928   4.280   1.703  0.0000  0.0000  0.0000
16696TPS    HA521569   3.960   4.367   1.758  0.0000  0.0000  0.0000
16696TPS    CA421570   3.905   4.159   1.771  0.0000  0.0000  0.0000
16696TPS    HA421571   3.924   4.153   1.878  0.0000  0.0000  0.0000
16696TPS    CA321572   3.858   4.047   1.701  0.0000  0.0000  0.0000
16696TPS    HA321573   3.841   3.954   1.755  0.0000  0.0000  0.0000
16697TPS    HA221574   0.332   8.644   1.554  0.0000  0.0000  0.0000
16697TPS    CA221575   0.359   8.736   1.605  0.0000  0.0000  0.0000
16697TPS    CA121576   0.384   8.855   1.535  0.0000  0.0000  0.0000
16697TPS     Si21577   0.384   8.855   1.349  0.0000  0.0000  0.0000
16697TPS    CA621578   0.425   8.969   1.607  0.0000  0.0000  0.0000
16697TPS    HH621579   0.440   9.065   1.558  0.0000  0.0000  0.0000
16697TPS    CA521580   0.448   8.962   1.746  0.0000  0.0000  0.0000
16697TPS    HA521581   0.480   9.049   1.801  0.0000  0.0000  0.0000
16697TPS    CA421582   0.425   8.841   1.814  0.0000  0.0000  0.0000
16697TPS    HA421583   0.444   8.835   1.921  0.0000  0.0000  0.0000
16697TPS    CA321584   0.378   8.729   1.744  0.0000  0.0000  0.0000
16697TPS    HA321585   0.361   8.636   1.798  0.0000  0.0000  0.0000
16698TPS    HA221586   0.216   7.141   1.437  0.0000  0.0000  0.0000
16698TPS    CA221587   0.137   7.088   1.488  0.0000  0.0000  0.0000
16698TPS    CA121588   0.041   7.013   1.418  0.0000  0.0000  0.0000
16698TPS     Si21589   0.041   7.013   1.232  0.0000  0.0000  0.0000
16698TPS    CA621590  -0.064   6.952   1.490  0.0000  0.0000  0.0000
16698TPS    HH621591  -0.137   6.889   1.441  0.0000  0.0000  0.0000
16698TPS    CA521592  -0.076   6.972   1.629  0.0000  0.0000  0.0000
16698TPS    HA521593  -0.157   6.926   1.684  0.0000  0.0000  0.0000
16698TPS    CA421594   0.018   7.050   1.697  0.0000  0.0000  0.0000
16698TPS    HA421595   0.008   7.067   1.804  0.0000  0.0000  0.0000
16698TPS    CA321596   0.127   7.106   1.627  0.0000  0.0000  0.0000
16698TPS    HA321597   0.199   7.166   1.681  0.0000  0.0000  0.0000
16699TPS    HA221598   5.714   5.030   8.226  0.0000  0.0000  0.0000
16699TPS    CA221599   5.741   4.938   8.175  0.0000  0.0000  0.0000
16699TPS    CA121600   5.766   4.819   8.245  0.0000  0.0000  0.0000
16699TPS     Si21601   5.766   4.819   8.431  0.0000  0.0000  0.0000
16699TPS    CA621602   5.807   4.705   8.173  0.0000  0.0000  0.0000
16699TPS    HH621603   5.822   4.609   8.222  0.0000  0.0000  0.0000
16699TPS    CA521604   5.830   4.712   8.034  0.0000  0.0000  0.0000
16699TPS    HA521605   5.862   4.625   7.979  0.0000  0.0000  0.0000
16699TPS    CA421606   5.807   4.833   7.966  0.0000  0.0000  0.0000
16699TPS    HA421607   5.826   4.839   7.859  0.0000  0.0000  0.0000
16699TPS    CA321608   5.760   4.945   8.036  0.0000  0.0000  0.0000
16699TPS    HA321609   5.743   5.038   7.982  0.0000  0.0000  0.0000
16700TPS    HA221610   7.532   9.204   8.240  0.0000  0.0000  0.0000
16700TPS    CA221611   7.559   9.112   8.189  0.0000  0.0000  0.0000
16700TPS    CA121612   7.584   8.993   8.259  0.0000  0.0000  0.0000
16700TPS     Si21613   7.584   8.993   8.445  0.0000  0.0000  0.0000
16700TPS    CA621614   7.625   8.879   8.187  0.0000  0.0000  0.0000
16700TPS    HH621615   7.640   8.783   8.236  0.0000  0.0000  0.0000
16700TPS    CA521616   7.648   8.886   8.048  0.0000  0.0000  0.0000
16700TPS    HA521617   7.680   8.799   7.993  0.0000  0.0000  0.0000
16700TPS    CA421618   7.625   9.007   7.980  0.0000  0.0000  0.0000
16700TPS    HA421619   7.644   9.013   7.873  0.0000  0.0000  0.0000
16700TPS    CA321620   7.578   9.119   8.050  0.0000  0.0000  0.0000
16700TPS    HA321621   7.561   9.212   7.996  0.0000  0.0000  0.0000
16701TPS    HA221622   9.482   8.607   1.474  0.0000  0.0000  0.0000
16701TPS    CA221623   9.509   8.699   1.525  0.0000  0.0000  0.0000
16701TPS    CA121624   9.534   8.818   1.455  0.0000  0.0000  0.0000
16701TPS     Si21625   9.534   8.818   1.269  0.0000  0.0000  0.0000
16701TPS    CA621626   9.575   8.932   1.527  0.0000  0.0000  0.0000
16701TPS    HH621627   9.590   9.028   1.478  0.0000  0.0000  0.0000
16701TPS    CA521628   9.598   8.925   1.666  0.0000  0.0000  0.0000
16701TPS    HA521629   9.630   9.012   1.721  0.0000  0.0000  0.0000
16701TPS    CA421630   9.575   8.804   1.734  0.0000  0.0000  0.0000
16701TPS    HA421631   9.594   8.798   1.841  0.0000  0.0000  0.0000
16701TPS    CA321632   9.528   8.692   1.664  0.0000  0.0000  0.0000
16701TPS    HA321633   9.511   8.599   1.718  0.0000  0.0000  0.0000
16702TPS    HA221634   5.637   3.183   1.571  0.0000  0.0000  0.0000
16702TPS    CA221635   5.664   3.275   1.622  0.0000  0.0000  0.0000
16702TPS    CA121636   5.689   3.394   1.552  0.0000  0.0000  0.0000
16702TPS     Si21637   5.689   3.394   1.366  0.0000  0.0000  0.0000
16702TPS    CA621638   5.730   3.508   1.624  0.0000  0.0000  0.0000
16702TPS    HH621639   5.745   3.604   1.575  0.0000  0.0000  0.0000
16702TPS    CA521640   5.753   3.501   1.763  0.0000  0.0000  0.0000
16702TPS    HA521641   5.785   3.588   1.818  0.0000  0.0000  0.0000
16702TPS    CA421642   5.730   3.380   1.831  0.0000  0.0000  0.0000
16702TPS    HA421643   5.749   3.374   1.938  0.0000  0.0000  0.0000
16702TPS    CA321644   5.683   3.268   1.761  0.0000  0.0000  0.0000
16702TPS    HA321645   5.666   3.175   1.815  0.0000  0.0000  0.0000
16703TPS    HA221646   0.052   8.251   8.113  0.0000  0.0000  0.0000
16703TPS    CA221647   0.079   8.159   8.062  0.0000  0.0000  0.0000
16703TPS    CA121648   0.104   8.040   8.132  0.0000  0.0000  0.0000
16703TPS     Si21649   0.104   8.040   8.318  0.0000  0.0000  0.0000
16703TPS    CA621650   0.145   7.926   8.060  0.0000  0.0000  0.0000
16703TPS    HH621651   0.160   7.830   8.109  0.0000  0.0000  0.0000
16703TPS    CA521652   0.168   7.933   7.921  0.0000  0.0000  0.0000
16703TPS    HA521653   0.200   7.846   7.866  0.0000  0.0000  0.0000
16703TPS    CA421654   0.145   8.054   7.853  0.0000  0.0000  0.0000
16703TPS    HA421655   0.164   8.060   7.746  0.0000  0.0000  0.0000
16703TPS    CA321656   0.098   8.166   7.923  0.0000  0.0000  0.0000
16703TPS    HA321657   0.081   8.259   7.869  0.0000  0.0000  0.0000
16704TPS    HA221658   3.565   7.509   1.454  0.0000  0.0000  0.0000
16704TPS    CA221659   3.592   7.601   1.505  0.0000  0.0000  0.0000
16704TPS    CA121660   3.617   7.720   1.435  0.0000  0.0000  0.0000
16704TPS     Si21661   3.617   7.720   1.249  0.0000  0.0000  0.0000
16704TPS    CA621662   3.658   7.834   1.507  0.0000  0.0000  0.0000
16704TPS    HH621663   3.673   7.930   1.458  0.0000  0.0000  0.0000
16704TPS    CA521664   3.681   7.827   1.646  0.0000  0.0000  0.0000
16704TPS    HA521665   3.713   7.914   1.701  0.0000  0.0000  0.0000
16704TPS    CA421666   3.658   7.706   1.714  0.0000  0.0000  0.0000
16704TPS    HA421667   3.677   7.700   1.821  0.0000  0.0000  0.0000
16704TPS    CA321668   3.611   7.594   1.644  0.0000  0.0000  0.0000
16704TPS    HA321669   3.594   7.501   1.698  0.0000  0.0000  0.0000
16705TPS    HA221670   4.037   5.437   1.632  0.0000  0.0000  0.0000
16705TPS    CA221671   3.998   5.524   1.683  0.0000  0.0000  0.0000
16705TPS    CA121672   3.941   5.632   1.613  0.0000  0.0000  0.0000
16705TPS     Si21673   3.941   5.632   1.427  0.0000  0.0000  0.0000
16705TPS    CA621674   3.899   5.746   1.685  0.0000  0.0000  0.0000
16705TPS    HH621675   3.849   5.829   1.636  0.0000  0.0000  0.0000
16705TPS    CA521676   3.921   5.754   1.824  0.0000  0.0000  0.0000
16705TPS    HA521677   3.890   5.843   1.879  0.0000  0.0000  0.0000
16705TPS    CA421678   3.981   5.648   1.892  0.0000  0.0000  0.0000
16705TPS    HA421679   4.000   5.655   1.999  0.0000  0.0000  0.0000
16705TPS    CA321680   4.017   5.532   1.822  0.0000  0.0000  0.0000
16705TPS    HA321681   4.064   5.449   1.876  0.0000  0.0000  0.0000
16706TPS    HA221682   7.602   2.750   8.205  0.0000  0.0000  0.0000
16706TPS    CA221683   7.629   2.658   8.154  0.0000  0.0000  0.0000
16706TPS    CA121684   7.654   2.539   8.224  0.0000  0.0000  0.0000
16706TPS     Si21685   7.654   2.539   8.410  0.0000  0.0000  0.0000
16706TPS    CA621686   7.695   2.425   8.152  0.0000  0.0000  0.0000
16706TPS    HH621687   7.710   2.329   8.201  0.0000  0.0000  0.0000
16706TPS    CA521688   7.718   2.432   8.013  0.0000  0.0000  0.0000
16706TPS    HA521689   7.750   2.345   7.958  0.0000  0.0000  0.0000
16706TPS    CA421690   7.695   2.553   7.945  0.0000  0.0000  0.0000
16706TPS    HA421691   7.714   2.559   7.838  0.0000  0.0000  0.0000
16706TPS    CA321692   7.648   2.665   8.015  0.0000  0.0000  0.0000
16706TPS    HA321693   7.631   2.758   7.961  0.0000  0.0000  0.0000
16707TPS    HA221694   0.733   2.368   8.049  0.0000  0.0000  0.0000
16707TPS    CA221695   0.760   2.276   7.998  0.0000  0.0000  0.0000
16707TPS    CA121696   0.785   2.157   8.068  0.0000  0.0000  0.0000
16707TPS     Si21697   0.785   2.157   8.254  0.0000  0.0000  0.0000
16707TPS    CA621698   0.826   2.043   7.996  0.0000  0.0000  0.0000
16707TPS    HH621699   0.841   1.947   8.045  0.0000  0.0000  0.0000
16707TPS    CA521700   0.849   2.050   7.857  0.0000  0.0000  0.0000
16707TPS    HA521701   0.881   1.963   7.802  0.0000  0.0000  0.0000
16707TPS    CA421702   0.826   2.171   7.789  0.0000  0.0000  0.0000
16707TPS    HA421703   0.845   2.177   7.682  0.0000  0.0000  0.0000
16707TPS    CA321704   0.779   2.283   7.859  0.0000  0.0000  0.0000
16707TPS    HA321705   0.762   2.376   7.805  0.0000  0.0000  0.0000
16708TPS    HA221706   1.304   3.099   1.473  0.0000  0.0000  0.0000
16708TPS    CA221707   1.331   3.191   1.524  0.0000  0.0000  0.0000
16708TPS    CA121708   1.356   3.310   1.454  0.0000  0.0000  0.0000
16708TPS     Si21709   1.356   3.310   1.268  0.0000  0.0000  0.0000
16708TPS    CA621710   1.397   3.424   1.526  0.0000  0.0000  0.0000
16708TPS    HH621711   1.412   3.520   1.477  0.0000  0.0000  0.0000
16708TPS    CA521712   1.420   3.417   1.665  0.0000  0.0000  0.0000
16708TPS    HA521713   1.452   3.504   1.720  0.0000  0.0000  0.0000
16708TPS    CA421714   1.397   3.296   1.733  0.0000  0.0000  0.0000
16708TPS    HA421715   1.416   3.290   1.840  0.0000  0.0000  0.0000
16708TPS    CA321716   1.350   3.184   1.663  0.0000  0.0000  0.0000
16708TPS    HA321717   1.333   3.091   1.717  0.0000  0.0000  0.0000
16709TPS    HA221718   7.563   5.570   1.427  0.0000  0.0000  0.0000
16709TPS    CA221719   7.590   5.662   1.478  0.0000  0.0000  0.0000
16709TPS    CA121720   7.615   5.781   1.408  0.0000  0.0000  0.0000
16709TPS     Si21721   7.615   5.781   1.222  0.0000  0.0000  0.0000
16709TPS    CA621722   7.656   5.895   1.480  0.0000  0.0000  0.0000
16709TPS    HH621723   7.671   5.991   1.431  0.0000  0.0000  0.0000
16709TPS    CA521724   7.679   5.888   1.619  0.0000  0.0000  0.0000
16709TPS    HA521725   7.711   5.975   1.674  0.0000  0.0000  0.0000
16709TPS    CA421726   7.656   5.767   1.687  0.0000  0.0000  0.0000
16709TPS    HA421727   7.675   5.761   1.794  0.0000  0.0000  0.0000
16709TPS    CA321728   7.609   5.655   1.617  0.0000  0.0000  0.0000
16709TPS    HA321729   7.592   5.562   1.671  0.0000  0.0000  0.0000
16710TPS    HA221730   4.399   7.217   8.165  0.0000  0.0000  0.0000
16710TPS    CA221731   4.426   7.125   8.114  0.0000  0.0000  0.0000
16710TPS    CA121732   4.451   7.006   8.184  0.0000  0.0000  0.0000
16710TPS     Si21733   4.451   7.006   8.370  0.0000  0.0000  0.0000
16710TPS    CA621734   4.492   6.892   8.112  0.0000  0.0000  0.0000
16710TPS    HH621735   4.507   6.796   8.161  0.0000  0.0000  0.0000
16710TPS    CA521736   4.515   6.899   7.973  0.0000  0.0000  0.0000
16710TPS    HA521737   4.547   6.812   7.918  0.0000  0.0000  0.0000
16710TPS    CA421738   4.492   7.020   7.905  0.0000  0.0000  0.0000
16710TPS    HA421739   4.511   7.026   7.798  0.0000  0.0000  0.0000
16710TPS    CA321740   4.445   7.132   7.975  0.0000  0.0000  0.0000
16710TPS    HA321741   4.428   7.225   7.921  0.0000  0.0000  0.0000
16711TPS    HA221742   1.370   0.931   8.176  0.0000  0.0000  0.0000
16711TPS    CA221743   1.397   0.839   8.125  0.0000  0.0000  0.0000
16711TPS    CA121744   1.422   0.720   8.195  0.0000  0.0000  0.0000
16711TPS     Si21745   1.422   0.720   8.381  0.0000  0.0000  0.0000
16711TPS    CA621746   1.463   0.606   8.123  0.0000  0.0000  0.0000
16711TPS    HH621747   1.478   0.510   8.172  0.0000  0.0000  0.0000
16711TPS    CA521748   1.486   0.613   7.984  0.0000  0.0000  0.0000
16711TPS    HA521749   1.518   0.526   7.929  0.0000  0.0000  0.0000
16711TPS    CA421750   1.463   0.734   7.916  0.0000  0.0000  0.0000
16711TPS    HA421751   1.482   0.740   7.809  0.0000  0.0000  0.0000
16711TPS    CA321752   1.416   0.846   7.986  0.0000  0.0000  0.0000
16711TPS    HA321753   1.399   0.939   7.932  0.0000  0.0000  0.0000
16712TPS    HA221754   7.030   6.167   1.319  0.0000  0.0000  0.0000
16712TPS    CA221755   7.123   6.190   1.370  0.0000  0.0000  0.0000
16712TPS    CA121756   7.239   6.228   1.300  0.0000  0.0000  0.0000
16712TPS     Si21757   7.239   6.228   1.114  0.0000  0.0000  0.0000
16712TPS    CA621758   7.358   6.250   1.372  0.0000  0.0000  0.0000
16712TPS    HH621759   7.449   6.284   1.323  0.0000  0.0000  0.0000
16712TPS    CA521760   7.363   6.226   1.511  0.0000  0.0000  0.0000
16712TPS    HA521761   7.455   6.242   1.566  0.0000  0.0000  0.0000
16712TPS    CA421762   7.248   6.186   1.579  0.0000  0.0000  0.0000
16712TPS    HA421763   7.252   6.166   1.686  0.0000  0.0000  0.0000
16712TPS    CA321764   7.127   6.170   1.509  0.0000  0.0000  0.0000
16712TPS    HA321765   7.038   6.139   1.563  0.0000  0.0000  0.0000
16713TPS    HA221766   0.766   6.572   1.466  0.0000  0.0000  0.0000
16713TPS    CA221767   0.680   6.614   1.517  0.0000  0.0000  0.0000
16713TPS    CA121768   0.567   6.660   1.447  0.0000  0.0000  0.0000
16713TPS     Si21769   0.567   6.660   1.261  0.0000  0.0000  0.0000
16713TPS    CA621770   0.462   6.720   1.519  0.0000  0.0000  0.0000
16713TPS    HH621771   0.370   6.752   1.470  0.0000  0.0000  0.0000
16713TPS    CA521772   0.473   6.741   1.658  0.0000  0.0000  0.0000
16713TPS    HA521773   0.392   6.788   1.713  0.0000  0.0000  0.0000
16713TPS    CA421774   0.588   6.698   1.726  0.0000  0.0000  0.0000
16713TPS    HA421775   0.597   6.716   1.833  0.0000  0.0000  0.0000
16713TPS    CA321776   0.690   6.632   1.656  0.0000  0.0000  0.0000
16713TPS    HA321777   0.778   6.599   1.710  0.0000  0.0000  0.0000
16714TPS    HA221778   7.627   8.571   1.361  0.0000  0.0000  0.0000
16714TPS    CA221779   7.561   8.639   1.412  0.0000  0.0000  0.0000
16714TPS    CA121780   7.470   8.721   1.342  0.0000  0.0000  0.0000
16714TPS     Si21781   7.470   8.721   1.156  0.0000  0.0000  0.0000
16714TPS    CA621782   7.392   8.814   1.414  0.0000  0.0000  0.0000
16714TPS    HH621783   7.317   8.875   1.365  0.0000  0.0000  0.0000
16714TPS    CA521784   7.409   8.829   1.553  0.0000  0.0000  0.0000
16714TPS    HA521785   7.350   8.901   1.608  0.0000  0.0000  0.0000
16714TPS    CA421786   7.502   8.750   1.621  0.0000  0.0000  0.0000
16714TPS    HA421787   7.517   8.763   1.728  0.0000  0.0000  0.0000
16714TPS    CA321788   7.576   8.653   1.551  0.0000  0.0000  0.0000
16714TPS    HA321789   7.648   8.591   1.605  0.0000  0.0000  0.0000
16715TPS    HA221790   5.167   4.226   8.117  0.0000  0.0000  0.0000
16715TPS    CA221791   5.194   4.134   8.066  0.0000  0.0000  0.0000
16715TPS    CA121792   5.219   4.015   8.136  0.0000  0.0000  0.0000
16715TPS     Si21793   5.219   4.015   8.322  0.0000  0.0000  0.0000
16715TPS    CA621794   5.260   3.901   8.064  0.0000  0.0000  0.0000
16715TPS    HH621795   5.275   3.805   8.113  0.0000  0.0000  0.0000
16715TPS    CA521796   5.283   3.908   7.925  0.0000  0.0000  0.0000
16715TPS    HA521797   5.315   3.821   7.870  0.0000  0.0000  0.0000
16715TPS    CA421798   5.260   4.029   7.857  0.0000  0.0000  0.0000
16715TPS    HA421799   5.279   4.035   7.750  0.0000  0.0000  0.0000
16715TPS    CA321800   5.213   4.141   7.927  0.0000  0.0000  0.0000
16715TPS    HA321801   5.196   4.234   7.873  0.0000  0.0000  0.0000
16716TPS    HA221802   7.454   8.471   8.036  0.0000  0.0000  0.0000
16716TPS    CA221803   7.481   8.379   7.985  0.0000  0.0000  0.0000
16716TPS    CA121804   7.506   8.260   8.055  0.0000  0.0000  0.0000
16716TPS     Si21805   7.506   8.260   8.241  0.0000  0.0000  0.0000
16716TPS    CA621806   7.547   8.146   7.983  0.0000  0.0000  0.0000
16716TPS    HH621807   7.562   8.050   8.032  0.0000  0.0000  0.0000
16716TPS    CA521808   7.570   8.153   7.844  0.0000  0.0000  0.0000
16716TPS    HA521809   7.602   8.066   7.789  0.0000  0.0000  0.0000
16716TPS    CA421810   7.547   8.274   7.776  0.0000  0.0000  0.0000
16716TPS    HA421811   7.566   8.280   7.669  0.0000  0.0000  0.0000
16716TPS    CA321812   7.500   8.386   7.846  0.0000  0.0000  0.0000
16716TPS    HA321813   7.483   8.479   7.792  0.0000  0.0000  0.0000
16717TPS    HA221814   6.869   9.043   1.544  0.0000  0.0000  0.0000
16717TPS    CA221815   6.896   9.135   1.595  0.0000  0.0000  0.0000
16717TPS    CA121816   6.921   9.254   1.525  0.0000  0.0000  0.0000
16717TPS     Si21817   6.921   9.254   1.339  0.0000  0.0000  0.0000
16717TPS    CA621818   6.962   9.368   1.597  0.0000  0.0000  0.0000
16717TPS    HH621819   6.977   9.464   1.548  0.0000  0.0000  0.0000
16717TPS    CA521820   6.985   9.361   1.736  0.0000  0.0000  0.0000
16717TPS    HA521821   7.017   9.448   1.791  0.0000  0.0000  0.0000
16717TPS    CA421822   6.962   9.240   1.804  0.0000  0.0000  0.0000
16717TPS    HA421823   6.981   9.234   1.911  0.0000  0.0000  0.0000
16717TPS    CA321824   6.915   9.128   1.734  0.0000  0.0000  0.0000
16717TPS    HA321825   6.898   9.035   1.788  0.0000  0.0000  0.0000
16718TPS    HA221826   5.586   3.806   8.031  0.0000  0.0000  0.0000
16718TPS    CA221827   5.547   3.719   7.980  0.0000  0.0000  0.0000
16718TPS    CA121828   5.490   3.611   8.050  0.0000  0.0000  0.0000
16718TPS     Si21829   5.490   3.611   8.236  0.0000  0.0000  0.0000
16718TPS    CA621830   5.448   3.497   7.978  0.0000  0.0000  0.0000
16718TPS    HH621831   5.398   3.414   8.027  0.0000  0.0000  0.0000
16718TPS    CA521832   5.470   3.489   7.839  0.0000  0.0000  0.0000
16718TPS    HA521833   5.439   3.400   7.784  0.0000  0.0000  0.0000
16718TPS    CA421834   5.530   3.595   7.771  0.0000  0.0000  0.0000
16718TPS    HA421835   5.549   3.588   7.664  0.0000  0.0000  0.0000
16718TPS    CA321836   5.566   3.711   7.841  0.0000  0.0000  0.0000
16718TPS    HA321837   5.613   3.794   7.787  0.0000  0.0000  0.0000
16719TPS    HA221838   5.347   2.320   1.598  0.0000  0.0000  0.0000
16719TPS    CA221839   5.374   2.412   1.649  0.0000  0.0000  0.0000
16719TPS    CA121840   5.399   2.531   1.579  0.0000  0.0000  0.0000
16719TPS     Si21841   5.399   2.531   1.393  0.0000  0.0000  0.0000
16719TPS    CA621842   5.440   2.645   1.651  0.0000  0.0000  0.0000
16719TPS    HH621843   5.455   2.741   1.602  0.0000  0.0000  0.0000
16719TPS    CA521844   5.463   2.638   1.790  0.0000  0.0000  0.0000
16719TPS    HA521845   5.495   2.725   1.845  0.0000  0.0000  0.0000
16719TPS    CA421846   5.440   2.517   1.858  0.0000  0.0000  0.0000
16719TPS    HA421847   5.459   2.511   1.965  0.0000  0.0000  0.0000
16719TPS    CA321848   5.393   2.405   1.788  0.0000  0.0000  0.0000
16719TPS    HA321849   5.376   2.312   1.842  0.0000  0.0000  0.0000
16720TPS    HA221850   6.252   3.983   1.549  0.0000  0.0000  0.0000
16720TPS    CA221851   6.338   3.941   1.600  0.0000  0.0000  0.0000
16720TPS    CA121852   6.451   3.895   1.530  0.0000  0.0000  0.0000
16720TPS     Si21853   6.451   3.895   1.344  0.0000  0.0000  0.0000
16720TPS    CA621854   6.556   3.835   1.602  0.0000  0.0000  0.0000
16720TPS    HH621855   6.648   3.803   1.553  0.0000  0.0000  0.0000
16720TPS    CA521856   6.545   3.814   1.741  0.0000  0.0000  0.0000
16720TPS    HA521857   6.626   3.767   1.796  0.0000  0.0000  0.0000
16720TPS    CA421858   6.430   3.857   1.809  0.0000  0.0000  0.0000
16720TPS    HA421859   6.421   3.839   1.916  0.0000  0.0000  0.0000
16720TPS    CA321860   6.328   3.923   1.739  0.0000  0.0000  0.0000
16720TPS    HA321861   6.240   3.956   1.793  0.0000  0.0000  0.0000
16721TPS    HA221862   2.461   4.767   8.112  0.0000  0.0000  0.0000
16721TPS    CA221863   2.488   4.675   8.061  0.0000  0.0000  0.0000
16721TPS    CA121864   2.513   4.556   8.131  0.0000  0.0000  0.0000
16721TPS     Si21865   2.513   4.556   8.317  0.0000  0.0000  0.0000
16721TPS    CA621866   2.554   4.442   8.059  0.0000  0.0000  0.0000
16721TPS    HH621867   2.569   4.346   8.108  0.0000  0.0000  0.0000
16721TPS    CA521868   2.577   4.449   7.920  0.0000  0.0000  0.0000
16721TPS    HA521869   2.609   4.362   7.865  0.0000  0.0000  0.0000
16721TPS    CA421870   2.554   4.570   7.852  0.0000  0.0000  0.0000
16721TPS    HA421871   2.573   4.576   7.745  0.0000  0.0000  0.0000
16721TPS    CA321872   2.507   4.682   7.922  0.0000  0.0000  0.0000
16721TPS    HA321873   2.490   4.775   7.868  0.0000  0.0000  0.0000
16722TPS    HA221874   2.788   9.697   8.104  0.0000  0.0000  0.0000
16722TPS    CA221875   2.815   9.605   8.053  0.0000  0.0000  0.0000
16722TPS    CA121876   2.840   9.486   8.123  0.0000  0.0000  0.0000
16722TPS     Si21877   2.840   9.486   8.309  0.0000  0.0000  0.0000
16722TPS    CA621878   2.881   9.372   8.051  0.0000  0.0000  0.0000
16722TPS    HH621879   2.896   9.276   8.100  0.0000  0.0000  0.0000
16722TPS    CA521880   2.904   9.379   7.912  0.0000  0.0000  0.0000
16722TPS    HA521881   2.936   9.292   7.857  0.0000  0.0000  0.0000
16722TPS    CA421882   2.881   9.500   7.844  0.0000  0.0000  0.0000
16722TPS    HA421883   2.900   9.506   7.737  0.0000  0.0000  0.0000
16722TPS    CA321884   2.834   9.612   7.914  0.0000  0.0000  0.0000
16722TPS    HA321885   2.817   9.705   7.860  0.0000  0.0000  0.0000
16723TPS    HA221886   8.201   5.823   8.152  0.0000  0.0000  0.0000
16723TPS    CA221887   8.108   5.846   8.101  0.0000  0.0000  0.0000
16723TPS    CA121888   7.992   5.884   8.171  0.0000  0.0000  0.0000
16723TPS     Si21889   7.992   5.884   8.357  0.0000  0.0000  0.0000
16723TPS    CA621890   7.873   5.906   8.099  0.0000  0.0000  0.0000
16723TPS    HH621891   7.782   5.940   8.148  0.0000  0.0000  0.0000
16723TPS    CA521892   7.868   5.882   7.960  0.0000  0.0000  0.0000
16723TPS    HA521893   7.776   5.898   7.905  0.0000  0.0000  0.0000
16723TPS    CA421894   7.983   5.842   7.892  0.0000  0.0000  0.0000
16723TPS    HA421895   7.979   5.822   7.785  0.0000  0.0000  0.0000
16723TPS    CA321896   8.104   5.826   7.962  0.0000  0.0000  0.0000
16723TPS    HA321897   8.193   5.795   7.908  0.0000  0.0000  0.0000
16724TPS    HA221898   8.636   4.745   1.485  0.0000  0.0000  0.0000
16724TPS    CA221899   8.663   4.837   1.536  0.0000  0.0000  0.0000
16724TPS    CA121900   8.688   4.956   1.466  0.0000  0.0000  0.0000
16724TPS     Si21901   8.688   4.956   1.280  0.0000  0.0000  0.0000
16724TPS    CA621902   8.729   5.070   1.538  0.0000  0.0000  0.0000
16724TPS    HH621903   8.744   5.166   1.489  0.0000  0.0000  0.0000
16724TPS    CA521904   8.752   5.063   1.677  0.0000  0.0000  0.0000
16724TPS    HA521905   8.784   5.150   1.732  0.0000  0.0000  0.0000
16724TPS    CA421906   8.729   4.942   1.745  0.0000  0.0000  0.0000
16724TPS    HA421907   8.748   4.936   1.852  0.0000  0.0000  0.0000
16724TPS    CA321908   8.682   4.830   1.675  0.0000  0.0000  0.0000
16724TPS    HA321909   8.665   4.737   1.729  0.0000  0.0000  0.0000
16725TPS    HA221910   8.078   1.921   1.368  0.0000  0.0000  0.0000
16725TPS    CA221911   8.105   2.013   1.419  0.0000  0.0000  0.0000
16725TPS    CA121912   8.130   2.132   1.349  0.0000  0.0000  0.0000
16725TPS     Si21913   8.130   2.132   1.163  0.0000  0.0000  0.0000
16725TPS    CA621914   8.171   2.246   1.421  0.0000  0.0000  0.0000
16725TPS    HH621915   8.186   2.342   1.372  0.0000  0.0000  0.0000
16725TPS    CA521916   8.194   2.239   1.560  0.0000  0.0000  0.0000
16725TPS    HA521917   8.226   2.326   1.615  0.0000  0.0000  0.0000
16725TPS    CA421918   8.171   2.118   1.628  0.0000  0.0000  0.0000
16725TPS    HA421919   8.190   2.112   1.735  0.0000  0.0000  0.0000
16725TPS    CA321920   8.124   2.006   1.558  0.0000  0.0000  0.0000
16725TPS    HA321921   8.107   1.913   1.612  0.0000  0.0000  0.0000
16726TPS    HA221922   7.695   3.838   8.096  0.0000  0.0000  0.0000
16726TPS    CA221923   7.722   3.746   8.045  0.0000  0.0000  0.0000
16726TPS    CA121924   7.747   3.627   8.115  0.0000  0.0000  0.0000
16726TPS     Si21925   7.747   3.627   8.301  0.0000  0.0000  0.0000
16726TPS    CA621926   7.788   3.513   8.043  0.0000  0.0000  0.0000
16726TPS    HH621927   7.803   3.417   8.092  0.0000  0.0000  0.0000
16726TPS    CA521928   7.811   3.520   7.904  0.0000  0.0000  0.0000
16726TPS    HA521929   7.843   3.433   7.849  0.0000  0.0000  0.0000
16726TPS    CA421930   7.788   3.641   7.836  0.0000  0.0000  0.0000
16726TPS    HA421931   7.807   3.647   7.729  0.0000  0.0000  0.0000
16726TPS    CA321932   7.741   3.753   7.906  0.0000  0.0000  0.0000
16726TPS    HA321933   7.724   3.846   7.852  0.0000  0.0000  0.0000
16727TPS    HA221934   8.891   9.633   8.137  0.0000  0.0000  0.0000
16727TPS    CA221935   8.852   9.546   8.086  0.0000  0.0000  0.0000
16727TPS    CA121936   8.795   9.438   8.156  0.0000  0.0000  0.0000
16727TPS     Si21937   8.795   9.438   8.342  0.0000  0.0000  0.0000
16727TPS    CA621938   8.753   9.324   8.084  0.0000  0.0000  0.0000
16727TPS    HH621939   8.703   9.241   8.133  0.0000  0.0000  0.0000
16727TPS    CA521940   8.775   9.316   7.945  0.0000  0.0000  0.0000
16727TPS    HA521941   8.744   9.227   7.890  0.0000  0.0000  0.0000
16727TPS    CA421942   8.835   9.422   7.877  0.0000  0.0000  0.0000
16727TPS    HA421943   8.854   9.415   7.770  0.0000  0.0000  0.0000
16727TPS    CA321944   8.871   9.538   7.947  0.0000  0.0000  0.0000
16727TPS    HA321945   8.918   9.621   7.893  0.0000  0.0000  0.0000
16728TPS    HA221946   8.270   7.414   1.377  0.0000  0.0000  0.0000
16728TPS    CA221947   8.177   7.391   1.428  0.0000  0.0000  0.0000
16728TPS    CA121948   8.061   7.353   1.358  0.0000  0.0000  0.0000
16728TPS     Si21949   8.061   7.353   1.172  0.0000  0.0000  0.0000
16728TPS    CA621950   7.942   7.331   1.430  0.0000  0.0000  0.0000
16728TPS    HH621951   7.851   7.297   1.381  0.0000  0.0000  0.0000
16728TPS    CA521952   7.937   7.355   1.569  0.0000  0.0000  0.0000
16728TPS    HA521953   7.845   7.339   1.624  0.0000  0.0000  0.0000
16728TPS    CA421954   8.052   7.395   1.637  0.0000  0.0000  0.0000
16728TPS    HA421955   8.048   7.415   1.744  0.0000  0.0000  0.0000
16728TPS    CA321956   8.173   7.411   1.567  0.0000  0.0000  0.0000
16728TPS    HA321957   8.262   7.442   1.621  0.0000  0.0000  0.0000
16729TPS    HA221958   1.646   0.433   8.074  0.0000  0.0000  0.0000
16729TPS    CA221959   1.673   0.341   8.023  0.0000  0.0000  0.0000
16729TPS    CA121960   1.698   0.222   8.093  0.0000  0.0000  0.0000
16729TPS     Si21961   1.698   0.222   8.279  0.0000  0.0000  0.0000
16729TPS    CA621962   1.739   0.108   8.021  0.0000  0.0000  0.0000
16729TPS    HH621963   1.754   0.012   8.070  0.0000  0.0000  0.0000
16729TPS    CA521964   1.762   0.115   7.882  0.0000  0.0000  0.0000
16729TPS    HA521965   1.794   0.028   7.827  0.0000  0.0000  0.0000
16729TPS    CA421966   1.739   0.236   7.814  0.0000  0.0000  0.0000
16729TPS    HA421967   1.758   0.242   7.707  0.0000  0.0000  0.0000
16729TPS    CA321968   1.692   0.348   7.884  0.0000  0.0000  0.0000
16729TPS    HA321969   1.675   0.441   7.830  0.0000  0.0000  0.0000
16730TPS    HA221970   7.580   0.872   1.378  0.0000  0.0000  0.0000
16730TPS    CA221971   7.607   0.964   1.429  0.0000  0.0000  0.0000
16730TPS    CA121972   7.632   1.083   1.359  0.0000  0.0000  0.0000
16730TPS     Si21973   7.632   1.083   1.173  0.0000  0.0000  0.0000
16730TPS    CA621974   7.673   1.197   1.431  0.0000  0.0000  0.0000
16730TPS    HH621975   7.688   1.293   1.382  0.0000  0.0000  0.0000
16730TPS    CA521976   7.696   1.190   1.570  0.0000  0.0000  0.0000
16730TPS    HA521977   7.728   1.277   1.625  0.0000  0.0000  0.0000
16730TPS    CA421978   7.673   1.069   1.638  0.0000  0.0000  0.0000
16730TPS    HA421979   7.692   1.063   1.745  0.0000  0.0000  0.0000
16730TPS    CA321980   7.626   0.957   1.568  0.0000  0.0000  0.0000
16730TPS    HA321981   7.609   0.864   1.622  0.0000  0.0000  0.0000
16731TPS    HA221982   3.887   2.365   8.383  0.0000  0.0000  0.0000
16731TPS    CA221983   3.848   2.278   8.332  0.0000  0.0000  0.0000
16731TPS    CA121984   3.791   2.170   8.402  0.0000  0.0000  0.0000
16731TPS     Si21985   3.791   2.170   8.588  0.0000  0.0000  0.0000
16731TPS    CA621986   3.749   2.056   8.330  0.0000  0.0000  0.0000
16731TPS    HH621987   3.699   1.973   8.379  0.0000  0.0000  0.0000
16731TPS    CA521988   3.771   2.048   8.191  0.0000  0.0000  0.0000
16731TPS    HA521989   3.740   1.959   8.136  0.0000  0.0000  0.0000
16731TPS    CA421990   3.831   2.154   8.123  0.0000  0.0000  0.0000
16731TPS    HA421991   3.850   2.147   8.016  0.0000  0.0000  0.0000
16731TPS    CA321992   3.867   2.270   8.193  0.0000  0.0000  0.0000
16731TPS    HA321993   3.914   2.353   8.139  0.0000  0.0000  0.0000
16732TPS    HA221994   0.965   7.413   8.126  0.0000  0.0000  0.0000
16732TPS    CA221995   0.899   7.345   8.075  0.0000  0.0000  0.0000
16732TPS    CA121996   0.808   7.263   8.145  0.0000  0.0000  0.0000
16732TPS     Si21997   0.808   7.263   8.331  0.0000  0.0000  0.0000
16732TPS    CA621998   0.730   7.170   8.073  0.0000  0.0000  0.0000
16732TPS    HH621999   0.655   7.109   8.122  0.0000  0.0000  0.0000
16732TPS    CA522000   0.747   7.155   7.934  0.0000  0.0000  0.0000
16732TPS    HA522001   0.688   7.083   7.879  0.0000  0.0000  0.0000
16732TPS    CA422002   0.840   7.234   7.866  0.0000  0.0000  0.0000
16732TPS    HA422003   0.855   7.221   7.759  0.0000  0.0000  0.0000
16732TPS    CA322004   0.914   7.331   7.936  0.0000  0.0000  0.0000
16732TPS    HA322005   0.986   7.393   7.882  0.0000  0.0000  0.0000
16733TPS    HA222006   3.163   8.174   1.502  0.0000  0.0000  0.0000
16733TPS    CA222007   3.190   8.266   1.553  0.0000  0.0000  0.0000
16733TPS    CA122008   3.215   8.385   1.483  0.0000  0.0000  0.0000
16733TPS     Si22009   3.215   8.385   1.297  0.0000  0.0000  0.0000
16733TPS    CA622010   3.256   8.499   1.555  0.0000  0.0000  0.0000
16733TPS    HH622011   3.271   8.595   1.506  0.0000  0.0000  0.0000
16733TPS    CA522012   3.279   8.492   1.694  0.0000  0.0000  0.0000
16733TPS    HA522013   3.311   8.579   1.749  0.0000  0.0000  0.0000
16733TPS    CA422014   3.256   8.371   1.762  0.0000  0.0000  0.0000
16733TPS    HA422015   3.275   8.365   1.869  0.0000  0.0000  0.0000
16733TPS    CA322016   3.209   8.259   1.692  0.0000  0.0000  0.0000
16733TPS    HA322017   3.192   8.166   1.746  0.0000  0.0000  0.0000
16734TPS    HA222018   8.912   0.448   1.416  0.0000  0.0000  0.0000
16734TPS    CA222019   8.939   0.540   1.467  0.0000  0.0000  0.0000
16734TPS    CA122020   8.964   0.659   1.397  0.0000  0.0000  0.0000
16734TPS     Si22021   8.964   0.659   1.211  0.0000  0.0000  0.0000
16734TPS    CA622022   9.005   0.773   1.469  0.0000  0.0000  0.0000
16734TPS    HH622023   9.020   0.869   1.420  0.0000  0.0000  0.0000
16734TPS    CA522024   9.028   0.766   1.608  0.0000  0.0000  0.0000
16734TPS    HA522025   9.060   0.853   1.663  0.0000  0.0000  0.0000
16734TPS    CA422026   9.005   0.645   1.676  0.0000  0.0000  0.0000
16734TPS    HA422027   9.024   0.639   1.783  0.0000  0.0000  0.0000
16734TPS    CA322028   8.958   0.533   1.606  0.0000  0.0000  0.0000
16734TPS    HA322029   8.941   0.440   1.660  0.0000  0.0000  0.0000
16735TPS    HA222030   3.031   7.447   1.461  0.0000  0.0000  0.0000
16735TPS    CA222031   3.058   7.539   1.512  0.0000  0.0000  0.0000
16735TPS    CA122032   3.083   7.658   1.442  0.0000  0.0000  0.0000
16735TPS     Si22033   3.083   7.658   1.256  0.0000  0.0000  0.0000
16735TPS    CA622034   3.124   7.772   1.514  0.0000  0.0000  0.0000
16735TPS    HH622035   3.139   7.868   1.465  0.0000  0.0000  0.0000
16735TPS    CA522036   3.147   7.765   1.653  0.0000  0.0000  0.0000
16735TPS    HA522037   3.179   7.852   1.708  0.0000  0.0000  0.0000
16735TPS    CA422038   3.124   7.644   1.721  0.0000  0.0000  0.0000
16735TPS    HA422039   3.143   7.638   1.828  0.0000  0.0000  0.0000
16735TPS    CA322040   3.077   7.532   1.651  0.0000  0.0000  0.0000
16735TPS    HA322041   3.060   7.439   1.705  0.0000  0.0000  0.0000
16736TPS    HA222042   2.525   1.178   8.035  0.0000  0.0000  0.0000
16736TPS    CA222043   2.519   1.083   7.984  0.0000  0.0000  0.0000
16736TPS    CA122044   2.502   0.962   8.054  0.0000  0.0000  0.0000
16736TPS     Si22045   2.502   0.962   8.240  0.0000  0.0000  0.0000
16736TPS    CA622046   2.502   0.841   7.982  0.0000  0.0000  0.0000
16736TPS    HH622047   2.483   0.746   8.031  0.0000  0.0000  0.0000
16736TPS    CA522048   2.525   0.840   7.843  0.0000  0.0000  0.0000
16736TPS    HA522049   2.526   0.747   7.788  0.0000  0.0000  0.0000
16736TPS    CA422050   2.545   0.961   7.775  0.0000  0.0000  0.0000
16736TPS    HA422051   2.565   0.960   7.668  0.0000  0.0000  0.0000
16736TPS    CA322052   2.539   1.082   7.845  0.0000  0.0000  0.0000
16736TPS    HA322053   2.555   1.175   7.791  0.0000  0.0000  0.0000
16737TPS    HA222054   3.057   2.591   8.253  0.0000  0.0000  0.0000
16737TPS    CA222055   3.084   2.499   8.202  0.0000  0.0000  0.0000
16737TPS    CA122056   3.109   2.380   8.272  0.0000  0.0000  0.0000
16737TPS     Si22057   3.109   2.380   8.458  0.0000  0.0000  0.0000
16737TPS    CA622058   3.150   2.266   8.200  0.0000  0.0000  0.0000
16737TPS    HH622059   3.165   2.170   8.249  0.0000  0.0000  0.0000
16737TPS    CA522060   3.173   2.273   8.061  0.0000  0.0000  0.0000
16737TPS    HA522061   3.205   2.186   8.006  0.0000  0.0000  0.0000
16737TPS    CA422062   3.150   2.394   7.993  0.0000  0.0000  0.0000
16737TPS    HA422063   3.169   2.400   7.886  0.0000  0.0000  0.0000
16737TPS    CA322064   3.103   2.506   8.063  0.0000  0.0000  0.0000
16737TPS    HA322065   3.086   2.599   8.009  0.0000  0.0000  0.0000
16738TPS    HA222066   9.256   9.478   8.156  0.0000  0.0000  0.0000
16738TPS    CA222067   9.283   9.386   8.105  0.0000  0.0000  0.0000
16738TPS    CA122068   9.308   9.267   8.175  0.0000  0.0000  0.0000
16738TPS     Si22069   9.308   9.267   8.361  0.0000  0.0000  0.0000
16738TPS    CA622070   9.349   9.153   8.103  0.0000  0.0000  0.0000
16738TPS    HH622071   9.364   9.057   8.152  0.0000  0.0000  0.0000
16738TPS    CA522072   9.372   9.160   7.964  0.0000  0.0000  0.0000
16738TPS    HA522073   9.404   9.073   7.909  0.0000  0.0000  0.0000
16738TPS    CA422074   9.349   9.281   7.896  0.0000  0.0000  0.0000
16738TPS    HA422075   9.368   9.287   7.789  0.0000  0.0000  0.0000
16738TPS    CA322076   9.302   9.393   7.966  0.0000  0.0000  0.0000
16738TPS    HA322077   9.285   9.486   7.912  0.0000  0.0000  0.0000
16739TPS    HA222078   9.430   4.858   1.525  0.0000  0.0000  0.0000
16739TPS    CA222079   9.457   4.950   1.576  0.0000  0.0000  0.0000
16739TPS    CA122080   9.482   5.069   1.506  0.0000  0.0000  0.0000
16739TPS     Si22081   9.482   5.069   1.320  0.0000  0.0000  0.0000
16739TPS    CA622082   9.523   5.183   1.578  0.0000  0.0000  0.0000
16739TPS    HH622083   9.538   5.279   1.529  0.0000  0.0000  0.0000
16739TPS    CA522084   9.546   5.176   1.717  0.0000  0.0000  0.0000
16739TPS    HA522085   9.578   5.263   1.772  0.0000  0.0000  0.0000
16739TPS    CA422086   9.523   5.055   1.785  0.0000  0.0000  0.0000
16739TPS    HA422087   9.542   5.049   1.892  0.0000  0.0000  0.0000
16739TPS    CA322088   9.476   4.943   1.715  0.0000  0.0000  0.0000
16739TPS    HA322089   9.459   4.850   1.769  0.0000  0.0000  0.0000
16740TPS    HA222090   7.339   4.250   8.135  0.0000  0.0000  0.0000
16740TPS    CA222091   7.366   4.158   8.084  0.0000  0.0000  0.0000
16740TPS    CA122092   7.391   4.039   8.154  0.0000  0.0000  0.0000
16740TPS     Si22093   7.391   4.039   8.340  0.0000  0.0000  0.0000
16740TPS    CA622094   7.432   3.925   8.082  0.0000  0.0000  0.0000
16740TPS    HH622095   7.447   3.829   8.131  0.0000  0.0000  0.0000
16740TPS    CA522096   7.455   3.932   7.943  0.0000  0.0000  0.0000
16740TPS    HA522097   7.487   3.845   7.888  0.0000  0.0000  0.0000
16740TPS    CA422098   7.432   4.053   7.875  0.0000  0.0000  0.0000
16740TPS    HA422099   7.451   4.059   7.768  0.0000  0.0000  0.0000
16740TPS    CA322100   7.385   4.165   7.945  0.0000  0.0000  0.0000
16740TPS    HA322101   7.368   4.258   7.891  0.0000  0.0000  0.0000
16741TPS    HA222102   8.816   6.735   8.221  0.0000  0.0000  0.0000
16741TPS    CA222103   8.843   6.643   8.170  0.0000  0.0000  0.0000
16741TPS    CA122104   8.868   6.524   8.240  0.0000  0.0000  0.0000
16741TPS     Si22105   8.868   6.524   8.426  0.0000  0.0000  0.0000
16741TPS    CA622106   8.909   6.410   8.168  0.0000  0.0000  0.0000
16741TPS    HH622107   8.924   6.314   8.217  0.0000  0.0000  0.0000
16741TPS    CA522108   8.932   6.417   8.029  0.0000  0.0000  0.0000
16741TPS    HA522109   8.964   6.330   7.974  0.0000  0.0000  0.0000
16741TPS    CA422110   8.909   6.538   7.961  0.0000  0.0000  0.0000
16741TPS    HA422111   8.928   6.544   7.854  0.0000  0.0000  0.0000
16741TPS    CA322112   8.862   6.650   8.031  0.0000  0.0000  0.0000
16741TPS    HA322113   8.845   6.743   7.977  0.0000  0.0000  0.0000
16742TPS    HA222114   3.322   8.684   1.561  0.0000  0.0000  0.0000
16742TPS    CA222115   3.349   8.776   1.612  0.0000  0.0000  0.0000
16742TPS    CA122116   3.374   8.895   1.542  0.0000  0.0000  0.0000
16742TPS     Si22117   3.374   8.895   1.356  0.0000  0.0000  0.0000
16742TPS    CA622118   3.415   9.009   1.614  0.0000  0.0000  0.0000
16742TPS    HH622119   3.430   9.105   1.565  0.0000  0.0000  0.0000
16742TPS    CA522120   3.438   9.002   1.753  0.0000  0.0000  0.0000
16742TPS    HA522121   3.470   9.089   1.808  0.0000  0.0000  0.0000
16742TPS    CA422122   3.415   8.881   1.821  0.0000  0.0000  0.0000
16742TPS    HA422123   3.434   8.875   1.928  0.0000  0.0000  0.0000
16742TPS    CA322124   3.368   8.769   1.751  0.0000  0.0000  0.0000
16742TPS    HA322125   3.351   8.676   1.805  0.0000  0.0000  0.0000
16743TPS    HA222126   3.059   7.931   1.427  0.0000  0.0000  0.0000
16743TPS    CA222127   3.053   8.026   1.478  0.0000  0.0000  0.0000
16743TPS    CA122128   3.036   8.147   1.408  0.0000  0.0000  0.0000
16743TPS     Si22129   3.036   8.147   1.222  0.0000  0.0000  0.0000
16743TPS    CA622130   3.036   8.268   1.480  0.0000  0.0000  0.0000
16743TPS    HH622131   3.017   8.363   1.431  0.0000  0.0000  0.0000
16743TPS    CA522132   3.059   8.269   1.619  0.0000  0.0000  0.0000
16743TPS    HA522133   3.060   8.362   1.674  0.0000  0.0000  0.0000
16743TPS    CA422134   3.079   8.148   1.687  0.0000  0.0000  0.0000
16743TPS    HA422135   3.099   8.149   1.794  0.0000  0.0000  0.0000
16743TPS    CA322136   3.073   8.027   1.617  0.0000  0.0000  0.0000
16743TPS    HA322137   3.089   7.934   1.671  0.0000  0.0000  0.0000
16744TPS    HA222138   3.815   2.912   7.999  0.0000  0.0000  0.0000
16744TPS    CA222139   3.842   2.820   7.948  0.0000  0.0000  0.0000
16744TPS    CA122140   3.867   2.701   8.018  0.0000  0.0000  0.0000
16744TPS     Si22141   3.867   2.701   8.204  0.0000  0.0000  0.0000
16744TPS    CA622142   3.908   2.587   7.946  0.0000  0.0000  0.0000
16744TPS    HH622143   3.923   2.491   7.995  0.0000  0.0000  0.0000
16744TPS    CA522144   3.931   2.594   7.807  0.0000  0.0000  0.0000
16744TPS    HA522145   3.963   2.507   7.752  0.0000  0.0000  0.0000
16744TPS    CA422146   3.908   2.715   7.739  0.0000  0.0000  0.0000
16744TPS    HA422147   3.927   2.721   7.632  0.0000  0.0000  0.0000
16744TPS    CA322148   3.861   2.827   7.809  0.0000  0.0000  0.0000
16744TPS    HA322149   3.844   2.920   7.755  0.0000  0.0000  0.0000
16745TPS    HA222150   3.808   9.146   1.505  0.0000  0.0000  0.0000
16745TPS    CA222151   3.835   9.238   1.556  0.0000  0.0000  0.0000
16745TPS    CA122152   3.860   9.357   1.486  0.0000  0.0000  0.0000
16745TPS     Si22153   3.860   9.357   1.300  0.0000  0.0000  0.0000
16745TPS    CA622154   3.901   9.471   1.558  0.0000  0.0000  0.0000
16745TPS    HH622155   3.916   9.567   1.509  0.0000  0.0000  0.0000
16745TPS    CA522156   3.924   9.464   1.697  0.0000  0.0000  0.0000
16745TPS    HA522157   3.956   9.551   1.752  0.0000  0.0000  0.0000
16745TPS    CA422158   3.901   9.343   1.765  0.0000  0.0000  0.0000
16745TPS    HA422159   3.920   9.337   1.872  0.0000  0.0000  0.0000
16745TPS    CA322160   3.854   9.231   1.695  0.0000  0.0000  0.0000
16745TPS    HA322161   3.837   9.138   1.749  0.0000  0.0000  0.0000
16746TPS    HA222162   9.121   2.803   8.123  0.0000  0.0000  0.0000
16746TPS    CA222163   9.148   2.711   8.072  0.0000  0.0000  0.0000
16746TPS    CA122164   9.173   2.592   8.142  0.0000  0.0000  0.0000
16746TPS     Si22165   9.173   2.592   8.328  0.0000  0.0000  0.0000
16746TPS    CA622166   9.214   2.478   8.070  0.0000  0.0000  0.0000
16746TPS    HH622167   9.229   2.382   8.119  0.0000  0.0000  0.0000
16746TPS    CA522168   9.237   2.485   7.931  0.0000  0.0000  0.0000
16746TPS    HA522169   9.269   2.398   7.876  0.0000  0.0000  0.0000
16746TPS    CA422170   9.214   2.606   7.863  0.0000  0.0000  0.0000
16746TPS    HA422171   9.233   2.612   7.756  0.0000  0.0000  0.0000
16746TPS    CA322172   9.167   2.718   7.933  0.0000  0.0000  0.0000
16746TPS    HA322173   9.150   2.811   7.879  0.0000  0.0000  0.0000
16747TPS    HA222174   1.923   3.989   1.580  0.0000  0.0000  0.0000
16747TPS    CA222175   1.917   4.084   1.631  0.0000  0.0000  0.0000
16747TPS    CA122176   1.900   4.205   1.561  0.0000  0.0000  0.0000
16747TPS     Si22177   1.900   4.205   1.375  0.0000  0.0000  0.0000
16747TPS    CA622178   1.900   4.326   1.633  0.0000  0.0000  0.0000
16747TPS    HH622179   1.881   4.421   1.584  0.0000  0.0000  0.0000
16747TPS    CA522180   1.923   4.327   1.772  0.0000  0.0000  0.0000
16747TPS    HA522181   1.924   4.420   1.827  0.0000  0.0000  0.0000
16747TPS    CA422182   1.943   4.206   1.840  0.0000  0.0000  0.0000
16747TPS    HA422183   1.963   4.207   1.947  0.0000  0.0000  0.0000
16747TPS    CA322184   1.937   4.085   1.770  0.0000  0.0000  0.0000
16747TPS    HA322185   1.953   3.992   1.824  0.0000  0.0000  0.0000
16748TPS    HA222186   6.883   7.711   1.418  0.0000  0.0000  0.0000
16748TPS    CA222187   6.910   7.803   1.469  0.0000  0.0000  0.0000
16748TPS    CA122188   6.935   7.922   1.399  0.0000  0.0000  0.0000
16748TPS     Si22189   6.935   7.922   1.213  0.0000  0.0000  0.0000
16748TPS    CA622190   6.976   8.036   1.471  0.0000  0.0000  0.0000
16748TPS    HH622191   6.991   8.132   1.422  0.0000  0.0000  0.0000
16748TPS    CA522192   6.999   8.029   1.610  0.0000  0.0000  0.0000
16748TPS    HA522193   7.031   8.116   1.665  0.0000  0.0000  0.0000
16748TPS    CA422194   6.976   7.908   1.678  0.0000  0.0000  0.0000
16748TPS    HA422195   6.995   7.902   1.785  0.0000  0.0000  0.0000
16748TPS    CA322196   6.929   7.796   1.608  0.0000  0.0000  0.0000
16748TPS    HA322197   6.912   7.703   1.662  0.0000  0.0000  0.0000
16749TPS    HA222198   7.686   1.099   8.099  0.0000  0.0000  0.0000
16749TPS    CA222199   7.713   1.007   8.048  0.0000  0.0000  0.0000
16749TPS    CA122200   7.738   0.888   8.118  0.0000  0.0000  0.0000
16749TPS     Si22201   7.738   0.888   8.304  0.0000  0.0000  0.0000
16749TPS    CA622202   7.779   0.774   8.046  0.0000  0.0000  0.0000
16749TPS    HH622203   7.794   0.678   8.095  0.0000  0.0000  0.0000
16749TPS    CA522204   7.802   0.781   7.907  0.0000  0.0000  0.0000
16749TPS    HA522205   7.834   0.694   7.852  0.0000  0.0000  0.0000
16749TPS    CA422206   7.779   0.902   7.839  0.0000  0.0000  0.0000
16749TPS    HA422207   7.798   0.908   7.732  0.0000  0.0000  0.0000
16749TPS    CA322208   7.732   1.014   7.909  0.0000  0.0000  0.0000
16749TPS    HA322209   7.715   1.107   7.855  0.0000  0.0000  0.0000
16750TPS    HA222210   3.685   8.617   8.086  0.0000  0.0000  0.0000
16750TPS    CA222211   3.712   8.525   8.035  0.0000  0.0000  0.0000
16750TPS    CA122212   3.737   8.406   8.105  0.0000  0.0000  0.0000
16750TPS     Si22213   3.737   8.406   8.291  0.0000  0.0000  0.0000
16750TPS    CA622214   3.778   8.292   8.033  0.0000  0.0000  0.0000
16750TPS    HH622215   3.793   8.196   8.082  0.0000  0.0000  0.0000
16750TPS    CA522216   3.801   8.299   7.894  0.0000  0.0000  0.0000
16750TPS    HA522217   3.833   8.212   7.839  0.0000  0.0000  0.0000
16750TPS    CA422218   3.778   8.420   7.826  0.0000  0.0000  0.0000
16750TPS    HA422219   3.797   8.426   7.719  0.0000  0.0000  0.0000
16750TPS    CA322220   3.731   8.532   7.896  0.0000  0.0000  0.0000
16750TPS    HA322221   3.714   8.625   7.842  0.0000  0.0000  0.0000
16751TPS    HA222222   3.941   8.428   8.089  0.0000  0.0000  0.0000
16751TPS    CA222223   3.968   8.336   8.038  0.0000  0.0000  0.0000
16751TPS    CA122224   3.993   8.217   8.108  0.0000  0.0000  0.0000
16751TPS     Si22225   3.993   8.217   8.294  0.0000  0.0000  0.0000
16751TPS    CA622226   4.034   8.103   8.036  0.0000  0.0000  0.0000
16751TPS    HH622227   4.049   8.007   8.085  0.0000  0.0000  0.0000
16751TPS    CA522228   4.057   8.110   7.897  0.0000  0.0000  0.0000
16751TPS    HA522229   4.089   8.023   7.842  0.0000  0.0000  0.0000
16751TPS    CA422230   4.034   8.231   7.829  0.0000  0.0000  0.0000
16751TPS    HA422231   4.053   8.237   7.722  0.0000  0.0000  0.0000
16751TPS    CA322232   3.987   8.343   7.899  0.0000  0.0000  0.0000
16751TPS    HA322233   3.970   8.436   7.845  0.0000  0.0000  0.0000
16752TPS    HA222234   8.109   5.265   1.573  0.0000  0.0000  0.0000
16752TPS    CA222235   8.202   5.288   1.624  0.0000  0.0000  0.0000
16752TPS    CA122236   8.318   5.326   1.554  0.0000  0.0000  0.0000
16752TPS     Si22237   8.318   5.326   1.368  0.0000  0.0000  0.0000
16752TPS    CA622238   8.437   5.348   1.626  0.0000  0.0000  0.0000
16752TPS    HH622239   8.528   5.382   1.577  0.0000  0.0000  0.0000
16752TPS    CA522240   8.442   5.324   1.765  0.0000  0.0000  0.0000
16752TPS    HA522241   8.534   5.340   1.820  0.0000  0.0000  0.0000
16752TPS    CA422242   8.327   5.284   1.833  0.0000  0.0000  0.0000
16752TPS    HA422243   8.331   5.264   1.940  0.0000  0.0000  0.0000
16752TPS    CA322244   8.206   5.268   1.763  0.0000  0.0000  0.0000
16752TPS    HA322245   8.117   5.237   1.817  0.0000  0.0000  0.0000
16753TPS    HA222246   6.702   1.278   1.476  0.0000  0.0000  0.0000
16753TPS    CA222247   6.729   1.370   1.527  0.0000  0.0000  0.0000
16753TPS    CA122248   6.754   1.489   1.457  0.0000  0.0000  0.0000
16753TPS     Si22249   6.754   1.489   1.271  0.0000  0.0000  0.0000
16753TPS    CA622250   6.795   1.603   1.529  0.0000  0.0000  0.0000
16753TPS    HH622251   6.810   1.699   1.480  0.0000  0.0000  0.0000
16753TPS    CA522252   6.818   1.596   1.668  0.0000  0.0000  0.0000
16753TPS    HA522253   6.850   1.683   1.723  0.0000  0.0000  0.0000
16753TPS    CA422254   6.795   1.475   1.736  0.0000  0.0000  0.0000
16753TPS    HA422255   6.814   1.469   1.843  0.0000  0.0000  0.0000
16753TPS    CA322256   6.748   1.363   1.666  0.0000  0.0000  0.0000
16753TPS    HA322257   6.731   1.270   1.720  0.0000  0.0000  0.0000
16754TPS    HA222258   8.200   5.950   1.477  0.0000  0.0000  0.0000
16754TPS    CA222259   8.227   6.042   1.528  0.0000  0.0000  0.0000
16754TPS    CA122260   8.252   6.161   1.458  0.0000  0.0000  0.0000
16754TPS     Si22261   8.252   6.161   1.272  0.0000  0.0000  0.0000
16754TPS    CA622262   8.293   6.275   1.530  0.0000  0.0000  0.0000
16754TPS    HH622263   8.308   6.371   1.481  0.0000  0.0000  0.0000
16754TPS    CA522264   8.316   6.268   1.669  0.0000  0.0000  0.0000
16754TPS    HA522265   8.348   6.355   1.724  0.0000  0.0000  0.0000
16754TPS    CA422266   8.293   6.147   1.737  0.0000  0.0000  0.0000
16754TPS    HA422267   8.312   6.141   1.844  0.0000  0.0000  0.0000
16754TPS    CA322268   8.246   6.035   1.667  0.0000  0.0000  0.0000
16754TPS    HA322269   8.229   5.942   1.721  0.0000  0.0000  0.0000
16755TPS    HA222270   0.114   2.524   1.441  0.0000  0.0000  0.0000
16755TPS    CA222271   0.141   2.616   1.492  0.0000  0.0000  0.0000
16755TPS    CA122272   0.166   2.735   1.422  0.0000  0.0000  0.0000
16755TPS     Si22273   0.166   2.735   1.236  0.0000  0.0000  0.0000
16755TPS    CA622274   0.207   2.849   1.494  0.0000  0.0000  0.0000
16755TPS    HH622275   0.222   2.945   1.445  0.0000  0.0000  0.0000
16755TPS    CA522276   0.230   2.842   1.633  0.0000  0.0000  0.0000
16755TPS    HA522277   0.262   2.929   1.688  0.0000  0.0000  0.0000
16755TPS    CA422278   0.207   2.721   1.701  0.0000  0.0000  0.0000
16755TPS    HA422279   0.226   2.715   1.808  0.0000  0.0000  0.0000
16755TPS    CA322280   0.160   2.609   1.631  0.0000  0.0000  0.0000
16755TPS    HA322281   0.143   2.516   1.685  0.0000  0.0000  0.0000
16756TPS    HA222282   2.303   5.991   8.122  0.0000  0.0000  0.0000
16756TPS    CA222283   2.330   5.899   8.071  0.0000  0.0000  0.0000
16756TPS    CA122284   2.355   5.780   8.141  0.0000  0.0000  0.0000
16756TPS     Si22285   2.355   5.780   8.327  0.0000  0.0000  0.0000
16756TPS    CA622286   2.396   5.666   8.069  0.0000  0.0000  0.0000
16756TPS    HH622287   2.411   5.570   8.118  0.0000  0.0000  0.0000
16756TPS    CA522288   2.419   5.673   7.930  0.0000  0.0000  0.0000
16756TPS    HA522289   2.451   5.586   7.875  0.0000  0.0000  0.0000
16756TPS    CA422290   2.396   5.794   7.862  0.0000  0.0000  0.0000
16756TPS    HA422291   2.415   5.800   7.755  0.0000  0.0000  0.0000
16756TPS    CA322292   2.349   5.906   7.932  0.0000  0.0000  0.0000
16756TPS    HA322293   2.332   5.999   7.878  0.0000  0.0000  0.0000
16757TPS    HA222294   4.001   3.851   8.146  0.0000  0.0000  0.0000
16757TPS    CA222295   4.028   3.759   8.095  0.0000  0.0000  0.0000
16757TPS    CA122296   4.053   3.640   8.165  0.0000  0.0000  0.0000
16757TPS     Si22297   4.053   3.640   8.351  0.0000  0.0000  0.0000
16757TPS    CA622298   4.094   3.526   8.093  0.0000  0.0000  0.0000
16757TPS    HH622299   4.109   3.430   8.142  0.0000  0.0000  0.0000
16757TPS    CA522300   4.117   3.533   7.954  0.0000  0.0000  0.0000
16757TPS    HA522301   4.149   3.446   7.899  0.0000  0.0000  0.0000
16757TPS    CA422302   4.094   3.654   7.886  0.0000  0.0000  0.0000
16757TPS    HA422303   4.113   3.660   7.779  0.0000  0.0000  0.0000
16757TPS    CA322304   4.047   3.766   7.956  0.0000  0.0000  0.0000
16757TPS    HA322305   4.030   3.859   7.902  0.0000  0.0000  0.0000
16758TPS    HA222306   8.468   4.196   1.413  0.0000  0.0000  0.0000
16758TPS    CA222307   8.495   4.288   1.464  0.0000  0.0000  0.0000
16758TPS    CA122308   8.520   4.407   1.394  0.0000  0.0000  0.0000
16758TPS     Si22309   8.520   4.407   1.208  0.0000  0.0000  0.0000
16758TPS    CA622310   8.561   4.521   1.466  0.0000  0.0000  0.0000
16758TPS    HH622311   8.576   4.617   1.417  0.0000  0.0000  0.0000
16758TPS    CA522312   8.584   4.514   1.605  0.0000  0.0000  0.0000
16758TPS    HA522313   8.616   4.601   1.660  0.0000  0.0000  0.0000
16758TPS    CA422314   8.561   4.393   1.673  0.0000  0.0000  0.0000
16758TPS    HA422315   8.580   4.387   1.780  0.0000  0.0000  0.0000
16758TPS    CA322316   8.514   4.281   1.603  0.0000  0.0000  0.0000
16758TPS    HA322317   8.497   4.188   1.657  0.0000  0.0000  0.0000
16759TPS    HA222318   5.073   0.287   1.452  0.0000  0.0000  0.0000
16759TPS    CA222319   5.100   0.379   1.503  0.0000  0.0000  0.0000
16759TPS    CA122320   5.125   0.498   1.433  0.0000  0.0000  0.0000
16759TPS     Si22321   5.125   0.498   1.247  0.0000  0.0000  0.0000
16759TPS    CA622322   5.166   0.612   1.505  0.0000  0.0000  0.0000
16759TPS    HH622323   5.181   0.708   1.456  0.0000  0.0000  0.0000
16759TPS    CA522324   5.189   0.605   1.644  0.0000  0.0000  0.0000
16759TPS    HA522325   5.221   0.692   1.699  0.0000  0.0000  0.0000
16759TPS    CA422326   5.166   0.484   1.712  0.0000  0.0000  0.0000
16759TPS    HA422327   5.185   0.478   1.819  0.0000  0.0000  0.0000
16759TPS    CA322328   5.119   0.372   1.642  0.0000  0.0000  0.0000
16759TPS    HA322329   5.102   0.279   1.696  0.0000  0.0000  0.0000
16760TPS    HA222330   9.069   6.796   1.441  0.0000  0.0000  0.0000
16760TPS    CA222331   9.096   6.888   1.492  0.0000  0.0000  0.0000
16760TPS    CA122332   9.121   7.007   1.422  0.0000  0.0000  0.0000
16760TPS     Si22333   9.121   7.007   1.236  0.0000  0.0000  0.0000
16760TPS    CA622334   9.162   7.121   1.494  0.0000  0.0000  0.0000
16760TPS    HH622335   9.177   7.217   1.445  0.0000  0.0000  0.0000
16760TPS    CA522336   9.185   7.114   1.633  0.0000  0.0000  0.0000
16760TPS    HA522337   9.217   7.201   1.688  0.0000  0.0000  0.0000
16760TPS    CA422338   9.162   6.993   1.701  0.0000  0.0000  0.0000
16760TPS    HA422339   9.181   6.987   1.808  0.0000  0.0000  0.0000
16760TPS    CA322340   9.115   6.881   1.631  0.0000  0.0000  0.0000
16760TPS    HA322341   9.098   6.788   1.685  0.0000  0.0000  0.0000
16761TPS    HA222342   3.427   6.586   1.538  0.0000  0.0000  0.0000
16761TPS    CA222343   3.454   6.678   1.589  0.0000  0.0000  0.0000
16761TPS    CA122344   3.479   6.797   1.519  0.0000  0.0000  0.0000
16761TPS     Si22345   3.479   6.797   1.333  0.0000  0.0000  0.0000
16761TPS    CA622346   3.520   6.911   1.591  0.0000  0.0000  0.0000
16761TPS    HH622347   3.535   7.007   1.542  0.0000  0.0000  0.0000
16761TPS    CA522348   3.543   6.904   1.730  0.0000  0.0000  0.0000
16761TPS    HA522349   3.575   6.991   1.785  0.0000  0.0000  0.0000
16761TPS    CA422350   3.520   6.783   1.798  0.0000  0.0000  0.0000
16761TPS    HA422351   3.539   6.777   1.905  0.0000  0.0000  0.0000
16761TPS    CA322352   3.473   6.671   1.728  0.0000  0.0000  0.0000
16761TPS    HA322353   3.456   6.578   1.782  0.0000  0.0000  0.0000
16762TPS    HA222354   1.316   8.287   8.268  0.0000  0.0000  0.0000
16762TPS    CA222355   1.343   8.195   8.217  0.0000  0.0000  0.0000
16762TPS    CA122356   1.368   8.076   8.287  0.0000  0.0000  0.0000
16762TPS     Si22357   1.368   8.076   8.473  0.0000  0.0000  0.0000
16762TPS    CA622358   1.409   7.962   8.215  0.0000  0.0000  0.0000
16762TPS    HH622359   1.424   7.866   8.264  0.0000  0.0000  0.0000
16762TPS    CA522360   1.432   7.969   8.076  0.0000  0.0000  0.0000
16762TPS    HA522361   1.464   7.882   8.021  0.0000  0.0000  0.0000
16762TPS    CA422362   1.409   8.090   8.008  0.0000  0.0000  0.0000
16762TPS    HA422363   1.428   8.096   7.901  0.0000  0.0000  0.0000
16762TPS    CA322364   1.362   8.202   8.078  0.0000  0.0000  0.0000
16762TPS    HA322365   1.345   8.295   8.024  0.0000  0.0000  0.0000
16763TPS    HA222366   7.894   5.637   8.237  0.0000  0.0000  0.0000
16763TPS    CA222367   7.855   5.550   8.186  0.0000  0.0000  0.0000
16763TPS    CA122368   7.798   5.442   8.256  0.0000  0.0000  0.0000
16763TPS     Si22369   7.798   5.442   8.442  0.0000  0.0000  0.0000
16763TPS    CA622370   7.756   5.328   8.184  0.0000  0.0000  0.0000
16763TPS    HH622371   7.706   5.245   8.233  0.0000  0.0000  0.0000
16763TPS    CA522372   7.778   5.320   8.045  0.0000  0.0000  0.0000
16763TPS    HA522373   7.747   5.231   7.990  0.0000  0.0000  0.0000
16763TPS    CA422374   7.838   5.426   7.977  0.0000  0.0000  0.0000
16763TPS    HA422375   7.857   5.419   7.870  0.0000  0.0000  0.0000
16763TPS    CA322376   7.874   5.542   8.047  0.0000  0.0000  0.0000
16763TPS    HA322377   7.921   5.625   7.993  0.0000  0.0000  0.0000
16764TPS    HA222378   1.479   5.771   1.403  0.0000  0.0000  0.0000
16764TPS    CA222379   1.473   5.866   1.454  0.0000  0.0000  0.0000
16764TPS    CA122380   1.456   5.987   1.384  0.0000  0.0000  0.0000
16764TPS     Si22381   1.456   5.987   1.198  0.0000  0.0000  0.0000
16764TPS    CA622382   1.456   6.108   1.456  0.0000  0.0000  0.0000
16764TPS    HH622383   1.437   6.203   1.407  0.0000  0.0000  0.0000
16764TPS    CA522384   1.479   6.109   1.595  0.0000  0.0000  0.0000
16764TPS    HA522385   1.480   6.202   1.650  0.0000  0.0000  0.0000
16764TPS    CA422386   1.499   5.988   1.663  0.0000  0.0000  0.0000
16764TPS    HA422387   1.519   5.989   1.770  0.0000  0.0000  0.0000
16764TPS    CA322388   1.493   5.867   1.593  0.0000  0.0000  0.0000
16764TPS    HA322389   1.509   5.774   1.647  0.0000  0.0000  0.0000
16765TPS    HA222390   4.346   8.297   1.490  0.0000  0.0000  0.0000
16765TPS    CA222391   4.373   8.389   1.541  0.0000  0.0000  0.0000
16765TPS    CA122392   4.398   8.508   1.471  0.0000  0.0000  0.0000
16765TPS     Si22393   4.398   8.508   1.285  0.0000  0.0000  0.0000
16765TPS    CA622394   4.439   8.622   1.543  0.0000  0.0000  0.0000
16765TPS    HH622395   4.454   8.718   1.494  0.0000  0.0000  0.0000
16765TPS    CA522396   4.462   8.615   1.682  0.0000  0.0000  0.0000
16765TPS    HA522397   4.494   8.702   1.737  0.0000  0.0000  0.0000
16765TPS    CA422398   4.439   8.494   1.750  0.0000  0.0000  0.0000
16765TPS    HA422399   4.458   8.488   1.857  0.0000  0.0000  0.0000
16765TPS    CA322400   4.392   8.382   1.680  0.0000  0.0000  0.0000
16765TPS    HA322401   4.375   8.289   1.734  0.0000  0.0000  0.0000
16766TPS    HA222402   6.154   3.543   8.269  0.0000  0.0000  0.0000
16766TPS    CA222403   6.181   3.451   8.218  0.0000  0.0000  0.0000
16766TPS    CA122404   6.206   3.332   8.288  0.0000  0.0000  0.0000
16766TPS     Si22405   6.206   3.332   8.474  0.0000  0.0000  0.0000
16766TPS    CA622406   6.247   3.218   8.216  0.0000  0.0000  0.0000
16766TPS    HH622407   6.262   3.122   8.265  0.0000  0.0000  0.0000
16766TPS    CA522408   6.270   3.225   8.077  0.0000  0.0000  0.0000
16766TPS    HA522409   6.302   3.138   8.022  0.0000  0.0000  0.0000
16766TPS    CA422410   6.247   3.346   8.009  0.0000  0.0000  0.0000
16766TPS    HA422411   6.266   3.352   7.902  0.0000  0.0000  0.0000
16766TPS    CA322412   6.200   3.458   8.079  0.0000  0.0000  0.0000
16766TPS    HA322413   6.183   3.551   8.025  0.0000  0.0000  0.0000
16767TPS    HA222414   0.615   1.466   8.066  0.0000  0.0000  0.0000
16767TPS    CA222415   0.642   1.374   8.015  0.0000  0.0000  0.0000
16767TPS    CA122416   0.667   1.255   8.085  0.0000  0.0000  0.0000
16767TPS     Si22417   0.667   1.255   8.271  0.0000  0.0000  0.0000
16767TPS    CA622418   0.708   1.141   8.013  0.0000  0.0000  0.0000
16767TPS    HH622419   0.723   1.045   8.062  0.0000  0.0000  0.0000
16767TPS    CA522420   0.731   1.148   7.874  0.0000  0.0000  0.0000
16767TPS    HA522421   0.763   1.061   7.819  0.0000  0.0000  0.0000
16767TPS    CA422422   0.708   1.269   7.806  0.0000  0.0000  0.0000
16767TPS    HA422423   0.727   1.275   7.699  0.0000  0.0000  0.0000
16767TPS    CA322424   0.661   1.381   7.876  0.0000  0.0000  0.0000
16767TPS    HA322425   0.644   1.474   7.822  0.0000  0.0000  0.0000
16768TPS    HA222426   1.927   0.221   8.066  0.0000  0.0000  0.0000
16768TPS    CA222427   1.921   0.126   8.015  0.0000  0.0000  0.0000
16768TPS    CA122428   1.904   0.005   8.085  0.0000  0.0000  0.0000
16768TPS     Si22429   1.904   0.005   8.271  0.0000  0.0000  0.0000
16768TPS    CA622430   1.904  -0.116   8.013  0.0000  0.0000  0.0000
16768TPS    HH622431   1.885  -0.211   8.062  0.0000  0.0000  0.0000
16768TPS    CA522432   1.927  -0.117   7.874  0.0000  0.0000  0.0000
16768TPS    HA522433   1.928  -0.210   7.819  0.0000  0.0000  0.0000
16768TPS    CA422434   1.947   0.004   7.806  0.0000  0.0000  0.0000
16768TPS    HA422435   1.967   0.003   7.699  0.0000  0.0000  0.0000
16768TPS    CA322436   1.941   0.125   7.876  0.0000  0.0000  0.0000
16768TPS    HA322437   1.957   0.218   7.822  0.0000  0.0000  0.0000
16769TPS    HA222438   2.141   2.638   8.292  0.0000  0.0000  0.0000
16769TPS    CA222439   2.168   2.546   8.241  0.0000  0.0000  0.0000
16769TPS    CA122440   2.193   2.427   8.311  0.0000  0.0000  0.0000
16769TPS     Si22441   2.193   2.427   8.497  0.0000  0.0000  0.0000
16769TPS    CA622442   2.234   2.313   8.239  0.0000  0.0000  0.0000
16769TPS    HH622443   2.249   2.217   8.288  0.0000  0.0000  0.0000
16769TPS    CA522444   2.257   2.320   8.100  0.0000  0.0000  0.0000
16769TPS    HA522445   2.289   2.233   8.045  0.0000  0.0000  0.0000
16769TPS    CA422446   2.234   2.441   8.032  0.0000  0.0000  0.0000
16769TPS    HA422447   2.253   2.447   7.925  0.0000  0.0000  0.0000
16769TPS    CA322448   2.187   2.553   8.102  0.0000  0.0000  0.0000
16769TPS    HA322449   2.170   2.646   8.048  0.0000  0.0000  0.0000
16770TPS    HA222450   2.042   0.677   8.122  0.0000  0.0000  0.0000
16770TPS    CA222451   2.069   0.585   8.071  0.0000  0.0000  0.0000
16770TPS    CA122452   2.094   0.466   8.141  0.0000  0.0000  0.0000
16770TPS     Si22453   2.094   0.466   8.327  0.0000  0.0000  0.0000
16770TPS    CA622454   2.135   0.352   8.069  0.0000  0.0000  0.0000
16770TPS    HH622455   2.150   0.256   8.118  0.0000  0.0000  0.0000
16770TPS    CA522456   2.158   0.359   7.930  0.0000  0.0000  0.0000
16770TPS    HA522457   2.190   0.272   7.875  0.0000  0.0000  0.0000
16770TPS    CA422458   2.135   0.480   7.862  0.0000  0.0000  0.0000
16770TPS    HA422459   2.154   0.486   7.755  0.0000  0.0000  0.0000
16770TPS    CA322460   2.088   0.592   7.932  0.0000  0.0000  0.0000
16770TPS    HA322461   2.071   0.685   7.878  0.0000  0.0000  0.0000
16771TPS    HA222462   2.334   3.003   8.065  0.0000  0.0000  0.0000
16771TPS    CA222463   2.268   2.935   8.014  0.0000  0.0000  0.0000
16771TPS    CA122464   2.177   2.853   8.084  0.0000  0.0000  0.0000
16771TPS     Si22465   2.177   2.853   8.270  0.0000  0.0000  0.0000
16771TPS    CA622466   2.099   2.760   8.012  0.0000  0.0000  0.0000
16771TPS    HH622467   2.024   2.699   8.061  0.0000  0.0000  0.0000
16771TPS    CA522468   2.116   2.745   7.873  0.0000  0.0000  0.0000
16771TPS    HA522469   2.057   2.673   7.818  0.0000  0.0000  0.0000
16771TPS    CA422470   2.209   2.824   7.805  0.0000  0.0000  0.0000
16771TPS    HA422471   2.224   2.811   7.698  0.0000  0.0000  0.0000
16771TPS    CA322472   2.283   2.921   7.875  0.0000  0.0000  0.0000
16771TPS    HA322473   2.355   2.983   7.821  0.0000  0.0000  0.0000
16772TPS    HA222474   2.940   9.042   1.582  0.0000  0.0000  0.0000
16772TPS    CA222475   3.033   9.065   1.633  0.0000  0.0000  0.0000
16772TPS    CA122476   3.149   9.103   1.563  0.0000  0.0000  0.0000
16772TPS     Si22477   3.149   9.103   1.377  0.0000  0.0000  0.0000
16772TPS    CA622478   3.268   9.125   1.635  0.0000  0.0000  0.0000
16772TPS    HH622479   3.359   9.159   1.586  0.0000  0.0000  0.0000
16772TPS    CA522480   3.273   9.101   1.774  0.0000  0.0000  0.0000
16772TPS    HA522481   3.365   9.117   1.829  0.0000  0.0000  0.0000
16772TPS    CA422482   3.158   9.061   1.842  0.0000  0.0000  0.0000
16772TPS    HA422483   3.162   9.041   1.949  0.0000  0.0000  0.0000
16772TPS    CA322484   3.037   9.045   1.772  0.0000  0.0000  0.0000
16772TPS    HA322485   2.948   9.014   1.826  0.0000  0.0000  0.0000
16773TPS    HA222486   3.126   2.594   1.150  0.0000  0.0000  0.0000
16773TPS    CA222487   3.153   2.686   1.201  0.0000  0.0000  0.0000
16773TPS    CA122488   3.178   2.805   1.131  0.0000  0.0000  0.0000
16773TPS     Si22489   3.178   2.805   0.945  0.0000  0.0000  0.0000
16773TPS    CA622490   3.219   2.919   1.203  0.0000  0.0000  0.0000
16773TPS    HH622491   3.234   3.015   1.154  0.0000  0.0000  0.0000
16773TPS    CA522492   3.242   2.912   1.342  0.0000  0.0000  0.0000
16773TPS    HA522493   3.274   2.999   1.397  0.0000  0.0000  0.0000
16773TPS    CA422494   3.219   2.791   1.410  0.0000  0.0000  0.0000
16773TPS    HA422495   3.238   2.785   1.517  0.0000  0.0000  0.0000
16773TPS    CA322496   3.172   2.679   1.340  0.0000  0.0000  0.0000
16773TPS    HA322497   3.155   2.586   1.394  0.0000  0.0000  0.0000
16774TPS    HA222498   6.291   4.834   1.404  0.0000  0.0000  0.0000
16774TPS    CA222499   6.318   4.926   1.455  0.0000  0.0000  0.0000
16774TPS    CA122500   6.343   5.045   1.385  0.0000  0.0000  0.0000
16774TPS     Si22501   6.343   5.045   1.199  0.0000  0.0000  0.0000
16774TPS    CA622502   6.384   5.159   1.457  0.0000  0.0000  0.0000
16774TPS    HH622503   6.399   5.255   1.408  0.0000  0.0000  0.0000
16774TPS    CA522504   6.407   5.152   1.596  0.0000  0.0000  0.0000
16774TPS    HA522505   6.439   5.239   1.651  0.0000  0.0000  0.0000
16774TPS    CA422506   6.384   5.031   1.664  0.0000  0.0000  0.0000
16774TPS    HA422507   6.403   5.025   1.771  0.0000  0.0000  0.0000
16774TPS    CA322508   6.337   4.919   1.594  0.0000  0.0000  0.0000
16774TPS    HA322509   6.320   4.826   1.648  0.0000  0.0000  0.0000
16775TPS    HA222510   2.914   8.878   8.168  0.0000  0.0000  0.0000
16775TPS    CA222511   2.875   8.791   8.117  0.0000  0.0000  0.0000
16775TPS    CA122512   2.818   8.683   8.187  0.0000  0.0000  0.0000
16775TPS     Si22513   2.818   8.683   8.373  0.0000  0.0000  0.0000
16775TPS    CA622514   2.776   8.569   8.115  0.0000  0.0000  0.0000
16775TPS    HH622515   2.726   8.486   8.164  0.0000  0.0000  0.0000
16775TPS    CA522516   2.798   8.561   7.976  0.0000  0.0000  0.0000
16775TPS    HA522517   2.767   8.472   7.921  0.0000  0.0000  0.0000
16775TPS    CA422518   2.858   8.667   7.908  0.0000  0.0000  0.0000
16775TPS    HA422519   2.877   8.660   7.801  0.0000  0.0000  0.0000
16775TPS    CA322520   2.894   8.783   7.978  0.0000  0.0000  0.0000
16775TPS    HA322521   2.941   8.866   7.924  0.0000  0.0000  0.0000
16776TPS    HA222522   7.143   0.229   8.159  0.0000  0.0000  0.0000
16776TPS    CA222523   7.170   0.137   8.108  0.0000  0.0000  0.0000
16776TPS    CA122524   7.195   0.018   8.178  0.0000  0.0000  0.0000
16776TPS     Si22525   7.195   0.018   8.364  0.0000  0.0000  0.0000
16776TPS    CA622526   7.236  -0.096   8.106  0.0000  0.0000  0.0000
16776TPS    HH622527   7.251  -0.192   8.155  0.0000  0.0000  0.0000
16776TPS    CA522528   7.259  -0.089   7.967  0.0000  0.0000  0.0000
16776TPS    HA522529   7.291  -0.176   7.912  0.0000  0.0000  0.0000
16776TPS    CA422530   7.236   0.032   7.899  0.0000  0.0000  0.0000
16776TPS    HA422531   7.255   0.038   7.792  0.0000  0.0000  0.0000
16776TPS    CA322532   7.189   0.144   7.969  0.0000  0.0000  0.0000
16776TPS    HA322533   7.172   0.237   7.915  0.0000  0.0000  0.0000
16777TPS    HA222534   4.138   6.925   1.529  0.0000  0.0000  0.0000
16777TPS    CA222535   4.165   7.017   1.580  0.0000  0.0000  0.0000
16777TPS    CA122536   4.190   7.136   1.510  0.0000  0.0000  0.0000
16777TPS     Si22537   4.190   7.136   1.324  0.0000  0.0000  0.0000
16777TPS    CA622538   4.231   7.250   1.582  0.0000  0.0000  0.0000
16777TPS    HH622539   4.246   7.346   1.533  0.0000  0.0000  0.0000
16777TPS    CA522540   4.254   7.243   1.721  0.0000  0.0000  0.0000
16777TPS    HA522541   4.286   7.330   1.776  0.0000  0.0000  0.0000
16777TPS    CA422542   4.231   7.122   1.789  0.0000  0.0000  0.0000
16777TPS    HA422543   4.250   7.116   1.896  0.0000  0.0000  0.0000
16777TPS    CA322544   4.184   7.010   1.719  0.0000  0.0000  0.0000
16777TPS    HA322545   4.167   6.917   1.773  0.0000  0.0000  0.0000
16778TPS    HA222546   5.304   0.757   8.068  0.0000  0.0000  0.0000
16778TPS    CA222547   5.331   0.665   8.017  0.0000  0.0000  0.0000
16778TPS    CA122548   5.356   0.546   8.087  0.0000  0.0000  0.0000
16778TPS     Si22549   5.356   0.546   8.273  0.0000  0.0000  0.0000
16778TPS    CA622550   5.397   0.432   8.015  0.0000  0.0000  0.0000
16778TPS    HH622551   5.412   0.336   8.064  0.0000  0.0000  0.0000
16778TPS    CA522552   5.420   0.439   7.876  0.0000  0.0000  0.0000
16778TPS    HA522553   5.452   0.352   7.821  0.0000  0.0000  0.0000
16778TPS    CA422554   5.397   0.560   7.808  0.0000  0.0000  0.0000
16778TPS    HA422555   5.416   0.566   7.701  0.0000  0.0000  0.0000
16778TPS    CA322556   5.350   0.672   7.878  0.0000  0.0000  0.0000
16778TPS    HA322557   5.333   0.765   7.824  0.0000  0.0000  0.0000
16779TPS    HA222558   0.781   3.292   1.371  0.0000  0.0000  0.0000
16779TPS    CA222559   0.808   3.384   1.422  0.0000  0.0000  0.0000
16779TPS    CA122560   0.833   3.503   1.352  0.0000  0.0000  0.0000
16779TPS     Si22561   0.833   3.503   1.166  0.0000  0.0000  0.0000
16779TPS    CA622562   0.874   3.617   1.424  0.0000  0.0000  0.0000
16779TPS    HH622563   0.889   3.713   1.375  0.0000  0.0000  0.0000
16779TPS    CA522564   0.897   3.610   1.563  0.0000  0.0000  0.0000
16779TPS    HA522565   0.929   3.697   1.618  0.0000  0.0000  0.0000
16779TPS    CA422566   0.874   3.489   1.631  0.0000  0.0000  0.0000
16779TPS    HA422567   0.893   3.483   1.738  0.0000  0.0000  0.0000
16779TPS    CA322568   0.827   3.377   1.561  0.0000  0.0000  0.0000
16779TPS    HA322569   0.810   3.284   1.615  0.0000  0.0000  0.0000
16780TPS    HA222570   5.205   3.910   1.491  0.0000  0.0000  0.0000
16780TPS    CA222571   5.199   4.005   1.542  0.0000  0.0000  0.0000
16780TPS    CA122572   5.182   4.126   1.472  0.0000  0.0000  0.0000
16780TPS     Si22573   5.182   4.126   1.286  0.0000  0.0000  0.0000
16780TPS    CA622574   5.182   4.247   1.544  0.0000  0.0000  0.0000
16780TPS    HH622575   5.163   4.342   1.495  0.0000  0.0000  0.0000
16780TPS    CA522576   5.205   4.248   1.683  0.0000  0.0000  0.0000
16780TPS    HA522577   5.206   4.341   1.738  0.0000  0.0000  0.0000
16780TPS    CA422578   5.225   4.127   1.751  0.0000  0.0000  0.0000
16780TPS    HA422579   5.245   4.128   1.858  0.0000  0.0000  0.0000
16780TPS    CA322580   5.219   4.006   1.681  0.0000  0.0000  0.0000
16780TPS    HA322581   5.235   3.913   1.735  0.0000  0.0000  0.0000
16781TPS    HA222582   4.242   9.196   8.189  0.0000  0.0000  0.0000
16781TPS    CA222583   4.269   9.104   8.138  0.0000  0.0000  0.0000
16781TPS    CA122584   4.294   8.985   8.208  0.0000  0.0000  0.0000
16781TPS     Si22585   4.294   8.985   8.394  0.0000  0.0000  0.0000
16781TPS    CA622586   4.335   8.871   8.136  0.0000  0.0000  0.0000
16781TPS    HH622587   4.350   8.775   8.185  0.0000  0.0000  0.0000
16781TPS    CA522588   4.358   8.878   7.997  0.0000  0.0000  0.0000
16781TPS    HA522589   4.390   8.791   7.942  0.0000  0.0000  0.0000
16781TPS    CA422590   4.335   8.999   7.929  0.0000  0.0000  0.0000
16781TPS    HA422591   4.354   9.005   7.822  0.0000  0.0000  0.0000
16781TPS    CA322592   4.288   9.111   7.999  0.0000  0.0000  0.0000
16781TPS    HA322593   4.271   9.204   7.945  0.0000  0.0000  0.0000
16782TPS    HA222594   4.985   2.632   1.388  0.0000  0.0000  0.0000
16782TPS    CA222595   5.012   2.724   1.439  0.0000  0.0000  0.0000
16782TPS    CA122596   5.037   2.843   1.369  0.0000  0.0000  0.0000
16782TPS     Si22597   5.037   2.843   1.183  0.0000  0.0000  0.0000
16782TPS    CA622598   5.078   2.957   1.441  0.0000  0.0000  0.0000
16782TPS    HH622599   5.093   3.053   1.392  0.0000  0.0000  0.0000
16782TPS    CA522600   5.101   2.950   1.580  0.0000  0.0000  0.0000
16782TPS    HA522601   5.133   3.037   1.635  0.0000  0.0000  0.0000
16782TPS    CA422602   5.078   2.829   1.648  0.0000  0.0000  0.0000
16782TPS    HA422603   5.097   2.823   1.755  0.0000  0.0000  0.0000
16782TPS    CA322604   5.031   2.717   1.578  0.0000  0.0000  0.0000
16782TPS    HA322605   5.014   2.624   1.632  0.0000  0.0000  0.0000
16783TPS    HA222606   2.897   7.877   8.165  0.0000  0.0000  0.0000
16783TPS    CA222607   2.870   7.969   8.114  0.0000  0.0000  0.0000
16783TPS    CA122608   2.845   8.088   8.184  0.0000  0.0000  0.0000
16783TPS     Si22609   2.845   8.088   8.370  0.0000  0.0000  0.0000
16783TPS    CA622610   2.804   8.202   8.112  0.0000  0.0000  0.0000
16783TPS    HH622611   2.789   8.298   8.161  0.0000  0.0000  0.0000
16783TPS    CA522612   2.781   8.195   7.973  0.0000  0.0000  0.0000
16783TPS    HA522613   2.749   8.282   7.918  0.0000  0.0000  0.0000
16783TPS    CA422614   2.804   8.074   7.905  0.0000  0.0000  0.0000
16783TPS    HA422615   2.785   8.068   7.798  0.0000  0.0000  0.0000
16783TPS    CA322616   2.851   7.962   7.975  0.0000  0.0000  0.0000
16783TPS    HA322617   2.868   7.869   7.921  0.0000  0.0000  0.0000
16784TPS    HA222618   3.204   6.812   1.527  0.0000  0.0000  0.0000
16784TPS    CA222619   3.231   6.904   1.578  0.0000  0.0000  0.0000
16784TPS    CA122620   3.256   7.023   1.508  0.0000  0.0000  0.0000
16784TPS     Si22621   3.256   7.023   1.322  0.0000  0.0000  0.0000
16784TPS    CA622622   3.297   7.137   1.580  0.0000  0.0000  0.0000
16784TPS    HH622623   3.312   7.233   1.531  0.0000  0.0000  0.0000
16784TPS    CA522624   3.320   7.130   1.719  0.0000  0.0000  0.0000
16784TPS    HA522625   3.352   7.217   1.774  0.0000  0.0000  0.0000
16784TPS    CA422626   3.297   7.009   1.787  0.0000  0.0000  0.0000
16784TPS    HA422627   3.316   7.003   1.894  0.0000  0.0000  0.0000
16784TPS    CA322628   3.250   6.897   1.717  0.0000  0.0000  0.0000
16784TPS    HA322629   3.233   6.804   1.771  0.0000  0.0000  0.0000
16785TPS    HA222630   8.613   5.703   1.496  0.0000  0.0000  0.0000
16785TPS    CA222631   8.640   5.795   1.547  0.0000  0.0000  0.0000
16785TPS    CA122632   8.665   5.914   1.477  0.0000  0.0000  0.0000
16785TPS     Si22633   8.665   5.914   1.291  0.0000  0.0000  0.0000
16785TPS    CA622634   8.706   6.028   1.549  0.0000  0.0000  0.0000
16785TPS    HH622635   8.721   6.124   1.500  0.0000  0.0000  0.0000
16785TPS    CA522636   8.729   6.021   1.688  0.0000  0.0000  0.0000
16785TPS    HA522637   8.761   6.108   1.743  0.0000  0.0000  0.0000
16785TPS    CA422638   8.706   5.900   1.756  0.0000  0.0000  0.0000
16785TPS    HA422639   8.725   5.894   1.863  0.0000  0.0000  0.0000
16785TPS    CA322640   8.659   5.788   1.686  0.0000  0.0000  0.0000
16785TPS    HA322641   8.642   5.695   1.740  0.0000  0.0000  0.0000
16786TPS    HA222642   9.108   5.845   8.147  0.0000  0.0000  0.0000
16786TPS    CA222643   9.135   5.753   8.096  0.0000  0.0000  0.0000
16786TPS    CA122644   9.160   5.634   8.166  0.0000  0.0000  0.0000
16786TPS     Si22645   9.160   5.634   8.352  0.0000  0.0000  0.0000
16786TPS    CA622646   9.201   5.520   8.094  0.0000  0.0000  0.0000
16786TPS    HH622647   9.216   5.424   8.143  0.0000  0.0000  0.0000
16786TPS    CA522648   9.224   5.527   7.955  0.0000  0.0000  0.0000
16786TPS    HA522649   9.256   5.440   7.900  0.0000  0.0000  0.0000
16786TPS    CA422650   9.201   5.648   7.887  0.0000  0.0000  0.0000
16786TPS    HA422651   9.220   5.654   7.780  0.0000  0.0000  0.0000
16786TPS    CA322652   9.154   5.760   7.957  0.0000  0.0000  0.0000
16786TPS    HA322653   9.137   5.853   7.903  0.0000  0.0000  0.0000
16787TPS    HA222654   5.035   8.743   8.033  0.0000  0.0000  0.0000
16787TPS    CA222655   5.029   8.648   7.982  0.0000  0.0000  0.0000
16787TPS    CA122656   5.012   8.527   8.052  0.0000  0.0000  0.0000
16787TPS     Si22657   5.012   8.527   8.238  0.0000  0.0000  0.0000
16787TPS    CA622658   5.012   8.406   7.980  0.0000  0.0000  0.0000
16787TPS    HH622659   4.993   8.311   8.029  0.0000  0.0000  0.0000
16787TPS    CA522660   5.035   8.405   7.841  0.0000  0.0000  0.0000
16787TPS    HA522661   5.036   8.312   7.786  0.0000  0.0000  0.0000
16787TPS    CA422662   5.055   8.526   7.773  0.0000  0.0000  0.0000
16787TPS    HA422663   5.075   8.525   7.666  0.0000  0.0000  0.0000
16787TPS    CA322664   5.049   8.647   7.843  0.0000  0.0000  0.0000
16787TPS    HA322665   5.065   8.740   7.789  0.0000  0.0000  0.0000
16788TPS    HA222666   5.289   3.384   1.501  0.0000  0.0000  0.0000
16788TPS    CA222667   5.250   3.471   1.552  0.0000  0.0000  0.0000
16788TPS    CA122668   5.193   3.579   1.482  0.0000  0.0000  0.0000
16788TPS     Si22669   5.193   3.579   1.296  0.0000  0.0000  0.0000
16788TPS    CA622670   5.151   3.693   1.554  0.0000  0.0000  0.0000
16788TPS    HH622671   5.101   3.776   1.505  0.0000  0.0000  0.0000
16788TPS    CA522672   5.173   3.701   1.693  0.0000  0.0000  0.0000
16788TPS    HA522673   5.142   3.790   1.748  0.0000  0.0000  0.0000
16788TPS    CA422674   5.233   3.595   1.761  0.0000  0.0000  0.0000
16788TPS    HA422675   5.252   3.602   1.868  0.0000  0.0000  0.0000
16788TPS    CA322676   5.269   3.479   1.691  0.0000  0.0000  0.0000
16788TPS    HA322677   5.316   3.396   1.745  0.0000  0.0000  0.0000
16789TPS    HA222678   8.611   7.153   8.036  0.0000  0.0000  0.0000
16789TPS    CA222679   8.638   7.061   7.985  0.0000  0.0000  0.0000
16789TPS    CA122680   8.663   6.942   8.055  0.0000  0.0000  0.0000
16789TPS     Si22681   8.663   6.942   8.241  0.0000  0.0000  0.0000
16789TPS    CA622682   8.704   6.828   7.983  0.0000  0.0000  0.0000
16789TPS    HH622683   8.719   6.732   8.032  0.0000  0.0000  0.0000
16789TPS    CA522684   8.727   6.835   7.844  0.0000  0.0000  0.0000
16789TPS    HA522685   8.759   6.748   7.789  0.0000  0.0000  0.0000
16789TPS    CA422686   8.704   6.956   7.776  0.0000  0.0000  0.0000
16789TPS    HA422687   8.723   6.962   7.669  0.0000  0.0000  0.0000
16789TPS    CA322688   8.657   7.068   7.846  0.0000  0.0000  0.0000
16789TPS    HA322689   8.640   7.161   7.792  0.0000  0.0000  0.0000
16790TPS    HA222690   6.813   1.368   8.236  0.0000  0.0000  0.0000
16790TPS    CA222691   6.840   1.276   8.185  0.0000  0.0000  0.0000
16790TPS    CA122692   6.865   1.157   8.255  0.0000  0.0000  0.0000
16790TPS     Si22693   6.865   1.157   8.441  0.0000  0.0000  0.0000
16790TPS    CA622694   6.906   1.043   8.183  0.0000  0.0000  0.0000
16790TPS    HH622695   6.921   0.947   8.232  0.0000  0.0000  0.0000
16790TPS    CA522696   6.929   1.050   8.044  0.0000  0.0000  0.0000
16790TPS    HA522697   6.961   0.963   7.989  0.0000  0.0000  0.0000
16790TPS    CA422698   6.906   1.171   7.976  0.0000  0.0000  0.0000
16790TPS    HA422699   6.925   1.177   7.869  0.0000  0.0000  0.0000
16790TPS    CA322700   6.859   1.283   8.046  0.0000  0.0000  0.0000
16790TPS    HA322701   6.842   1.376   7.992  0.0000  0.0000  0.0000
16791TPS    HA222702   8.173   7.251   8.030  0.0000  0.0000  0.0000
16791TPS    CA222703   8.200   7.159   7.979  0.0000  0.0000  0.0000
16791TPS    CA122704   8.225   7.040   8.049  0.0000  0.0000  0.0000
16791TPS     Si22705   8.225   7.040   8.235  0.0000  0.0000  0.0000
16791TPS    CA622706   8.266   6.926   7.977  0.0000  0.0000  0.0000
16791TPS    HH622707   8.281   6.830   8.026  0.0000  0.0000  0.0000
16791TPS    CA522708   8.289   6.933   7.838  0.0000  0.0000  0.0000
16791TPS    HA522709   8.321   6.846   7.783  0.0000  0.0000  0.0000
16791TPS    CA422710   8.266   7.054   7.770  0.0000  0.0000  0.0000
16791TPS    HA422711   8.285   7.060   7.663  0.0000  0.0000  0.0000
16791TPS    CA322712   8.219   7.166   7.840  0.0000  0.0000  0.0000
16791TPS    HA322713   8.202   7.259   7.786  0.0000  0.0000  0.0000
16792TPS    HA222714   8.386   7.919   8.081  0.0000  0.0000  0.0000
16792TPS    CA222715   8.413   7.827   8.030  0.0000  0.0000  0.0000
16792TPS    CA122716   8.438   7.708   8.100  0.0000  0.0000  0.0000
16792TPS     Si22717   8.438   7.708   8.286  0.0000  0.0000  0.0000
16792TPS    CA622718   8.479   7.594   8.028  0.0000  0.0000  0.0000
16792TPS    HH622719   8.494   7.498   8.077  0.0000  0.0000  0.0000
16792TPS    CA522720   8.502   7.601   7.889  0.0000  0.0000  0.0000
16792TPS    HA522721   8.534   7.514   7.834  0.0000  0.0000  0.0000
16792TPS    CA422722   8.479   7.722   7.821  0.0000  0.0000  0.0000
16792TPS    HA422723   8.498   7.728   7.714  0.0000  0.0000  0.0000
16792TPS    CA322724   8.432   7.834   7.891  0.0000  0.0000  0.0000
16792TPS    HA322725   8.415   7.927   7.837  0.0000  0.0000  0.0000
16793TPS    HA222726   8.431   8.857   1.588  0.0000  0.0000  0.0000
16793TPS    CA222727   8.458   8.949   1.639  0.0000  0.0000  0.0000
16793TPS    CA122728   8.483   9.068   1.569  0.0000  0.0000  0.0000
16793TPS     Si22729   8.483   9.068   1.383  0.0000  0.0000  0.0000
16793TPS    CA622730   8.524   9.182   1.641  0.0000  0.0000  0.0000
16793TPS    HH622731   8.539   9.278   1.592  0.0000  0.0000  0.0000
16793TPS    CA522732   8.547   9.175   1.780  0.0000  0.0000  0.0000
16793TPS    HA522733   8.579   9.262   1.835  0.0000  0.0000  0.0000
16793TPS    CA422734   8.524   9.054   1.848  0.0000  0.0000  0.0000
16793TPS    HA422735   8.543   9.048   1.955  0.0000  0.0000  0.0000
16793TPS    CA322736   8.477   8.942   1.778  0.0000  0.0000  0.0000
16793TPS    HA322737   8.460   8.849   1.832  0.0000  0.0000  0.0000
16794TPS    HA222738   2.819   5.783   1.425  0.0000  0.0000  0.0000
16794TPS    CA222739   2.780   5.870   1.476  0.0000  0.0000  0.0000
16794TPS    CA122740   2.723   5.978   1.406  0.0000  0.0000  0.0000
16794TPS     Si22741   2.723   5.978   1.220  0.0000  0.0000  0.0000
16794TPS    CA622742   2.681   6.092   1.478  0.0000  0.0000  0.0000
16794TPS    HH622743   2.631   6.175   1.429  0.0000  0.0000  0.0000
16794TPS    CA522744   2.703   6.100   1.617  0.0000  0.0000  0.0000
16794TPS    HA522745   2.672   6.189   1.672  0.0000  0.0000  0.0000
16794TPS    CA422746   2.763   5.994   1.685  0.0000  0.0000  0.0000
16794TPS    HA422747   2.782   6.001   1.792  0.0000  0.0000  0.0000
16794TPS    CA322748   2.799   5.878   1.615  0.0000  0.0000  0.0000
16794TPS    HA322749   2.846   5.795   1.669  0.0000  0.0000  0.0000
16795TPS    HA222750   4.082   1.055   8.031  0.0000  0.0000  0.0000
16795TPS    CA222751   4.109   0.963   7.980  0.0000  0.0000  0.0000
16795TPS    CA122752   4.134   0.844   8.050  0.0000  0.0000  0.0000
16795TPS     Si22753   4.134   0.844   8.236  0.0000  0.0000  0.0000
16795TPS    CA622754   4.175   0.730   7.978  0.0000  0.0000  0.0000
16795TPS    HH622755   4.190   0.634   8.027  0.0000  0.0000  0.0000
16795TPS    CA522756   4.198   0.737   7.839  0.0000  0.0000  0.0000
16795TPS    HA522757   4.230   0.650   7.784  0.0000  0.0000  0.0000
16795TPS    CA422758   4.175   0.858   7.771  0.0000  0.0000  0.0000
16795TPS    HA422759   4.194   0.864   7.664  0.0000  0.0000  0.0000
16795TPS    CA322760   4.128   0.970   7.841  0.0000  0.0000  0.0000
16795TPS    HA322761   4.111   1.063   7.787  0.0000  0.0000  0.0000
16796TPS    HA222762   2.438   3.253   1.586  0.0000  0.0000  0.0000
16796TPS    CA222763   2.465   3.345   1.637  0.0000  0.0000  0.0000
16796TPS    CA122764   2.490   3.464   1.567  0.0000  0.0000  0.0000
16796TPS     Si22765   2.490   3.464   1.381  0.0000  0.0000  0.0000
16796TPS    CA622766   2.531   3.578   1.639  0.0000  0.0000  0.0000
16796TPS    HH622767   2.546   3.674   1.590  0.0000  0.0000  0.0000
16796TPS    CA522768   2.554   3.571   1.778  0.0000  0.0000  0.0000
16796TPS    HA522769   2.586   3.658   1.833  0.0000  0.0000  0.0000
16796TPS    CA422770   2.531   3.450   1.846  0.0000  0.0000  0.0000
16796TPS    HA422771   2.550   3.444   1.953  0.0000  0.0000  0.0000
16796TPS    CA322772   2.484   3.338   1.776  0.0000  0.0000  0.0000
16796TPS    HA322773   2.467   3.245   1.830  0.0000  0.0000  0.0000
16797TPS    HA222774   6.405   5.736   8.162  0.0000  0.0000  0.0000
16797TPS    CA222775   6.312   5.759   8.111  0.0000  0.0000  0.0000
16797TPS    CA122776   6.196   5.797   8.181  0.0000  0.0000  0.0000
16797TPS     Si22777   6.196   5.797   8.367  0.0000  0.0000  0.0000
16797TPS    CA622778   6.077   5.819   8.109  0.0000  0.0000  0.0000
16797TPS    HH622779   5.986   5.853   8.158  0.0000  0.0000  0.0000
16797TPS    CA522780   6.072   5.795   7.970  0.0000  0.0000  0.0000
16797TPS    HA522781   5.980   5.811   7.915  0.0000  0.0000  0.0000
16797TPS    CA422782   6.187   5.755   7.902  0.0000  0.0000  0.0000
16797TPS    HA422783   6.183   5.735   7.795  0.0000  0.0000  0.0000
16797TPS    CA322784   6.308   5.739   7.972  0.0000  0.0000  0.0000
16797TPS    HA322785   6.397   5.708   7.918  0.0000  0.0000  0.0000
16798TPS    HA222786   5.906   1.037   8.049  0.0000  0.0000  0.0000
16798TPS    CA222787   5.900   0.942   7.998  0.0000  0.0000  0.0000
16798TPS    CA122788   5.883   0.821   8.068  0.0000  0.0000  0.0000
16798TPS     Si22789   5.883   0.821   8.254  0.0000  0.0000  0.0000
16798TPS    CA622790   5.883   0.700   7.996  0.0000  0.0000  0.0000
16798TPS    HH622791   5.864   0.605   8.045  0.0000  0.0000  0.0000
16798TPS    CA522792   5.906   0.699   7.857  0.0000  0.0000  0.0000
16798TPS    HA522793   5.907   0.606   7.802  0.0000  0.0000  0.0000
16798TPS    CA422794   5.926   0.820   7.789  0.0000  0.0000  0.0000
16798TPS    HA422795   5.946   0.819   7.682  0.0000  0.0000  0.0000
16798TPS    CA322796   5.920   0.941   7.859  0.0000  0.0000  0.0000
16798TPS    HA322797   5.936   1.034   7.805  0.0000  0.0000  0.0000
16799TPS    HA222798   2.512   0.651   8.138  0.0000  0.0000  0.0000
16799TPS    CA222799   2.539   0.559   8.087  0.0000  0.0000  0.0000
16799TPS    CA122800   2.564   0.440   8.157  0.0000  0.0000  0.0000
16799TPS     Si22801   2.564   0.440   8.343  0.0000  0.0000  0.0000
16799TPS    CA622802   2.605   0.326   8.085  0.0000  0.0000  0.0000
16799TPS    HH622803   2.620   0.230   8.134  0.0000  0.0000  0.0000
16799TPS    CA522804   2.628   0.333   7.946  0.0000  0.0000  0.0000
16799TPS    HA522805   2.660   0.246   7.891  0.0000  0.0000  0.0000
16799TPS    CA422806   2.605   0.454   7.878  0.0000  0.0000  0.0000
16799TPS    HA422807   2.624   0.460   7.771  0.0000  0.0000  0.0000
16799TPS    CA322808   2.558   0.566   7.948  0.0000  0.0000  0.0000
16799TPS    HA322809   2.541   0.659   7.894  0.0000  0.0000  0.0000
16800TPS    HA222810   5.228   7.151   7.997  0.0000  0.0000  0.0000
16800TPS    CA222811   5.255   7.059   7.946  0.0000  0.0000  0.0000
16800TPS    CA122812   5.280   6.940   8.016  0.0000  0.0000  0.0000
16800TPS     Si22813   5.280   6.940   8.202  0.0000  0.0000  0.0000
16800TPS    CA622814   5.321   6.826   7.944  0.0000  0.0000  0.0000
16800TPS    HH622815   5.336   6.730   7.993  0.0000  0.0000  0.0000
16800TPS    CA522816   5.344   6.833   7.805  0.0000  0.0000  0.0000
16800TPS    HA522817   5.376   6.746   7.750  0.0000  0.0000  0.0000
16800TPS    CA422818   5.321   6.954   7.737  0.0000  0.0000  0.0000
16800TPS    HA422819   5.340   6.960   7.630  0.0000  0.0000  0.0000
16800TPS    CA322820   5.274   7.066   7.807  0.0000  0.0000  0.0000
16800TPS    HA322821   5.257   7.159   7.753  0.0000  0.0000  0.0000
16801TPS    HA222822   4.674   7.026   1.548  0.0000  0.0000  0.0000
16801TPS    CA222823   4.701   7.118   1.599  0.0000  0.0000  0.0000
16801TPS    CA122824   4.726   7.237   1.529  0.0000  0.0000  0.0000
16801TPS     Si22825   4.726   7.237   1.343  0.0000  0.0000  0.0000
16801TPS    CA622826   4.767   7.351   1.601  0.0000  0.0000  0.0000
16801TPS    HH622827   4.782   7.447   1.552  0.0000  0.0000  0.0000
16801TPS    CA522828   4.790   7.344   1.740  0.0000  0.0000  0.0000
16801TPS    HA522829   4.822   7.431   1.795  0.0000  0.0000  0.0000
16801TPS    CA422830   4.767   7.223   1.808  0.0000  0.0000  0.0000
16801TPS    HA422831   4.786   7.217   1.915  0.0000  0.0000  0.0000
16801TPS    CA322832   4.720   7.111   1.738  0.0000  0.0000  0.0000
16801TPS    HA322833   4.703   7.018   1.792  0.0000  0.0000  0.0000
16802TPS    HA222834   5.578   5.613   7.984  0.0000  0.0000  0.0000
16802TPS    CA222835   5.605   5.521   7.933  0.0000  0.0000  0.0000
16802TPS    CA122836   5.630   5.402   8.003  0.0000  0.0000  0.0000
16802TPS     Si22837   5.630   5.402   8.189  0.0000  0.0000  0.0000
16802TPS    CA622838   5.671   5.288   7.931  0.0000  0.0000  0.0000
16802TPS    HH622839   5.686   5.192   7.980  0.0000  0.0000  0.0000
16802TPS    CA522840   5.694   5.295   7.792  0.0000  0.0000  0.0000
16802TPS    HA522841   5.726   5.208   7.737  0.0000  0.0000  0.0000
16802TPS    CA422842   5.671   5.416   7.724  0.0000  0.0000  0.0000
16802TPS    HA422843   5.690   5.422   7.617  0.0000  0.0000  0.0000
16802TPS    CA322844   5.624   5.528   7.794  0.0000  0.0000  0.0000
16802TPS    HA322845   5.607   5.621   7.740  0.0000  0.0000  0.0000
16803TPS    HA222846   5.309   8.248   8.114  0.0000  0.0000  0.0000
16803TPS    CA222847   5.336   8.156   8.063  0.0000  0.0000  0.0000
16803TPS    CA122848   5.361   8.037   8.133  0.0000  0.0000  0.0000
16803TPS     Si22849   5.361   8.037   8.319  0.0000  0.0000  0.0000
16803TPS    CA622850   5.402   7.923   8.061  0.0000  0.0000  0.0000
16803TPS    HH622851   5.417   7.827   8.110  0.0000  0.0000  0.0000
16803TPS    CA522852   5.425   7.930   7.922  0.0000  0.0000  0.0000
16803TPS    HA522853   5.457   7.843   7.867  0.0000  0.0000  0.0000
16803TPS    CA422854   5.402   8.051   7.854  0.0000  0.0000  0.0000
16803TPS    HA422855   5.421   8.057   7.747  0.0000  0.0000  0.0000
16803TPS    CA322856   5.355   8.163   7.924  0.0000  0.0000  0.0000
16803TPS    HA322857   5.338   8.256   7.870  0.0000  0.0000  0.0000
16804TPS    HA222858   1.332   8.535   1.434  0.0000  0.0000  0.0000
16804TPS    CA222859   1.338   8.440   1.485  0.0000  0.0000  0.0000
16804TPS    CA122860   1.355   8.319   1.415  0.0000  0.0000  0.0000
16804TPS     Si22861   1.355   8.319   1.229  0.0000  0.0000  0.0000
16804TPS    CA622862   1.355   8.198   1.487  0.0000  0.0000  0.0000
16804TPS    HH622863   1.374   8.103   1.438  0.0000  0.0000  0.0000
16804TPS    CA522864   1.332   8.197   1.626  0.0000  0.0000  0.0000
16804TPS    HA522865   1.331   8.104   1.681  0.0000  0.0000  0.0000
16804TPS    CA422866   1.312   8.318   1.694  0.0000  0.0000  0.0000
16804TPS    HA422867   1.292   8.317   1.801  0.0000  0.0000  0.0000
16804TPS    CA322868   1.318   8.439   1.624  0.0000  0.0000  0.0000
16804TPS    HA322869   1.302   8.532   1.678  0.0000  0.0000  0.0000
16805TPS    HA222870   1.193   9.131   1.342  0.0000  0.0000  0.0000
16805TPS    CA222871   1.220   9.223   1.393  0.0000  0.0000  0.0000
16805TPS    CA122872   1.245   9.342   1.323  0.0000  0.0000  0.0000
16805TPS     Si22873   1.245   9.342   1.137  0.0000  0.0000  0.0000
16805TPS    CA622874   1.286   9.456   1.395  0.0000  0.0000  0.0000
16805TPS    HH622875   1.301   9.552   1.346  0.0000  0.0000  0.0000
16805TPS    CA522876   1.309   9.449   1.534  0.0000  0.0000  0.0000
16805TPS    HA522877   1.341   9.536   1.589  0.0000  0.0000  0.0000
16805TPS    CA422878   1.286   9.328   1.602  0.0000  0.0000  0.0000
16805TPS    HA422879   1.305   9.322   1.709  0.0000  0.0000  0.0000
16805TPS    CA322880   1.239   9.216   1.532  0.0000  0.0000  0.0000
16805TPS    HA322881   1.222   9.123   1.586  0.0000  0.0000  0.0000
16806TPS    HA222882   6.824   4.948   8.232  0.0000  0.0000  0.0000
16806TPS    CA222883   6.851   4.856   8.181  0.0000  0.0000  0.0000
16806TPS    CA122884   6.876   4.737   8.251  0.0000  0.0000  0.0000
16806TPS     Si22885   6.876   4.737   8.437  0.0000  0.0000  0.0000
16806TPS    CA622886   6.917   4.623   8.179  0.0000  0.0000  0.0000
16806TPS    HH622887   6.932   4.527   8.228  0.0000  0.0000  0.0000
16806TPS    CA522888   6.940   4.630   8.040  0.0000  0.0000  0.0000
16806TPS    HA522889   6.972   4.543   7.985  0.0000  0.0000  0.0000
16806TPS    CA422890   6.917   4.751   7.972  0.0000  0.0000  0.0000
16806TPS    HA422891   6.936   4.757   7.865  0.0000  0.0000  0.0000
16806TPS    CA322892   6.870   4.863   8.042  0.0000  0.0000  0.0000
16806TPS    HA322893   6.853   4.956   7.988  0.0000  0.0000  0.0000
16807TPS    HA222894   0.218   3.094   1.549  0.0000  0.0000  0.0000
16807TPS    CA222895   0.313   3.083   1.600  0.0000  0.0000  0.0000
16807TPS    CA122896   0.435   3.079   1.530  0.0000  0.0000  0.0000
16807TPS     Si22897   0.435   3.079   1.344  0.0000  0.0000  0.0000
16807TPS    CA622898   0.555   3.058   1.602  0.0000  0.0000  0.0000
16807TPS    HH622899   0.651   3.060   1.553  0.0000  0.0000  0.0000
16807TPS    CA522900   0.551   3.035   1.741  0.0000  0.0000  0.0000
16807TPS    HA522901   0.643   3.018   1.796  0.0000  0.0000  0.0000
16807TPS    CA422902   0.429   3.036   1.809  0.0000  0.0000  0.0000
16807TPS    HA422903   0.426   3.016   1.916  0.0000  0.0000  0.0000
16807TPS    CA322904   0.310   3.063   1.739  0.0000  0.0000  0.0000
16807TPS    HA322905   0.216   3.064   1.793  0.0000  0.0000  0.0000
16808TPS    HA222906   4.110   5.777   1.398  0.0000  0.0000  0.0000
16808TPS    CA222907   4.137   5.869   1.449  0.0000  0.0000  0.0000
16808TPS    CA122908   4.162   5.988   1.379  0.0000  0.0000  0.0000
16808TPS     Si22909   4.162   5.988   1.193  0.0000  0.0000  0.0000
16808TPS    CA622910   4.203   6.102   1.451  0.0000  0.0000  0.0000
16808TPS    HH622911   4.218   6.198   1.402  0.0000  0.0000  0.0000
16808TPS    CA522912   4.226   6.095   1.590  0.0000  0.0000  0.0000
16808TPS    HA522913   4.258   6.182   1.645  0.0000  0.0000  0.0000
16808TPS    CA422914   4.203   5.974   1.658  0.0000  0.0000  0.0000
16808TPS    HA422915   4.222   5.968   1.765  0.0000  0.0000  0.0000
16808TPS    CA322916   4.156   5.862   1.588  0.0000  0.0000  0.0000
16808TPS    HA322917   4.139   5.769   1.642  0.0000  0.0000  0.0000
16809TPS    HA222918   5.128   8.712   1.476  0.0000  0.0000  0.0000
16809TPS    CA222919   5.089   8.799   1.527  0.0000  0.0000  0.0000
16809TPS    CA122920   5.032   8.907   1.457  0.0000  0.0000  0.0000
16809TPS     Si22921   5.032   8.907   1.271  0.0000  0.0000  0.0000
16809TPS    CA622922   4.990   9.021   1.529  0.0000  0.0000  0.0000
16809TPS    HH622923   4.940   9.104   1.480  0.0000  0.0000  0.0000
16809TPS    CA522924   5.012   9.029   1.668  0.0000  0.0000  0.0000
16809TPS    HA522925   4.981   9.118   1.723  0.0000  0.0000  0.0000
16809TPS    CA422926   5.072   8.923   1.736  0.0000  0.0000  0.0000
16809TPS    HA422927   5.091   8.930   1.843  0.0000  0.0000  0.0000
16809TPS    CA322928   5.108   8.807   1.666  0.0000  0.0000  0.0000
16809TPS    HA322929   5.155   8.724   1.720  0.0000  0.0000  0.0000
16810TPS    HA222930   4.040   7.056   8.001  0.0000  0.0000  0.0000
16810TPS    CA222931   4.119   7.003   7.950  0.0000  0.0000  0.0000
16810TPS    CA122932   4.215   6.928   8.020  0.0000  0.0000  0.0000
16810TPS     Si22933   4.215   6.928   8.206  0.0000  0.0000  0.0000
16810TPS    CA622934   4.320   6.867   7.948  0.0000  0.0000  0.0000
16810TPS    HH622935   4.393   6.804   7.997  0.0000  0.0000  0.0000
16810TPS    CA522936   4.332   6.887   7.809  0.0000  0.0000  0.0000
16810TPS    HA522937   4.413   6.841   7.754  0.0000  0.0000  0.0000
16810TPS    CA422938   4.238   6.965   7.741  0.0000  0.0000  0.0000
16810TPS    HA422939   4.248   6.982   7.634  0.0000  0.0000  0.0000
16810TPS    CA322940   4.129   7.021   7.811  0.0000  0.0000  0.0000
16810TPS    HA322941   4.057   7.081   7.757  0.0000  0.0000  0.0000
16811TPS    HA222942   1.055   5.599   8.255  0.0000  0.0000  0.0000
16811TPS    CA222943   0.962   5.622   8.204  0.0000  0.0000  0.0000
16811TPS    CA122944   0.846   5.660   8.274  0.0000  0.0000  0.0000
16811TPS     Si22945   0.846   5.660   8.460  0.0000  0.0000  0.0000
16811TPS    CA622946   0.727   5.682   8.202  0.0000  0.0000  0.0000
16811TPS    HH622947   0.636   5.716   8.251  0.0000  0.0000  0.0000
16811TPS    CA522948   0.722   5.658   8.063  0.0000  0.0000  0.0000
16811TPS    HA522949   0.630   5.674   8.008  0.0000  0.0000  0.0000
16811TPS    CA422950   0.837   5.618   7.995  0.0000  0.0000  0.0000
16811TPS    HA422951   0.833   5.598   7.888  0.0000  0.0000  0.0000
16811TPS    CA322952   0.958   5.602   8.065  0.0000  0.0000  0.0000
16811TPS    HA322953   1.047   5.571   8.011  0.0000  0.0000  0.0000
16812TPS    HA222954   0.978   5.408   8.170  0.0000  0.0000  0.0000
16812TPS    CA222955   1.005   5.316   8.119  0.0000  0.0000  0.0000
16812TPS    CA122956   1.030   5.197   8.189  0.0000  0.0000  0.0000
16812TPS     Si22957   1.030   5.197   8.375  0.0000  0.0000  0.0000
16812TPS    CA622958   1.071   5.083   8.117  0.0000  0.0000  0.0000
16812TPS    HH622959   1.086   4.987   8.166  0.0000  0.0000  0.0000
16812TPS    CA522960   1.094   5.090   7.978  0.0000  0.0000  0.0000
16812TPS    HA522961   1.126   5.003   7.923  0.0000  0.0000  0.0000
16812TPS    CA422962   1.071   5.211   7.910  0.0000  0.0000  0.0000
16812TPS    HA422963   1.090   5.217   7.803  0.0000  0.0000  0.0000
16812TPS    CA322964   1.024   5.323   7.980  0.0000  0.0000  0.0000
16812TPS    HA322965   1.007   5.416   7.926  0.0000  0.0000  0.0000
16813TPS    HA222966   5.536   4.797   1.499  0.0000  0.0000  0.0000
16813TPS    CA222967   5.563   4.889   1.550  0.0000  0.0000  0.0000
16813TPS    CA122968   5.588   5.008   1.480  0.0000  0.0000  0.0000
16813TPS     Si22969   5.588   5.008   1.294  0.0000  0.0000  0.0000
16813TPS    CA622970   5.629   5.122   1.552  0.0000  0.0000  0.0000
16813TPS    HH622971   5.644   5.218   1.503  0.0000  0.0000  0.0000
16813TPS    CA522972   5.652   5.115   1.691  0.0000  0.0000  0.0000
16813TPS    HA522973   5.684   5.202   1.746  0.0000  0.0000  0.0000
16813TPS    CA422974   5.629   4.994   1.759  0.0000  0.0000  0.0000
16813TPS    HA422975   5.648   4.988   1.866  0.0000  0.0000  0.0000
16813TPS    CA322976   5.582   4.882   1.689  0.0000  0.0000  0.0000
16813TPS    HA322977   5.565   4.789   1.743  0.0000  0.0000  0.0000
16814TPS    HA222978   0.568   7.177   1.539  0.0000  0.0000  0.0000
16814TPS    CA222979   0.595   7.269   1.590  0.0000  0.0000  0.0000
16814TPS    CA122980   0.620   7.388   1.520  0.0000  0.0000  0.0000
16814TPS     Si22981   0.620   7.388   1.334  0.0000  0.0000  0.0000
16814TPS    CA622982   0.661   7.502   1.592  0.0000  0.0000  0.0000
16814TPS    HH622983   0.676   7.598   1.543  0.0000  0.0000  0.0000
16814TPS    CA522984   0.684   7.495   1.731  0.0000  0.0000  0.0000
16814TPS    HA522985   0.716   7.582   1.786  0.0000  0.0000  0.0000
16814TPS    CA422986   0.661   7.374   1.799  0.0000  0.0000  0.0000
16814TPS    HA422987   0.680   7.368   1.906  0.0000  0.0000  0.0000
16814TPS    CA322988   0.614   7.262   1.729  0.0000  0.0000  0.0000
16814TPS    HA322989   0.597   7.169   1.783  0.0000  0.0000  0.0000
16815TPS    HA222990   3.183   5.555   1.564  0.0000  0.0000  0.0000
16815TPS    CA222991   3.210   5.647   1.615  0.0000  0.0000  0.0000
16815TPS    CA122992   3.235   5.766   1.545  0.0000  0.0000  0.0000
16815TPS     Si22993   3.235   5.766   1.359  0.0000  0.0000  0.0000
16815TPS    CA622994   3.276   5.880   1.617  0.0000  0.0000  0.0000
16815TPS    HH622995   3.291   5.976   1.568  0.0000  0.0000  0.0000
16815TPS    CA522996   3.299   5.873   1.756  0.0000  0.0000  0.0000
16815TPS    HA522997   3.331   5.960   1.811  0.0000  0.0000  0.0000
16815TPS    CA422998   3.276   5.752   1.824  0.0000  0.0000  0.0000
16815TPS    HA422999   3.295   5.746   1.931  0.0000  0.0000  0.0000
16815TPS    CA323000   3.229   5.640   1.754  0.0000  0.0000  0.0000
16815TPS    HA323001   3.212   5.547   1.808  0.0000  0.0000  0.0000
16816TPS    HA223002   6.986   5.771   8.016  0.0000  0.0000  0.0000
16816TPS    CA223003   7.013   5.679   7.965  0.0000  0.0000  0.0000
16816TPS    CA123004   7.038   5.560   8.035  0.0000  0.0000  0.0000
16816TPS     Si23005   7.038   5.560   8.221  0.0000  0.0000  0.0000
16816TPS    CA623006   7.079   5.446   7.963  0.0000  0.0000  0.0000
16816TPS    HH623007   7.094   5.350   8.012  0.0000  0.0000  0.0000
16816TPS    CA523008   7.102   5.453   7.824  0.0000  0.0000  0.0000
16816TPS    HA523009   7.134   5.366   7.769  0.0000  0.0000  0.0000
16816TPS    CA423010   7.079   5.574   7.756  0.0000  0.0000  0.0000
16816TPS    HA423011   7.098   5.580   7.649  0.0000  0.0000  0.0000
16816TPS    CA323012   7.032   5.686   7.826  0.0000  0.0000  0.0000
16816TPS    HA323013   7.015   5.779   7.772  0.0000  0.0000  0.0000
16817TPS    HA223014   4.400   2.557   1.414  0.0000  0.0000  0.0000
16817TPS    CA223015   4.427   2.649   1.465  0.0000  0.0000  0.0000
16817TPS    CA123016   4.452   2.768   1.395  0.0000  0.0000  0.0000
16817TPS     Si23017   4.452   2.768   1.209  0.0000  0.0000  0.0000
16817TPS    CA623018   4.493   2.882   1.467  0.0000  0.0000  0.0000
16817TPS    HH623019   4.508   2.978   1.418  0.0000  0.0000  0.0000
16817TPS    CA523020   4.516   2.875   1.606  0.0000  0.0000  0.0000
16817TPS    HA523021   4.548   2.962   1.661  0.0000  0.0000  0.0000
16817TPS    CA423022   4.493   2.754   1.674  0.0000  0.0000  0.0000
16817TPS    HA423023   4.512   2.748   1.781  0.0000  0.0000  0.0000
16817TPS    CA323024   4.446   2.642   1.604  0.0000  0.0000  0.0000
16817TPS    HA323025   4.429   2.549   1.658  0.0000  0.0000  0.0000
16818TPS    HA223026   0.784   8.489   8.123  0.0000  0.0000  0.0000
16818TPS    CA223027   0.877   8.466   8.072  0.0000  0.0000  0.0000
16818TPS    CA123028   0.993   8.428   8.142  0.0000  0.0000  0.0000
16818TPS     Si23029   0.993   8.428   8.328  0.0000  0.0000  0.0000
16818TPS    CA623030   1.112   8.406   8.070  0.0000  0.0000  0.0000
16818TPS    HH623031   1.203   8.372   8.119  0.0000  0.0000  0.0000
16818TPS    CA523032   1.117   8.430   7.931  0.0000  0.0000  0.0000
16818TPS    HA523033   1.209   8.414   7.876  0.0000  0.0000  0.0000
16818TPS    CA423034   1.002   8.470   7.863  0.0000  0.0000  0.0000
16818TPS    HA423035   1.006   8.490   7.756  0.0000  0.0000  0.0000
16818TPS    CA323036   0.881   8.486   7.933  0.0000  0.0000  0.0000
16818TPS    HA323037   0.792   8.517   7.879  0.0000  0.0000  0.0000
16819TPS    HA223038   4.609   0.001   1.475  0.0000  0.0000  0.0000
16819TPS    CA223039   4.636   0.093   1.526  0.0000  0.0000  0.0000
16819TPS    CA123040   4.661   0.212   1.456  0.0000  0.0000  0.0000
16819TPS     Si23041   4.661   0.212   1.270  0.0000  0.0000  0.0000
16819TPS    CA623042   4.702   0.326   1.528  0.0000  0.0000  0.0000
16819TPS    HH623043   4.717   0.422   1.479  0.0000  0.0000  0.0000
16819TPS    CA523044   4.725   0.319   1.667  0.0000  0.0000  0.0000
16819TPS    HA523045   4.757   0.406   1.722  0.0000  0.0000  0.0000
16819TPS    CA423046   4.702   0.198   1.735  0.0000  0.0000  0.0000
16819TPS    HA423047   4.721   0.192   1.842  0.0000  0.0000  0.0000
16819TPS    CA323048   4.655   0.086   1.665  0.0000  0.0000  0.0000
16819TPS    HA323049   4.638  -0.007   1.719  0.0000  0.0000  0.0000
16820TPS    HA223050   3.556   5.177   1.331  0.0000  0.0000  0.0000
16820TPS    CA223051   3.583   5.269   1.382  0.0000  0.0000  0.0000
16820TPS    CA123052   3.608   5.388   1.312  0.0000  0.0000  0.0000
16820TPS     Si23053   3.608   5.388   1.126  0.0000  0.0000  0.0000
16820TPS    CA623054   3.649   5.502   1.384  0.0000  0.0000  0.0000
16820TPS    HH623055   3.664   5.598   1.335  0.0000  0.0000  0.0000
16820TPS    CA523056   3.672   5.495   1.523  0.0000  0.0000  0.0000
16820TPS    HA523057   3.704   5.582   1.578  0.0000  0.0000  0.0000
16820TPS    CA423058   3.649   5.374   1.591  0.0000  0.0000  0.0000
16820TPS    HA423059   3.668   5.368   1.698  0.0000  0.0000  0.0000
16820TPS    CA323060   3.602   5.262   1.521  0.0000  0.0000  0.0000
16820TPS    HA323061   3.585   5.169   1.575  0.0000  0.0000  0.0000
16821TPS    HA223062   0.109   3.041   8.152  0.0000  0.0000  0.0000
16821TPS    CA223063   0.204   3.052   8.101  0.0000  0.0000  0.0000
16821TPS    CA123064   0.326   3.056   8.171  0.0000  0.0000  0.0000
16821TPS     Si23065   0.326   3.056   8.357  0.0000  0.0000  0.0000
16821TPS    CA623066   0.446   3.077   8.099  0.0000  0.0000  0.0000
16821TPS    HH623067   0.542   3.075   8.148  0.0000  0.0000  0.0000
16821TPS    CA523068   0.442   3.100   7.960  0.0000  0.0000  0.0000
16821TPS    HA523069   0.534   3.117   7.905  0.0000  0.0000  0.0000
16821TPS    CA423070   0.320   3.099   7.892  0.0000  0.0000  0.0000
16821TPS    HA423071   0.317   3.119   7.785  0.0000  0.0000  0.0000
16821TPS    CA323072   0.201   3.072   7.962  0.0000  0.0000  0.0000
16821TPS    HA323073   0.107   3.071   7.908  0.0000  0.0000  0.0000
16822TPS    HA223074   8.018   5.052   8.163  0.0000  0.0000  0.0000
16822TPS    CA223075   8.045   4.960   8.112  0.0000  0.0000  0.0000
16822TPS    CA123076   8.070   4.841   8.182  0.0000  0.0000  0.0000
16822TPS     Si23077   8.070   4.841   8.368  0.0000  0.0000  0.0000
16822TPS    CA623078   8.111   4.727   8.110  0.0000  0.0000  0.0000
16822TPS    HH623079   8.126   4.631   8.159  0.0000  0.0000  0.0000
16822TPS    CA523080   8.134   4.734   7.971  0.0000  0.0000  0.0000
16822TPS    HA523081   8.166   4.647   7.916  0.0000  0.0000  0.0000
16822TPS    CA423082   8.111   4.855   7.903  0.0000  0.0000  0.0000
16822TPS    HA423083   8.130   4.861   7.796  0.0000  0.0000  0.0000
16822TPS    CA323084   8.064   4.967   7.973  0.0000  0.0000  0.0000
16822TPS    HA323085   8.047   5.060   7.919  0.0000  0.0000  0.0000
16823TPS    HA223086   6.950   2.933   1.608  0.0000  0.0000  0.0000
16823TPS    CA223087   6.911   3.020   1.659  0.0000  0.0000  0.0000
16823TPS    CA123088   6.854   3.128   1.589  0.0000  0.0000  0.0000
16823TPS     Si23089   6.854   3.128   1.403  0.0000  0.0000  0.0000
16823TPS    CA623090   6.812   3.242   1.661  0.0000  0.0000  0.0000
16823TPS    HH623091   6.762   3.325   1.612  0.0000  0.0000  0.0000
16823TPS    CA523092   6.834   3.250   1.800  0.0000  0.0000  0.0000
16823TPS    HA523093   6.803   3.339   1.855  0.0000  0.0000  0.0000
16823TPS    CA423094   6.894   3.144   1.868  0.0000  0.0000  0.0000
16823TPS    HA423095   6.913   3.151   1.975  0.0000  0.0000  0.0000
16823TPS    CA323096   6.930   3.028   1.798  0.0000  0.0000  0.0000
16823TPS    HA323097   6.977   2.945   1.852  0.0000  0.0000  0.0000
16824TPS    HA223098   4.219   8.059   1.436  0.0000  0.0000  0.0000
16824TPS    CA223099   4.213   8.154   1.487  0.0000  0.0000  0.0000
16824TPS    CA123100   4.196   8.275   1.417  0.0000  0.0000  0.0000
16824TPS     Si23101   4.196   8.275   1.231  0.0000  0.0000  0.0000
16824TPS    CA623102   4.196   8.396   1.489  0.0000  0.0000  0.0000
16824TPS    HH623103   4.177   8.491   1.440  0.0000  0.0000  0.0000
16824TPS    CA523104   4.219   8.397   1.628  0.0000  0.0000  0.0000
16824TPS    HA523105   4.220   8.490   1.683  0.0000  0.0000  0.0000
16824TPS    CA423106   4.239   8.276   1.696  0.0000  0.0000  0.0000
16824TPS    HA423107   4.259   8.277   1.803  0.0000  0.0000  0.0000
16824TPS    CA323108   4.233   8.155   1.626  0.0000  0.0000  0.0000
16824TPS    HA323109   4.249   8.062   1.680  0.0000  0.0000  0.0000
16825TPS    HA223110  -0.008   9.212   8.122  0.0000  0.0000  0.0000
16825TPS    CA223111   0.019   9.120   8.071  0.0000  0.0000  0.0000
16825TPS    CA123112   0.044   9.001   8.141  0.0000  0.0000  0.0000
16825TPS     Si23113   0.044   9.001   8.327  0.0000  0.0000  0.0000
16825TPS    CA623114   0.085   8.887   8.069  0.0000  0.0000  0.0000
16825TPS    HH623115   0.100   8.791   8.118  0.0000  0.0000  0.0000
16825TPS    CA523116   0.108   8.894   7.930  0.0000  0.0000  0.0000
16825TPS    HA523117   0.140   8.807   7.875  0.0000  0.0000  0.0000
16825TPS    CA423118   0.085   9.015   7.862  0.0000  0.0000  0.0000
16825TPS    HA423119   0.104   9.021   7.755  0.0000  0.0000  0.0000
16825TPS    CA323120   0.038   9.127   7.932  0.0000  0.0000  0.0000
16825TPS    HA323121   0.021   9.220   7.878  0.0000  0.0000  0.0000
16826TPS    HA223122   6.103   0.769   1.519  0.0000  0.0000  0.0000
16826TPS    CA223123   6.130   0.861   1.570  0.0000  0.0000  0.0000
16826TPS    CA123124   6.155   0.980   1.500  0.0000  0.0000  0.0000
16826TPS     Si23125   6.155   0.980   1.314  0.0000  0.0000  0.0000
16826TPS    CA623126   6.196   1.094   1.572  0.0000  0.0000  0.0000
16826TPS    HH623127   6.211   1.190   1.523  0.0000  0.0000  0.0000
16826TPS    CA523128   6.219   1.087   1.711  0.0000  0.0000  0.0000
16826TPS    HA523129   6.251   1.174   1.766  0.0000  0.0000  0.0000
16826TPS    CA423130   6.196   0.966   1.779  0.0000  0.0000  0.0000
16826TPS    HA423131   6.215   0.960   1.886  0.0000  0.0000  0.0000
16826TPS    CA323132   6.149   0.854   1.709  0.0000  0.0000  0.0000
16826TPS    HA323133   6.132   0.761   1.763  0.0000  0.0000  0.0000
16827TPS    HA223134   0.529   3.846   8.161  0.0000  0.0000  0.0000
16827TPS    CA223135   0.490   3.759   8.110  0.0000  0.0000  0.0000
16827TPS    CA123136   0.433   3.651   8.180  0.0000  0.0000  0.0000
16827TPS     Si23137   0.433   3.651   8.366  0.0000  0.0000  0.0000
16827TPS    CA623138   0.391   3.537   8.108  0.0000  0.0000  0.0000
16827TPS    HH623139   0.341   3.454   8.157  0.0000  0.0000  0.0000
16827TPS    CA523140   0.413   3.529   7.969  0.0000  0.0000  0.0000
16827TPS    HA523141   0.382   3.440   7.914  0.0000  0.0000  0.0000
16827TPS    CA423142   0.473   3.635   7.901  0.0000  0.0000  0.0000
16827TPS    HA423143   0.492   3.628   7.794  0.0000  0.0000  0.0000
16827TPS    CA323144   0.509   3.751   7.971  0.0000  0.0000  0.0000
16827TPS    HA323145   0.556   3.834   7.917  0.0000  0.0000  0.0000
16828TPS    HA223146   0.212   4.225   1.599  0.0000  0.0000  0.0000
16828TPS    CA223147   0.239   4.317   1.650  0.0000  0.0000  0.0000
16828TPS    CA123148   0.264   4.436   1.580  0.0000  0.0000  0.0000
16828TPS     Si23149   0.264   4.436   1.394  0.0000  0.0000  0.0000
16828TPS    CA623150   0.305   4.550   1.652  0.0000  0.0000  0.0000
16828TPS    HH623151   0.320   4.646   1.603  0.0000  0.0000  0.0000
16828TPS    CA523152   0.328   4.543   1.791  0.0000  0.0000  0.0000
16828TPS    HA523153   0.360   4.630   1.846  0.0000  0.0000  0.0000
16828TPS    CA423154   0.305   4.422   1.859  0.0000  0.0000  0.0000
16828TPS    HA423155   0.324   4.416   1.966  0.0000  0.0000  0.0000
16828TPS    CA323156   0.258   4.310   1.789  0.0000  0.0000  0.0000
16828TPS    HA323157   0.241   4.217   1.843  0.0000  0.0000  0.0000
16829TPS    HA223158   2.317   4.644   1.319  0.0000  0.0000  0.0000
16829TPS    CA223159   2.344   4.736   1.370  0.0000  0.0000  0.0000
16829TPS    CA123160   2.369   4.855   1.300  0.0000  0.0000  0.0000
16829TPS     Si23161   2.369   4.855   1.114  0.0000  0.0000  0.0000
16829TPS    CA623162   2.410   4.969   1.372  0.0000  0.0000  0.0000
16829TPS    HH623163   2.425   5.065   1.323  0.0000  0.0000  0.0000
16829TPS    CA523164   2.433   4.962   1.511  0.0000  0.0000  0.0000
16829TPS    HA523165   2.465   5.049   1.566  0.0000  0.0000  0.0000
16829TPS    CA423166   2.410   4.841   1.579  0.0000  0.0000  0.0000
16829TPS    HA423167   2.429   4.835   1.686  0.0000  0.0000  0.0000
16829TPS    CA323168   2.363   4.729   1.509  0.0000  0.0000  0.0000
16829TPS    HA323169   2.346   4.636   1.563  0.0000  0.0000  0.0000
16830TPS    HA223170   7.753   3.273   1.565  0.0000  0.0000  0.0000
16830TPS    CA223171   7.747   3.368   1.616  0.0000  0.0000  0.0000
16830TPS    CA123172   7.730   3.489   1.546  0.0000  0.0000  0.0000
16830TPS     Si23173   7.730   3.489   1.360  0.0000  0.0000  0.0000
16830TPS    CA623174   7.730   3.610   1.618  0.0000  0.0000  0.0000
16830TPS    HH623175   7.711   3.705   1.569  0.0000  0.0000  0.0000
16830TPS    CA523176   7.753   3.611   1.757  0.0000  0.0000  0.0000
16830TPS    HA523177   7.754   3.704   1.812  0.0000  0.0000  0.0000
16830TPS    CA423178   7.773   3.490   1.825  0.0000  0.0000  0.0000
16830TPS    HA423179   7.793   3.491   1.932  0.0000  0.0000  0.0000
16830TPS    CA323180   7.767   3.369   1.755  0.0000  0.0000  0.0000
16830TPS    HA323181   7.783   3.276   1.809  0.0000  0.0000  0.0000
16831TPS    HA223182   2.835   1.857   1.563  0.0000  0.0000  0.0000
16831TPS    CA223183   2.862   1.949   1.614  0.0000  0.0000  0.0000
16831TPS    CA123184   2.887   2.068   1.544  0.0000  0.0000  0.0000
16831TPS     Si23185   2.887   2.068   1.358  0.0000  0.0000  0.0000
16831TPS    CA623186   2.928   2.182   1.616  0.0000  0.0000  0.0000
16831TPS    HH623187   2.943   2.278   1.567  0.0000  0.0000  0.0000
16831TPS    CA523188   2.951   2.175   1.755  0.0000  0.0000  0.0000
16831TPS    HA523189   2.983   2.262   1.810  0.0000  0.0000  0.0000
16831TPS    CA423190   2.928   2.054   1.823  0.0000  0.0000  0.0000
16831TPS    HA423191   2.947   2.048   1.930  0.0000  0.0000  0.0000
16831TPS    CA323192   2.881   1.942   1.753  0.0000  0.0000  0.0000
16831TPS    HA323193   2.864   1.849   1.807  0.0000  0.0000  0.0000
16832TPS    HA223194   0.307   7.116   1.484  0.0000  0.0000  0.0000
16832TPS    CA223195   0.402   7.105   1.535  0.0000  0.0000  0.0000
16832TPS    CA123196   0.524   7.101   1.465  0.0000  0.0000  0.0000
16832TPS     Si23197   0.524   7.101   1.279  0.0000  0.0000  0.0000
16832TPS    CA623198   0.644   7.080   1.537  0.0000  0.0000  0.0000
16832TPS    HH623199   0.740   7.082   1.488  0.0000  0.0000  0.0000
16832TPS    CA523200   0.640   7.057   1.676  0.0000  0.0000  0.0000
16832TPS    HA523201   0.732   7.040   1.731  0.0000  0.0000  0.0000
16832TPS    CA423202   0.518   7.058   1.744  0.0000  0.0000  0.0000
16832TPS    HA423203   0.515   7.038   1.851  0.0000  0.0000  0.0000
16832TPS    CA323204   0.399   7.085   1.674  0.0000  0.0000  0.0000
16832TPS    HA323205   0.305   7.086   1.728  0.0000  0.0000  0.0000
16833TPS    HA223206   7.676   4.270   1.426  0.0000  0.0000  0.0000
16833TPS    CA223207   7.703   4.362   1.477  0.0000  0.0000  0.0000
16833TPS    CA123208   7.728   4.481   1.407  0.0000  0.0000  0.0000
16833TPS     Si23209   7.728   4.481   1.221  0.0000  0.0000  0.0000
16833TPS    CA623210   7.769   4.595   1.479  0.0000  0.0000  0.0000
16833TPS    HH623211   7.784   4.691   1.430  0.0000  0.0000  0.0000
16833TPS    CA523212   7.792   4.588   1.618  0.0000  0.0000  0.0000
16833TPS    HA523213   7.824   4.675   1.673  0.0000  0.0000  0.0000
16833TPS    CA423214   7.769   4.467   1.686  0.0000  0.0000  0.0000
16833TPS    HA423215   7.788   4.461   1.793  0.0000  0.0000  0.0000
16833TPS    CA323216   7.722   4.355   1.616  0.0000  0.0000  0.0000
16833TPS    HA323217   7.705   4.262   1.670  0.0000  0.0000  0.0000
16834TPS    HA223218   0.711   8.455   1.606  0.0000  0.0000  0.0000
16834TPS    CA223219   0.738   8.547   1.657  0.0000  0.0000  0.0000
16834TPS    CA123220   0.763   8.666   1.587  0.0000  0.0000  0.0000
16834TPS     Si23221   0.763   8.666   1.401  0.0000  0.0000  0.0000
16834TPS    CA623222   0.804   8.780   1.659  0.0000  0.0000  0.0000
16834TPS    HH623223   0.819   8.876   1.610  0.0000  0.0000  0.0000
16834TPS    CA523224   0.827   8.773   1.798  0.0000  0.0000  0.0000
16834TPS    HA523225   0.859   8.860   1.853  0.0000  0.0000  0.0000
16834TPS    CA423226   0.804   8.652   1.866  0.0000  0.0000  0.0000
16834TPS    HA423227   0.823   8.646   1.973  0.0000  0.0000  0.0000
16834TPS    CA323228   0.757   8.540   1.796  0.0000  0.0000  0.0000
16834TPS    HA323229   0.740   8.447   1.850  0.0000  0.0000  0.0000
16835TPS    HA223230   2.476   3.213   8.044  0.0000  0.0000  0.0000
16835TPS    CA223231   2.390   3.171   7.993  0.0000  0.0000  0.0000
16835TPS    CA123232   2.277   3.125   8.063  0.0000  0.0000  0.0000
16835TPS     Si23233   2.277   3.125   8.249  0.0000  0.0000  0.0000
16835TPS    CA623234   2.172   3.065   7.991  0.0000  0.0000  0.0000
16835TPS    HH623235   2.080   3.033   8.040  0.0000  0.0000  0.0000
16835TPS    CA523236   2.183   3.044   7.852  0.0000  0.0000  0.0000
16835TPS    HA523237   2.102   2.997   7.797  0.0000  0.0000  0.0000
16835TPS    CA423238   2.298   3.087   7.784  0.0000  0.0000  0.0000
16835TPS    HA423239   2.307   3.069   7.677  0.0000  0.0000  0.0000
16835TPS    CA323240   2.400   3.153   7.854  0.0000  0.0000  0.0000
16835TPS    HA323241   2.488   3.186   7.800  0.0000  0.0000  0.0000
16836TPS    HA223242   5.448   1.384   8.139  0.0000  0.0000  0.0000
16836TPS    CA223243   5.355   1.407   8.088  0.0000  0.0000  0.0000
16836TPS    CA123244   5.239   1.445   8.158  0.0000  0.0000  0.0000
16836TPS     Si23245   5.239   1.445   8.344  0.0000  0.0000  0.0000
16836TPS    CA623246   5.120   1.467   8.086  0.0000  0.0000  0.0000
16836TPS    HH623247   5.029   1.501   8.135  0.0000  0.0000  0.0000
16836TPS    CA523248   5.115   1.443   7.947  0.0000  0.0000  0.0000
16836TPS    HA523249   5.023   1.459   7.892  0.0000  0.0000  0.0000
16836TPS    CA423250   5.230   1.403   7.879  0.0000  0.0000  0.0000
16836TPS    HA423251   5.226   1.383   7.772  0.0000  0.0000  0.0000
16836TPS    CA323252   5.351   1.387   7.949  0.0000  0.0000  0.0000
16836TPS    HA323253   5.440   1.356   7.895  0.0000  0.0000  0.0000
16837TPS    HA223254   9.204   6.772   8.103  0.0000  0.0000  0.0000
16837TPS    CA223255   9.231   6.680   8.052  0.0000  0.0000  0.0000
16837TPS    CA123256   9.256   6.561   8.122  0.0000  0.0000  0.0000
16837TPS     Si23257   9.256   6.561   8.308  0.0000  0.0000  0.0000
16837TPS    CA623258   9.297   6.447   8.050  0.0000  0.0000  0.0000
16837TPS    HH623259   9.312   6.351   8.099  0.0000  0.0000  0.0000
16837TPS    CA523260   9.320   6.454   7.911  0.0000  0.0000  0.0000
16837TPS    HA523261   9.352   6.367   7.856  0.0000  0.0000  0.0000
16837TPS    CA423262   9.297   6.575   7.843  0.0000  0.0000  0.0000
16837TPS    HA423263   9.316   6.581   7.736  0.0000  0.0000  0.0000
16837TPS    CA323264   9.250   6.687   7.913  0.0000  0.0000  0.0000
16837TPS    HA323265   9.233   6.780   7.859  0.0000  0.0000  0.0000
16838TPS    HA223266   2.204   8.445   1.418  0.0000  0.0000  0.0000
16838TPS    CA223267   2.231   8.537   1.469  0.0000  0.0000  0.0000
16838TPS    CA123268   2.256   8.656   1.399  0.0000  0.0000  0.0000
16838TPS     Si23269   2.256   8.656   1.213  0.0000  0.0000  0.0000
16838TPS    CA623270   2.297   8.770   1.471  0.0000  0.0000  0.0000
16838TPS    HH623271   2.312   8.866   1.422  0.0000  0.0000  0.0000
16838TPS    CA523272   2.320   8.763   1.610  0.0000  0.0000  0.0000
16838TPS    HA523273   2.352   8.850   1.665  0.0000  0.0000  0.0000
16838TPS    CA423274   2.297   8.642   1.678  0.0000  0.0000  0.0000
16838TPS    HA423275   2.316   8.636   1.785  0.0000  0.0000  0.0000
16838TPS    CA323276   2.250   8.530   1.608  0.0000  0.0000  0.0000
16838TPS    HA323277   2.233   8.437   1.662  0.0000  0.0000  0.0000
16839TPS    HA223278   9.241   9.019   1.547  0.0000  0.0000  0.0000
16839TPS    CA223279   9.268   9.111   1.598  0.0000  0.0000  0.0000
16839TPS    CA123280   9.293   9.230   1.528  0.0000  0.0000  0.0000
16839TPS     Si23281   9.293   9.230   1.342  0.0000  0.0000  0.0000
16839TPS    CA623282   9.334   9.344   1.600  0.0000  0.0000  0.0000
16839TPS    HH623283   9.349   9.440   1.551  0.0000  0.0000  0.0000
16839TPS    CA523284   9.357   9.337   1.739  0.0000  0.0000  0.0000
16839TPS    HA523285   9.389   9.424   1.794  0.0000  0.0000  0.0000
16839TPS    CA423286   9.334   9.216   1.807  0.0000  0.0000  0.0000
16839TPS    HA423287   9.353   9.210   1.914  0.0000  0.0000  0.0000
16839TPS    CA323288   9.287   9.104   1.737  0.0000  0.0000  0.0000
16839TPS    HA323289   9.270   9.011   1.791  0.0000  0.0000  0.0000
16840TPS    HA223290   9.225   8.213   1.484  0.0000  0.0000  0.0000
16840TPS    CA223291   9.252   8.305   1.535  0.0000  0.0000  0.0000
16840TPS    CA123292   9.277   8.424   1.465  0.0000  0.0000  0.0000
16840TPS     Si23293   9.277   8.424   1.279  0.0000  0.0000  0.0000
16840TPS    CA623294   9.318   8.538   1.537  0.0000  0.0000  0.0000
16840TPS    HH623295   9.333   8.634   1.488  0.0000  0.0000  0.0000
16840TPS    CA523296   9.341   8.531   1.676  0.0000  0.0000  0.0000
16840TPS    HA523297   9.373   8.618   1.731  0.0000  0.0000  0.0000
16840TPS    CA423298   9.318   8.410   1.744  0.0000  0.0000  0.0000
16840TPS    HA423299   9.337   8.404   1.851  0.0000  0.0000  0.0000
16840TPS    CA323300   9.271   8.298   1.674  0.0000  0.0000  0.0000
16840TPS    HA323301   9.254   8.205   1.728  0.0000  0.0000  0.0000
16841TPS    HA223302   1.398   7.782   8.127  0.0000  0.0000  0.0000
16841TPS    CA223303   1.425   7.690   8.076  0.0000  0.0000  0.0000
16841TPS    CA123304   1.450   7.571   8.146  0.0000  0.0000  0.0000
16841TPS     Si23305   1.450   7.571   8.332  0.0000  0.0000  0.0000
16841TPS    CA623306   1.491   7.457   8.074  0.0000  0.0000  0.0000
16841TPS    HH623307   1.506   7.361   8.123  0.0000  0.0000  0.0000
16841TPS    CA523308   1.514   7.464   7.935  0.0000  0.0000  0.0000
16841TPS    HA523309   1.546   7.377   7.880  0.0000  0.0000  0.0000
16841TPS    CA423310   1.491   7.585   7.867  0.0000  0.0000  0.0000
16841TPS    HA423311   1.510   7.591   7.760  0.0000  0.0000  0.0000
16841TPS    CA323312   1.444   7.697   7.937  0.0000  0.0000  0.0000
16841TPS    HA323313   1.427   7.790   7.883  0.0000  0.0000  0.0000
16842TPS    HA223314   4.747   7.908   8.094  0.0000  0.0000  0.0000
16842TPS    CA223315   4.774   7.816   8.043  0.0000  0.0000  0.0000
16842TPS    CA123316   4.799   7.697   8.113  0.0000  0.0000  0.0000
16842TPS     Si23317   4.799   7.697   8.299  0.0000  0.0000  0.0000
16842TPS    CA623318   4.840   7.583   8.041  0.0000  0.0000  0.0000
16842TPS    HH623319   4.855   7.487   8.090  0.0000  0.0000  0.0000
16842TPS    CA523320   4.863   7.590   7.902  0.0000  0.0000  0.0000
16842TPS    HA523321   4.895   7.503   7.847  0.0000  0.0000  0.0000
16842TPS    CA423322   4.840   7.711   7.834  0.0000  0.0000  0.0000
16842TPS    HA423323   4.859   7.717   7.727  0.0000  0.0000  0.0000
16842TPS    CA323324   4.793   7.823   7.904  0.0000  0.0000  0.0000
16842TPS    HA323325   4.776   7.916   7.850  0.0000  0.0000  0.0000
16843TPS    HA223326   5.495   1.299   1.417  0.0000  0.0000  0.0000
16843TPS    CA223327   5.522   1.391   1.468  0.0000  0.0000  0.0000
16843TPS    CA123328   5.547   1.510   1.398  0.0000  0.0000  0.0000
16843TPS     Si23329   5.547   1.510   1.212  0.0000  0.0000  0.0000
16843TPS    CA623330   5.588   1.624   1.470  0.0000  0.0000  0.0000
16843TPS    HH623331   5.603   1.720   1.421  0.0000  0.0000  0.0000
16843TPS    CA523332   5.611   1.617   1.609  0.0000  0.0000  0.0000
16843TPS    HA523333   5.643   1.704   1.664  0.0000  0.0000  0.0000
16843TPS    CA423334   5.588   1.496   1.677  0.0000  0.0000  0.0000
16843TPS    HA423335   5.607   1.490   1.784  0.0000  0.0000  0.0000
16843TPS    CA323336   5.541   1.384   1.607  0.0000  0.0000  0.0000
16843TPS    HA323337   5.524   1.291   1.661  0.0000  0.0000  0.0000
16844TPS    HA223338   6.979   0.516   1.514  0.0000  0.0000  0.0000
16844TPS    CA223339   7.006   0.608   1.565  0.0000  0.0000  0.0000
16844TPS    CA123340   7.031   0.727   1.495  0.0000  0.0000  0.0000
16844TPS     Si23341   7.031   0.727   1.309  0.0000  0.0000  0.0000
16844TPS    CA623342   7.072   0.841   1.567  0.0000  0.0000  0.0000
16844TPS    HH623343   7.087   0.937   1.518  0.0000  0.0000  0.0000
16844TPS    CA523344   7.095   0.834   1.706  0.0000  0.0000  0.0000
16844TPS    HA523345   7.127   0.921   1.761  0.0000  0.0000  0.0000
16844TPS    CA423346   7.072   0.713   1.774  0.0000  0.0000  0.0000
16844TPS    HA423347   7.091   0.707   1.881  0.0000  0.0000  0.0000
16844TPS    CA323348   7.025   0.601   1.704  0.0000  0.0000  0.0000
16844TPS    HA323349   7.008   0.508   1.758  0.0000  0.0000  0.0000
16845TPS    HA223350   0.734   9.429   8.167  0.0000  0.0000  0.0000
16845TPS    CA223351   0.761   9.337   8.116  0.0000  0.0000  0.0000
16845TPS    CA123352   0.786   9.218   8.186  0.0000  0.0000  0.0000
16845TPS     Si23353   0.786   9.218   8.372  0.0000  0.0000  0.0000
16845TPS    CA623354   0.827   9.104   8.114  0.0000  0.0000  0.0000
16845TPS    HH623355   0.842   9.008   8.163  0.0000  0.0000  0.0000
16845TPS    CA523356   0.850   9.111   7.975  0.0000  0.0000  0.0000
16845TPS    HA523357   0.882   9.024   7.920  0.0000  0.0000  0.0000
16845TPS    CA423358   0.827   9.232   7.907  0.0000  0.0000  0.0000
16845TPS    HA423359   0.846   9.238   7.800  0.0000  0.0000  0.0000
16845TPS    CA323360   0.780   9.344   7.977  0.0000  0.0000  0.0000
16845TPS    HA323361   0.763   9.437   7.923  0.0000  0.0000  0.0000
16846TPS    HA223362   4.349   4.493   8.042  0.0000  0.0000  0.0000
16846TPS    CA223363   4.376   4.401   7.991  0.0000  0.0000  0.0000
16846TPS    CA123364   4.401   4.282   8.061  0.0000  0.0000  0.0000
16846TPS     Si23365   4.401   4.282   8.247  0.0000  0.0000  0.0000
16846TPS    CA623366   4.442   4.168   7.989  0.0000  0.0000  0.0000
16846TPS    HH623367   4.457   4.072   8.038  0.0000  0.0000  0.0000
16846TPS    CA523368   4.465   4.175   7.850  0.0000  0.0000  0.0000
16846TPS    HA523369   4.497   4.088   7.795  0.0000  0.0000  0.0000
16846TPS    CA423370   4.442   4.296   7.782  0.0000  0.0000  0.0000
16846TPS    HA423371   4.461   4.302   7.675  0.0000  0.0000  0.0000
16846TPS    CA323372   4.395   4.408   7.852  0.0000  0.0000  0.0000
16846TPS    HA323373   4.378   4.501   7.798  0.0000  0.0000  0.0000
16847TPS    HA223374   0.688   5.739   1.589  0.0000  0.0000  0.0000
16847TPS    CA223375   0.715   5.831   1.640  0.0000  0.0000  0.0000
16847TPS    CA123376   0.740   5.950   1.570  0.0000  0.0000  0.0000
16847TPS     Si23377   0.740   5.950   1.384  0.0000  0.0000  0.0000
16847TPS    CA623378   0.781   6.064   1.642  0.0000  0.0000  0.0000
16847TPS    HH623379   0.796   6.160   1.593  0.0000  0.0000  0.0000
16847TPS    CA523380   0.804   6.057   1.781  0.0000  0.0000  0.0000
16847TPS    HA523381   0.836   6.144   1.836  0.0000  0.0000  0.0000
16847TPS    CA423382   0.781   5.936   1.849  0.0000  0.0000  0.0000
16847TPS    HA423383   0.800   5.930   1.956  0.0000  0.0000  0.0000
16847TPS    CA323384   0.734   5.824   1.779  0.0000  0.0000  0.0000
16847TPS    HA323385   0.717   5.731   1.833  0.0000  0.0000  0.0000
16848TPS    HA223386   0.675   6.700   8.131  0.0000  0.0000  0.0000
16848TPS    CA223387   0.669   6.605   8.080  0.0000  0.0000  0.0000
16848TPS    CA123388   0.652   6.484   8.150  0.0000  0.0000  0.0000
16848TPS     Si23389   0.652   6.484   8.336  0.0000  0.0000  0.0000
16848TPS    CA623390   0.652   6.363   8.078  0.0000  0.0000  0.0000
16848TPS    HH623391   0.633   6.268   8.127  0.0000  0.0000  0.0000
16848TPS    CA523392   0.675   6.362   7.939  0.0000  0.0000  0.0000
16848TPS    HA523393   0.676   6.269   7.884  0.0000  0.0000  0.0000
16848TPS    CA423394   0.695   6.483   7.871  0.0000  0.0000  0.0000
16848TPS    HA423395   0.715   6.482   7.764  0.0000  0.0000  0.0000
16848TPS    CA323396   0.689   6.604   7.941  0.0000  0.0000  0.0000
16848TPS    HA323397   0.705   6.697   7.887  0.0000  0.0000  0.0000
16849TPS    HA223398   3.142   4.735   8.106  0.0000  0.0000  0.0000
16849TPS    CA223399   3.169   4.643   8.055  0.0000  0.0000  0.0000
16849TPS    CA123400   3.194   4.524   8.125  0.0000  0.0000  0.0000
16849TPS     Si23401   3.194   4.524   8.311  0.0000  0.0000  0.0000
16849TPS    CA623402   3.235   4.410   8.053  0.0000  0.0000  0.0000
16849TPS    HH623403   3.250   4.314   8.102  0.0000  0.0000  0.0000
16849TPS    CA523404   3.258   4.417   7.914  0.0000  0.0000  0.0000
16849TPS    HA523405   3.290   4.330   7.859  0.0000  0.0000  0.0000
16849TPS    CA423406   3.235   4.538   7.846  0.0000  0.0000  0.0000
16849TPS    HA423407   3.254   4.544   7.739  0.0000  0.0000  0.0000
16849TPS    CA323408   3.188   4.650   7.916  0.0000  0.0000  0.0000
16849TPS    HA323409   3.171   4.743   7.862  0.0000  0.0000  0.0000
16850TPS    HA223410   2.069   6.147   8.002  0.0000  0.0000  0.0000
16850TPS    CA223411   2.096   6.055   7.951  0.0000  0.0000  0.0000
16850TPS    CA123412   2.121   5.936   8.021  0.0000  0.0000  0.0000
16850TPS     Si23413   2.121   5.936   8.207  0.0000  0.0000  0.0000
16850TPS    CA623414   2.162   5.822   7.949  0.0000  0.0000  0.0000
16850TPS    HH623415   2.177   5.726   7.998  0.0000  0.0000  0.0000
16850TPS    CA523416   2.185   5.829   7.810  0.0000  0.0000  0.0000
16850TPS    HA523417   2.217   5.742   7.755  0.0000  0.0000  0.0000
16850TPS    CA423418   2.162   5.950   7.742  0.0000  0.0000  0.0000
16850TPS    HA423419   2.181   5.956   7.635  0.0000  0.0000  0.0000
16850TPS    CA323420   2.115   6.062   7.812  0.0000  0.0000  0.0000
16850TPS    HA323421   2.098   6.155   7.758  0.0000  0.0000  0.0000
16851TPS    HA223422   2.560   9.215   8.204  0.0000  0.0000  0.0000
16851TPS    CA223423   2.587   9.123   8.153  0.0000  0.0000  0.0000
16851TPS    CA123424   2.612   9.004   8.223  0.0000  0.0000  0.0000
16851TPS     Si23425   2.612   9.004   8.409  0.0000  0.0000  0.0000
16851TPS    CA623426   2.653   8.890   8.151  0.0000  0.0000  0.0000
16851TPS    HH623427   2.668   8.794   8.200  0.0000  0.0000  0.0000
16851TPS    CA523428   2.676   8.897   8.012  0.0000  0.0000  0.0000
16851TPS    HA523429   2.708   8.810   7.957  0.0000  0.0000  0.0000
16851TPS    CA423430   2.653   9.018   7.944  0.0000  0.0000  0.0000
16851TPS    HA423431   2.672   9.024   7.837  0.0000  0.0000  0.0000
16851TPS    CA323432   2.606   9.130   8.014  0.0000  0.0000  0.0000
16851TPS    HA323433   2.589   9.223   7.960  0.0000  0.0000  0.0000
16852TPS    HA223434   0.730   9.305   1.374  0.0000  0.0000  0.0000
16852TPS    CA223435   0.724   9.400   1.425  0.0000  0.0000  0.0000
16852TPS    CA123436   0.707   9.521   1.355  0.0000  0.0000  0.0000
16852TPS     Si23437   0.707   9.521   1.169  0.0000  0.0000  0.0000
16852TPS    CA623438   0.707   9.642   1.427  0.0000  0.0000  0.0000
16852TPS    HH623439   0.688   9.737   1.378  0.0000  0.0000  0.0000
16852TPS    CA523440   0.730   9.643   1.566  0.0000  0.0000  0.0000
16852TPS    HA523441   0.731   9.736   1.621  0.0000  0.0000  0.0000
16852TPS    CA423442   0.750   9.522   1.634  0.0000  0.0000  0.0000
16852TPS    HA423443   0.770   9.523   1.741  0.0000  0.0000  0.0000
16852TPS    CA323444   0.744   9.401   1.564  0.0000  0.0000  0.0000
16852TPS    HA323445   0.760   9.308   1.618  0.0000  0.0000  0.0000
16853TPS    HA223446   7.450   0.238   1.663  0.0000  0.0000  0.0000
16853TPS    CA223447   7.477   0.330   1.714  0.0000  0.0000  0.0000
16853TPS    CA123448   7.502   0.449   1.644  0.0000  0.0000  0.0000
16853TPS     Si23449   7.502   0.449   1.458  0.0000  0.0000  0.0000
16853TPS    CA623450   7.543   0.563   1.716  0.0000  0.0000  0.0000
16853TPS    HH623451   7.558   0.659   1.667  0.0000  0.0000  0.0000
16853TPS    CA523452   7.566   0.556   1.855  0.0000  0.0000  0.0000
16853TPS    HA523453   7.598   0.643   1.910  0.0000  0.0000  0.0000
16853TPS    CA423454   7.543   0.435   1.923  0.0000  0.0000  0.0000
16853TPS    HA423455   7.562   0.429   2.030  0.0000  0.0000  0.0000
16853TPS    CA323456   7.496   0.323   1.853  0.0000  0.0000  0.0000
16853TPS    HA323457   7.479   0.230   1.907  0.0000  0.0000  0.0000
16854TPS    HA223458   3.155   1.490   8.240  0.0000  0.0000  0.0000
16854TPS    CA223459   3.149   1.395   8.189  0.0000  0.0000  0.0000
16854TPS    CA123460   3.132   1.274   8.259  0.0000  0.0000  0.0000
16854TPS     Si23461   3.132   1.274   8.445  0.0000  0.0000  0.0000
16854TPS    CA623462   3.132   1.153   8.187  0.0000  0.0000  0.0000
16854TPS    HH623463   3.113   1.058   8.236  0.0000  0.0000  0.0000
16854TPS    CA523464   3.155   1.152   8.048  0.0000  0.0000  0.0000
16854TPS    HA523465   3.156   1.059   7.993  0.0000  0.0000  0.0000
16854TPS    CA423466   3.175   1.273   7.980  0.0000  0.0000  0.0000
16854TPS    HA423467   3.195   1.272   7.873  0.0000  0.0000  0.0000
16854TPS    CA323468   3.169   1.394   8.050  0.0000  0.0000  0.0000
16854TPS    HA323469   3.185   1.487   7.996  0.0000  0.0000  0.0000
16855TPS    HA223470   0.812   3.302   8.012  0.0000  0.0000  0.0000
16855TPS    CA223471   0.839   3.210   7.961  0.0000  0.0000  0.0000
16855TPS    CA123472   0.864   3.091   8.031  0.0000  0.0000  0.0000
16855TPS     Si23473   0.864   3.091   8.217  0.0000  0.0000  0.0000
16855TPS    CA623474   0.905   2.977   7.959  0.0000  0.0000  0.0000
16855TPS    HH623475   0.920   2.881   8.008  0.0000  0.0000  0.0000
16855TPS    CA523476   0.928   2.984   7.820  0.0000  0.0000  0.0000
16855TPS    HA523477   0.960   2.897   7.765  0.0000  0.0000  0.0000
16855TPS    CA423478   0.905   3.105   7.752  0.0000  0.0000  0.0000
16855TPS    HA423479   0.924   3.111   7.645  0.0000  0.0000  0.0000
16855TPS    CA323480   0.858   3.217   7.822  0.0000  0.0000  0.0000
16855TPS    HA323481   0.841   3.310   7.768  0.0000  0.0000  0.0000
16856TPS    HA223482   6.336   5.741   1.610  0.0000  0.0000  0.0000
16856TPS    CA223483   6.363   5.833   1.661  0.0000  0.0000  0.0000
16856TPS    CA123484   6.388   5.952   1.591  0.0000  0.0000  0.0000
16856TPS     Si23485   6.388   5.952   1.405  0.0000  0.0000  0.0000
16856TPS    CA623486   6.429   6.066   1.663  0.0000  0.0000  0.0000
16856TPS    HH623487   6.444   6.162   1.614  0.0000  0.0000  0.0000
16856TPS    CA523488   6.452   6.059   1.802  0.0000  0.0000  0.0000
16856TPS    HA523489   6.484   6.146   1.857  0.0000  0.0000  0.0000
16856TPS    CA423490   6.429   5.938   1.870  0.0000  0.0000  0.0000
16856TPS    HA423491   6.448   5.932   1.977  0.0000  0.0000  0.0000
16856TPS    CA323492   6.382   5.826   1.800  0.0000  0.0000  0.0000
16856TPS    HA323493   6.365   5.733   1.854  0.0000  0.0000  0.0000
16857TPS    HA223494   3.494   0.638   1.369  0.0000  0.0000  0.0000
16857TPS    CA223495   3.521   0.730   1.420  0.0000  0.0000  0.0000
16857TPS    CA123496   3.546   0.849   1.350  0.0000  0.0000  0.0000
16857TPS     Si23497   3.546   0.849   1.164  0.0000  0.0000  0.0000
16857TPS    CA623498   3.587   0.963   1.422  0.0000  0.0000  0.0000
16857TPS    HH623499   3.602   1.059   1.373  0.0000  0.0000  0.0000
16857TPS    CA523500   3.610   0.956   1.561  0.0000  0.0000  0.0000
16857TPS    HA523501   3.642   1.043   1.616  0.0000  0.0000  0.0000
16857TPS    CA423502   3.587   0.835   1.629  0.0000  0.0000  0.0000
16857TPS    HA423503   3.606   0.829   1.736  0.0000  0.0000  0.0000
16857TPS    CA323504   3.540   0.723   1.559  0.0000  0.0000  0.0000
16857TPS    HA323505   3.523   0.630   1.613  0.0000  0.0000  0.0000
16858TPS    HA223506   5.839   2.949   1.611  0.0000  0.0000  0.0000
16858TPS    CA223507   5.866   3.041   1.662  0.0000  0.0000  0.0000
16858TPS    CA123508   5.891   3.160   1.592  0.0000  0.0000  0.0000
16858TPS     Si23509   5.891   3.160   1.406  0.0000  0.0000  0.0000
16858TPS    CA623510   5.932   3.274   1.664  0.0000  0.0000  0.0000
16858TPS    HH623511   5.947   3.370   1.615  0.0000  0.0000  0.0000
16858TPS    CA523512   5.955   3.267   1.803  0.0000  0.0000  0.0000
16858TPS    HA523513   5.987   3.354   1.858  0.0000  0.0000  0.0000
16858TPS    CA423514   5.932   3.146   1.871  0.0000  0.0000  0.0000
16858TPS    HA423515   5.951   3.140   1.978  0.0000  0.0000  0.0000
16858TPS    CA323516   5.885   3.034   1.801  0.0000  0.0000  0.0000
16858TPS    HA323517   5.868   2.941   1.855  0.0000  0.0000  0.0000
16859TPS    HA223518   6.478   7.529   1.565  0.0000  0.0000  0.0000
16859TPS    CA223519   6.505   7.621   1.616  0.0000  0.0000  0.0000
16859TPS    CA123520   6.530   7.740   1.546  0.0000  0.0000  0.0000
16859TPS     Si23521   6.530   7.740   1.360  0.0000  0.0000  0.0000
16859TPS    CA623522   6.571   7.854   1.618  0.0000  0.0000  0.0000
16859TPS    HH623523   6.586   7.950   1.569  0.0000  0.0000  0.0000
16859TPS    CA523524   6.594   7.847   1.757  0.0000  0.0000  0.0000
16859TPS    HA523525   6.626   7.934   1.812  0.0000  0.0000  0.0000
16859TPS    CA423526   6.571   7.726   1.825  0.0000  0.0000  0.0000
16859TPS    HA423527   6.590   7.720   1.932  0.0000  0.0000  0.0000
16859TPS    CA323528   6.524   7.614   1.755  0.0000  0.0000  0.0000
16859TPS    HA323529   6.507   7.521   1.809  0.0000  0.0000  0.0000
16860TPS    HA223530   7.358   6.411   1.541  0.0000  0.0000  0.0000
16860TPS    CA223531   7.385   6.503   1.592  0.0000  0.0000  0.0000
16860TPS    CA123532   7.410   6.622   1.522  0.0000  0.0000  0.0000
16860TPS     Si23533   7.410   6.622   1.336  0.0000  0.0000  0.0000
16860TPS    CA623534   7.451   6.736   1.594  0.0000  0.0000  0.0000
16860TPS    HH623535   7.466   6.832   1.545  0.0000  0.0000  0.0000
16860TPS    CA523536   7.474   6.729   1.733  0.0000  0.0000  0.0000
16860TPS    HA523537   7.506   6.816   1.788  0.0000  0.0000  0.0000
16860TPS    CA423538   7.451   6.608   1.801  0.0000  0.0000  0.0000
16860TPS    HA423539   7.470   6.602   1.908  0.0000  0.0000  0.0000
16860TPS    CA323540   7.404   6.496   1.731  0.0000  0.0000  0.0000
16860TPS    HA323541   7.387   6.403   1.785  0.0000  0.0000  0.0000
16861TPS    HA223542   2.447   5.866   8.108  0.0000  0.0000  0.0000
16861TPS    CA223543   2.540   5.843   8.057  0.0000  0.0000  0.0000
16861TPS    CA123544   2.656   5.805   8.127  0.0000  0.0000  0.0000
16861TPS     Si23545   2.656   5.805   8.313  0.0000  0.0000  0.0000
16861TPS    CA623546   2.775   5.783   8.055  0.0000  0.0000  0.0000
16861TPS    HH623547   2.866   5.749   8.104  0.0000  0.0000  0.0000
16861TPS    CA523548   2.780   5.807   7.916  0.0000  0.0000  0.0000
16861TPS    HA523549   2.872   5.791   7.861  0.0000  0.0000  0.0000
16861TPS    CA423550   2.665   5.847   7.848  0.0000  0.0000  0.0000
16861TPS    HA423551   2.669   5.867   7.741  0.0000  0.0000  0.0000
16861TPS    CA323552   2.544   5.863   7.918  0.0000  0.0000  0.0000
16861TPS    HA323553   2.455   5.894   7.864  0.0000  0.0000  0.0000
16862TPS    HA223554   8.551   3.481   8.169  0.0000  0.0000  0.0000
16862TPS    CA223555   8.578   3.389   8.118  0.0000  0.0000  0.0000
16862TPS    CA123556   8.603   3.270   8.188  0.0000  0.0000  0.0000
16862TPS     Si23557   8.603   3.270   8.374  0.0000  0.0000  0.0000
16862TPS    CA623558   8.644   3.156   8.116  0.0000  0.0000  0.0000
16862TPS    HH623559   8.659   3.060   8.165  0.0000  0.0000  0.0000
16862TPS    CA523560   8.667   3.163   7.977  0.0000  0.0000  0.0000
16862TPS    HA523561   8.699   3.076   7.922  0.0000  0.0000  0.0000
16862TPS    CA423562   8.644   3.284   7.909  0.0000  0.0000  0.0000
16862TPS    HA423563   8.663   3.290   7.802  0.0000  0.0000  0.0000
16862TPS    CA323564   8.597   3.396   7.979  0.0000  0.0000  0.0000
16862TPS    HA323565   8.580   3.489   7.925  0.0000  0.0000  0.0000
16863TPS    HA223566   1.094   5.927   7.963  0.0000  0.0000  0.0000
16863TPS    CA223567   1.121   5.835   7.912  0.0000  0.0000  0.0000
16863TPS    CA123568   1.146   5.716   7.982  0.0000  0.0000  0.0000
16863TPS     Si23569   1.146   5.716   8.168  0.0000  0.0000  0.0000
16863TPS    CA623570   1.187   5.602   7.910  0.0000  0.0000  0.0000
16863TPS    HH623571   1.202   5.506   7.959  0.0000  0.0000  0.0000
16863TPS    CA523572   1.210   5.609   7.771  0.0000  0.0000  0.0000
16863TPS    HA523573   1.242   5.522   7.716  0.0000  0.0000  0.0000
16863TPS    CA423574   1.187   5.730   7.703  0.0000  0.0000  0.0000
16863TPS    HA423575   1.206   5.736   7.596  0.0000  0.0000  0.0000
16863TPS    CA323576   1.140   5.842   7.773  0.0000  0.0000  0.0000
16863TPS    HA323577   1.123   5.935   7.719  0.0000  0.0000  0.0000
16864TPS    HA223578   2.095   5.990   1.505  0.0000  0.0000  0.0000
16864TPS    CA223579   2.089   6.085   1.556  0.0000  0.0000  0.0000
16864TPS    CA123580   2.072   6.206   1.486  0.0000  0.0000  0.0000
16864TPS     Si23581   2.072   6.206   1.300  0.0000  0.0000  0.0000
16864TPS    CA623582   2.072   6.327   1.558  0.0000  0.0000  0.0000
16864TPS    HH623583   2.053   6.422   1.509  0.0000  0.0000  0.0000
16864TPS    CA523584   2.095   6.328   1.697  0.0000  0.0000  0.0000
16864TPS    HA523585   2.096   6.421   1.752  0.0000  0.0000  0.0000
16864TPS    CA423586   2.115   6.207   1.765  0.0000  0.0000  0.0000
16864TPS    HA423587   2.135   6.208   1.872  0.0000  0.0000  0.0000
16864TPS    CA323588   2.109   6.086   1.695  0.0000  0.0000  0.0000
16864TPS    HA323589   2.125   5.993   1.749  0.0000  0.0000  0.0000
16865TPS    HA223590   7.640   4.552   1.440  0.0000  0.0000  0.0000
16865TPS    CA223591   7.634   4.647   1.491  0.0000  0.0000  0.0000
16865TPS    CA123592   7.617   4.768   1.421  0.0000  0.0000  0.0000
16865TPS     Si23593   7.617   4.768   1.235  0.0000  0.0000  0.0000
16865TPS    CA623594   7.617   4.889   1.493  0.0000  0.0000  0.0000
16865TPS    HH623595   7.598   4.984   1.444  0.0000  0.0000  0.0000
16865TPS    CA523596   7.640   4.890   1.632  0.0000  0.0000  0.0000
16865TPS    HA523597   7.641   4.983   1.687  0.0000  0.0000  0.0000
16865TPS    CA423598   7.660   4.769   1.700  0.0000  0.0000  0.0000
16865TPS    HA423599   7.680   4.770   1.807  0.0000  0.0000  0.0000
16865TPS    CA323600   7.654   4.648   1.630  0.0000  0.0000  0.0000
16865TPS    HA323601   7.670   4.555   1.684  0.0000  0.0000  0.0000
16866SL     Si123602   0.699   4.887   1.413  0.0000  0.0000  0.0000
16866SL      O123603   0.699   4.887   1.577  0.0000  0.0000  0.0000
16866SL      H123604   0.699   4.887   1.675  0.0000  0.0000  0.0000
16867SL     Si123605   8.830   4.024   1.332  0.0000  0.0000  0.0000
16867SL      O123606   8.830   4.024   1.496  0.0000  0.0000  0.0000
16867SL      H123607   8.830   4.024   1.594  0.0000  0.0000  0.0000
16868SL     Si123608   7.344   5.633   1.265  0.0000  0.0000  0.0000
16868SL      O123609   7.344   5.633   1.429  0.0000  0.0000  0.0000
16868SL      H123610   7.344   5.633   1.527  0.0000  0.0000  0.0000
16869SL     Si123611   3.552   1.314   8.304  0.0000  0.0000  0.0000
16869SL      O123612   3.552   1.314   8.140  0.0000  0.0000  0.0000
16869SL      H123613   3.552   1.314   8.042  0.0000  0.0000  0.0000
16870SL     Si123614   7.049   3.466   1.252  0.0000  0.0000  0.0000
16870SL      O123615   7.049   3.466   1.416  0.0000  0.0000  0.0000
16870SL      H123616   7.049   3.466   1.514  0.0000  0.0000  0.0000
16871SL     Si123617   4.579   1.916   8.298  0.0000  0.0000  0.0000
16871SL      O123618   4.579   1.916   8.134  0.0000  0.0000  0.0000
16871SL      H123619   4.579   1.916   8.036  0.0000  0.0000  0.0000
16872SL     Si123620   0.499   5.186   8.406  0.0000  0.0000  0.0000
16872SL      O123621   0.499   5.186   8.242  0.0000  0.0000  0.0000
16872SL      H123622   0.499   5.186   8.144  0.0000  0.0000  0.0000
16873SL     Si123623   0.116   8.023   1.369  0.0000  0.0000  0.0000
16873SL      O123624   0.116   8.023   1.533  0.0000  0.0000  0.0000
16873SL      H123625   0.116   8.023   1.631  0.0000  0.0000  0.0000
16874SL     Si123626   9.383   4.752   8.420  0.0000  0.0000  0.0000
16874SL      O123627   9.383   4.752   8.256  0.0000  0.0000  0.0000
16874SL      H123628   9.383   4.752   8.158  0.0000  0.0000  0.0000
16875SL     Si123629   0.975   1.598   1.243  0.0000  0.0000  0.0000
16875SL      O123630   0.975   1.598   1.407  0.0000  0.0000  0.0000
16875SL      H123631   0.975   1.598   1.505  0.0000  0.0000  0.0000
16876SL     Si123632   0.052   5.527   1.226  0.0000  0.0000  0.0000
16876SL      O123633   0.052   5.527   1.390  0.0000  0.0000  0.0000
16876SL      H123634   0.052   5.527   1.488  0.0000  0.0000  0.0000
16877SL     Si123635   0.256   4.722   1.286  0.0000  0.0000  0.0000
16877SL      O123636   0.256   4.722   1.450  0.0000  0.0000  0.0000
16877SL      H123637   0.256   4.722   1.548  0.0000  0.0000  0.0000
16878SL     Si123638   3.153   5.857   8.191  0.0000  0.0000  0.0000
16878SL      O123639   3.153   5.857   8.027  0.0000  0.0000  0.0000
16878SL      H123640   3.153   5.857   7.929  0.0000  0.0000  0.0000
16879SL     Si123641   4.113   8.803   8.240  0.0000  0.0000  0.0000
16879SL      O123642   4.113   8.803   8.076  0.0000  0.0000  0.0000
16879SL      H123643   4.113   8.803   7.978  0.0000  0.0000  0.0000
16880SL     Si123644   2.750   0.786   1.096  0.0000  0.0000  0.0000
16880SL      O123645   2.750   0.786   1.260  0.0000  0.0000  0.0000
16880SL      H123646   2.750   0.786   1.358  0.0000  0.0000  0.0000
16881SL     Si123647   1.973   4.126   8.323  0.0000  0.0000  0.0000
16881SL      O123648   1.973   4.126   8.159  0.0000  0.0000  0.0000
16881SL      H123649   1.973   4.126   8.061  0.0000  0.0000  0.0000
16882SL     Si123650   2.791   3.090   1.255  0.0000  0.0000  0.0000
16882SL      O123651   2.791   3.090   1.419  0.0000  0.0000  0.0000
16882SL      H123652   2.791   3.090   1.517  0.0000  0.0000  0.0000
16883SL     Si123653   9.387   0.117   1.137  0.0000  0.0000  0.0000
16883SL      O123654   9.387   0.117   1.301  0.0000  0.0000  0.0000
16883SL      H123655   9.387   0.117   1.399  0.0000  0.0000  0.0000
16884SL     Si123656   4.498   6.262   1.249  0.0000  0.0000  0.0000
16884SL      O123657   4.498   6.262   1.413  0.0000  0.0000  0.0000
16884SL      H123658   4.498   6.262   1.511  0.0000  0.0000  0.0000
16885SL     Si123659   0.249   9.420   8.311  0.0000  0.0000  0.0000
16885SL      O123660   0.249   9.420   8.147  0.0000  0.0000  0.0000
16885SL      H123661   0.249   9.420   8.049  0.0000  0.0000  0.0000
16886SL     Si123662   1.900   2.094   1.172  0.0000  0.0000  0.0000
16886SL      O123663   1.900   2.094   1.336  0.0000  0.0000  0.0000
16886SL      H123664   1.900   2.094   1.434  0.0000  0.0000  0.0000
16887SL     Si123665   5.364   7.646   1.221  0.0000  0.0000  0.0000
16887SL      O123666   5.364   7.646   1.385  0.0000  0.0000  0.0000
16887SL      H123667   5.364   7.646   1.483  0.0000  0.0000  0.0000
16888SL     Si123668   8.283   8.135   8.334  0.0000  0.0000  0.0000
16888SL      O123669   8.283   8.135   8.170  0.0000  0.0000  0.0000
16888SL      H123670   8.283   8.135   8.072  0.0000  0.0000  0.0000
16889SL     Si123671   8.423   1.478   1.261  0.0000  0.0000  0.0000
16889SL      O123672   8.423   1.478   1.425  0.0000  0.0000  0.0000
16889SL      H123673   8.423   1.478   1.523  0.0000  0.0000  0.0000
16890SL     Si123674   1.492   6.341   8.271  0.0000  0.0000  0.0000
16890SL      O123675   1.492   6.341   8.107  0.0000  0.0000  0.0000
16890SL      H123676   1.492   6.341   8.009  0.0000  0.0000  0.0000
16891SL     Si123677   6.013   0.551   1.272  0.0000  0.0000  0.0000
16891SL      O123678   6.013   0.551   1.436  0.0000  0.0000  0.0000
16891SL      H123679   6.013   0.551   1.534  0.0000  0.0000  0.0000
16892SL     Si123680   7.835   8.238   1.143  0.0000  0.0000  0.0000
16892SL      O123681   7.835   8.238   1.307  0.0000  0.0000  0.0000
16892SL      H123682   7.835   8.238   1.405  0.0000  0.0000  0.0000
16893SL     Si123683   3.307   8.479   8.231  0.0000  0.0000  0.0000
16893SL      O123684   3.307   8.479   8.067  0.0000  0.0000  0.0000
16893SL      H123685   3.307   8.479   7.969  0.0000  0.0000  0.0000
16894SL     Si123686   8.280   3.615   8.228  0.0000  0.0000  0.0000
16894SL      O123687   8.280   3.615   8.064  0.0000  0.0000  0.0000
16894SL      H123688   8.280   3.615   7.966  0.0000  0.0000  0.0000
16895SL     Si123689   8.966   6.995   8.231  0.0000  0.0000  0.0000
16895SL      O123690   8.966   6.995   8.067  0.0000  0.0000  0.0000
16895SL      H123691   8.966   6.995   7.969  0.0000  0.0000  0.0000
16896SL     Si123692   1.667   3.282   1.222  0.0000  0.0000  0.0000
16896SL      O123693   1.667   3.282   1.386  0.0000  0.0000  0.0000
16896SL      H123694   1.667   3.282   1.484  0.0000  0.0000  0.0000
16897SL     Si123695   0.941   5.907   8.294  0.0000  0.0000  0.0000
16897SL      O123696   0.941   5.907   8.130  0.0000  0.0000  0.0000
16897SL      H123697   0.941   5.907   8.032  0.0000  0.0000  0.0000
16898SL     Si123698   9.423   2.245   8.412  0.0000  0.0000  0.0000
16898SL      O123699   9.423   2.245   8.248  0.0000  0.0000  0.0000
16898SL      H123700   9.423   2.245   8.150  0.0000  0.0000  0.0000
16899SL     Si123701   4.684   4.138   1.237  0.0000  0.0000  0.0000
16899SL      O123702   4.684   4.138   1.401  0.0000  0.0000  0.0000
16899SL      H123703   4.684   4.138   1.499  0.0000  0.0000  0.0000
16900SL     Si123704   5.213   5.622   8.348  0.0000  0.0000  0.0000
16900SL      O123705   5.213   5.622   8.184  0.0000  0.0000  0.0000
16900SL      H123706   5.213   5.622   8.086  0.0000  0.0000  0.0000
16901SL     Si123707   6.166   6.551   8.195  0.0000  0.0000  0.0000
16901SL      O123708   6.166   6.551   8.031  0.0000  0.0000  0.0000
16901SL      H123709   6.166   6.551   7.933  0.0000  0.0000  0.0000
16902SL     Si123710   0.720   2.621   1.144  0.0000  0.0000  0.0000
16902SL      O123711   0.720   2.621   1.308  0.0000  0.0000  0.0000
16902SL      H123712   0.720   2.621   1.406  0.0000  0.0000  0.0000
16903SL     Si123713   9.148   1.692   8.385  0.0000  0.0000  0.0000
16903SL      O123714   9.148   1.692   8.221  0.0000  0.0000  0.0000
16903SL      H123715   9.148   1.692   8.123  0.0000  0.0000  0.0000
16904SL     Si123716   6.269   8.711   1.269  0.0000  0.0000  0.0000
16904SL      O123717   6.269   8.711   1.433  0.0000  0.0000  0.0000
16904SL      H123718   6.269   8.711   1.531  0.0000  0.0000  0.0000
16905SL     Si123719   1.070   5.356   1.179  0.0000  0.0000  0.0000
16905SL      O123720   1.070   5.356   1.343  0.0000  0.0000  0.0000
16905SL      H123721   1.070   5.356   1.441  0.0000  0.0000  0.0000
16906SL     Si123722   4.875   8.431   1.368  0.0000  0.0000  0.0000
16906SL      O123723   4.875   8.431   1.532  0.0000  0.0000  0.0000
16906SL      H123724   4.875   8.431   1.630  0.0000  0.0000  0.0000
16907SL     Si123725   3.889   9.181   8.292  0.0000  0.0000  0.0000
16907SL      O123726   3.889   9.181   8.128  0.0000  0.0000  0.0000
16907SL      H123727   3.889   9.181   8.030  0.0000  0.0000  0.0000
16908SL     Si123728   6.157   8.692   8.364  0.0000  0.0000  0.0000
16908SL      O123729   6.157   8.692   8.200  0.0000  0.0000  0.0000
16908SL      H123730   6.157   8.692   8.102  0.0000  0.0000  0.0000
16909SL     Si123731   6.313   1.966   8.476  0.0000  0.0000  0.0000
16909SL      O123732   6.313   1.966   8.312  0.0000  0.0000  0.0000
16909SL      H123733   6.313   1.966   8.214  0.0000  0.0000  0.0000
16910SL     Si123734   4.962   1.124   8.481  0.0000  0.0000  0.0000
16910SL      O123735   4.962   1.124   8.317  0.0000  0.0000  0.0000
16910SL      H123736   4.962   1.124   8.219  0.0000  0.0000  0.0000
16911SL     Si123737   8.747   3.665   1.460  0.0000  0.0000  0.0000
16911SL      O123738   8.747   3.665   1.624  0.0000  0.0000  0.0000
16911SL      H123739   8.747   3.665   1.722  0.0000  0.0000  0.0000
16912SL     Si123740   0.239   1.404   8.284  0.0000  0.0000  0.0000
16912SL      O123741   0.239   1.404   8.120  0.0000  0.0000  0.0000
16912SL      H123742   0.239   1.404   8.022  0.0000  0.0000  0.0000
16913SL     Si123743   2.585   5.026   8.441  0.0000  0.0000  0.0000
16913SL      O123744   2.585   5.026   8.277  0.0000  0.0000  0.0000
16913SL      H123745   2.585   5.026   8.179  0.0000  0.0000  0.0000
16914SL     Si123746   4.668   2.544   1.244  0.0000  0.0000  0.0000
16914SL      O123747   4.668   2.544   1.408  0.0000  0.0000  0.0000
16914SL      H123748   4.668   2.544   1.506  0.0000  0.0000  0.0000
16915SL     Si123749   3.834   2.901   1.366  0.0000  0.0000  0.0000
16915SL      O123750   3.834   2.901   1.530  0.0000  0.0000  0.0000
16915SL      H123751   3.834   2.901   1.628  0.0000  0.0000  0.0000
16916SL     Si123752   6.130   7.613   8.325  0.0000  0.0000  0.0000
16916SL      O123753   6.130   7.613   8.161  0.0000  0.0000  0.0000
16916SL      H123754   6.130   7.613   8.063  0.0000  0.0000  0.0000
16917SL     Si123755   7.569   9.121   1.413  0.0000  0.0000  0.0000
16917SL      O123756   7.569   9.121   1.577  0.0000  0.0000  0.0000
16917SL      H123757   7.569   9.121   1.675  0.0000  0.0000  0.0000
16918SL     Si123758   3.326   6.931   8.328  0.0000  0.0000  0.0000
16918SL      O123759   3.326   6.931   8.164  0.0000  0.0000  0.0000
16918SL      H123760   3.326   6.931   8.066  0.0000  0.0000  0.0000
16919SL     Si123761   9.283   8.499   8.336  0.0000  0.0000  0.0000
16919SL      O123762   9.283   8.499   8.172  0.0000  0.0000  0.0000
16919SL      H123763   9.283   8.499   8.074  0.0000  0.0000  0.0000
16920SL     Si123764   1.810   1.041   8.393  0.0000  0.0000  0.0000
16920SL      O123765   1.810   1.041   8.229  0.0000  0.0000  0.0000
16920SL      H123766   1.810   1.041   8.131  0.0000  0.0000  0.0000
16921SL     Si123767   3.410   3.283   0.843  0.0000  0.0000  0.0000
16921SL      O123768   3.410   3.283   1.007  0.0000  0.0000  0.0000
16921SL      H123769   3.410   3.283   1.105  0.0000  0.0000  0.0000
16922SL     Si123770   0.061   6.250   8.334  0.0000  0.0000  0.0000
16922SL      O123771   0.061   6.250   8.170  0.0000  0.0000  0.0000
16922SL      H123772   0.061   6.250   8.072  0.0000  0.0000  0.0000
16923SL     Si123773   2.168   5.346   8.339  0.0000  0.0000  0.0000
16923SL      O123774   2.168   5.346   8.175  0.0000  0.0000  0.0000
16923SL      H123775   2.168   5.346   8.077  0.0000  0.0000  0.0000
16924SL     Si123776   0.865   6.690   1.363  0.0000  0.0000  0.0000
16924SL      O123777   0.865   6.690   1.527  0.0000  0.0000  0.0000
16924SL      H123778   0.865   6.690   1.625  0.0000  0.0000  0.0000
16925SL     Si123779   2.405   7.164   8.412  0.0000  0.0000  0.0000
16925SL      O123780   2.405   7.164   8.248  0.0000  0.0000  0.0000
16925SL      H123781   2.405   7.164   8.150  0.0000  0.0000  0.0000
16926SL     Si123782   2.388   7.067   1.407  0.0000  0.0000  0.0000
16926SL      O123783   2.388   7.067   1.571  0.0000  0.0000  0.0000
16926SL      H123784   2.388   7.067   1.669  0.0000  0.0000  0.0000
16927SL     Si123785   5.888   4.981   1.354  0.0000  0.0000  0.0000
16927SL      O123786   5.888   4.981   1.518  0.0000  0.0000  0.0000
16927SL      H123787   5.888   4.981   1.616  0.0000  0.0000  0.0000
16928SL     Si123788   7.930   7.737   8.253  0.0000  0.0000  0.0000
16928SL      O123789   7.930   7.737   8.089  0.0000  0.0000  0.0000
16928SL      H123790   7.930   7.737   7.991  0.0000  0.0000  0.0000
16929SL     Si123791   5.863   4.260   8.319  0.0000  0.0000  0.0000
16929SL      O123792   5.863   4.260   8.155  0.0000  0.0000  0.0000
16929SL      H123793   5.863   4.260   8.057  0.0000  0.0000  0.0000
16930SL     Si123794   3.491   8.232   1.344  0.0000  0.0000  0.0000
16930SL      O123795   3.491   8.232   1.508  0.0000  0.0000  0.0000
16930SL      H123796   3.491   8.232   1.606  0.0000  0.0000  0.0000
16931SL     Si123797   3.718   7.823   8.295  0.0000  0.0000  0.0000
16931SL      O123798   3.718   7.823   8.131  0.0000  0.0000  0.0000
16931SL      H123799   3.718   7.823   8.033  0.0000  0.0000  0.0000
16932SL     Si123800   2.494   6.364   8.403  0.0000  0.0000  0.0000
16932SL      O123801   2.494   6.364   8.239  0.0000  0.0000  0.0000
16932SL      H123802   2.494   6.364   8.141  0.0000  0.0000  0.0000
16933SL     Si123803   4.956   1.209   1.234  0.0000  0.0000  0.0000
16933SL      O123804   4.956   1.209   1.398  0.0000  0.0000  0.0000
16933SL      H123805   4.956   1.209   1.496  0.0000  0.0000  0.0000
16934SL     Si123806   3.407   3.954   8.324  0.0000  0.0000  0.0000
16934SL      O123807   3.407   3.954   8.160  0.0000  0.0000  0.0000
16934SL      H123808   3.407   3.954   8.062  0.0000  0.0000  0.0000
16935SL     Si123809   2.663   2.070   8.380  0.0000  0.0000  0.0000
16935SL      O123810   2.663   2.070   8.216  0.0000  0.0000  0.0000
16935SL      H123811   2.663   2.070   8.118  0.0000  0.0000  0.0000
16936SL     Si123812   7.386   1.173   1.319  0.0000  0.0000  0.0000
16936SL      O123813   7.386   1.173   1.483  0.0000  0.0000  0.0000
16936SL      H123814   7.386   1.173   1.581  0.0000  0.0000  0.0000
16937SL     Si123815   3.481   1.265   1.444  0.0000  0.0000  0.0000
16937SL      O123816   3.481   1.265   1.608  0.0000  0.0000  0.0000
16937SL      H123817   3.481   1.265   1.706  0.0000  0.0000  0.0000
16938SL     Si123818   5.801   6.226   1.264  0.0000  0.0000  0.0000
16938SL      O123819   5.801   6.226   1.428  0.0000  0.0000  0.0000
16938SL      H123820   5.801   6.226   1.526  0.0000  0.0000  0.0000
16939SL     Si123821   5.007   7.349   8.404  0.0000  0.0000  0.0000
16939SL      O123822   5.007   7.349   8.240  0.0000  0.0000  0.0000
16939SL      H123823   5.007   7.349   8.142  0.0000  0.0000  0.0000
16940SL     Si123824   4.432   0.697   1.304  0.0000  0.0000  0.0000
16940SL      O123825   4.432   0.697   1.468  0.0000  0.0000  0.0000
16940SL      H123826   4.432   0.697   1.566  0.0000  0.0000  0.0000
16941SL     Si123827   2.454   0.715   1.146  0.0000  0.0000  0.0000
16941SL      O123828   2.454   0.715   1.310  0.0000  0.0000  0.0000
16941SL      H123829   2.454   0.715   1.408  0.0000  0.0000  0.0000
16942SL     Si123830   2.231   3.298   1.337  0.0000  0.0000  0.0000
16942SL      O123831   2.231   3.298   1.501  0.0000  0.0000  0.0000
16942SL      H123832   2.231   3.298   1.599  0.0000  0.0000  0.0000
16943SL     Si123833   8.342   4.133   8.297  0.0000  0.0000  0.0000
16943SL      O123834   8.342   4.133   8.133  0.0000  0.0000  0.0000
16943SL      H123835   8.342   4.133   8.035  0.0000  0.0000  0.0000
16944SL     Si123836   1.586   0.363   1.322  0.0000  0.0000  0.0000
16944SL      O123837   1.586   0.363   1.486  0.0000  0.0000  0.0000
16944SL      H123838   1.586   0.363   1.584  0.0000  0.0000  0.0000
16945SL     Si123839   3.453   3.195   1.127  0.0000  0.0000  0.0000
16945SL      O123840   3.453   3.195   1.291  0.0000  0.0000  0.0000
16945SL      H123841   3.453   3.195   1.389  0.0000  0.0000  0.0000
16946SL     Si123842   0.727   8.539   8.221  0.0000  0.0000  0.0000
16946SL      O123843   0.727   8.539   8.057  0.0000  0.0000  0.0000
16946SL      H123844   0.727   8.539   7.959  0.0000  0.0000  0.0000
16947SL     Si123845   0.251   5.746   1.312  0.0000  0.0000  0.0000
16947SL      O123846   0.251   5.746   1.476  0.0000  0.0000  0.0000
16947SL      H123847   0.251   5.746   1.574  0.0000  0.0000  0.0000
16948SL     Si123848   9.076   4.642   1.464  0.0000  0.0000  0.0000
16948SL      O123849   9.076   4.642   1.628  0.0000  0.0000  0.0000
16948SL      H123850   9.076   4.642   1.726  0.0000  0.0000  0.0000
16949SL     Si123851   5.671   9.153   1.349  0.0000  0.0000  0.0000
16949SL      O123852   5.671   9.153   1.513  0.0000  0.0000  0.0000
16949SL      H123853   5.671   9.153   1.611  0.0000  0.0000  0.0000
16950SL     Si123854   4.222   5.671   8.327  0.0000  0.0000  0.0000
16950SL      O123855   4.222   5.671   8.163  0.0000  0.0000  0.0000
16950SL      H123856   4.222   5.671   8.065  0.0000  0.0000  0.0000
16951SL     Si123857   4.878   9.165   1.352  0.0000  0.0000  0.0000
16951SL      O123858   4.878   9.165   1.516  0.0000  0.0000  0.0000
16951SL      H123859   4.878   9.165   1.614  0.0000  0.0000  0.0000
16952SL     Si123860   4.429   3.470   8.388  0.0000  0.0000  0.0000
16952SL      O123861   4.429   3.470   8.224  0.0000  0.0000  0.0000
16952SL      H123862   4.429   3.470   8.126  0.0000  0.0000  0.0000
16953SL     Si123863   7.095   4.155   1.358  0.0000  0.0000  0.0000
16953SL      O123864   7.095   4.155   1.522  0.0000  0.0000  0.0000
16953SL      H123865   7.095   4.155   1.620  0.0000  0.0000  0.0000
16954SL     Si123866   7.915   5.703   1.225  0.0000  0.0000  0.0000
16954SL      O123867   7.915   5.703   1.389  0.0000  0.0000  0.0000
16954SL      H123868   7.915   5.703   1.487  0.0000  0.0000  0.0000
16955SL     Si123869   7.305   5.425   8.252  0.0000  0.0000  0.0000
16955SL      O123870   7.305   5.425   8.088  0.0000  0.0000  0.0000
16955SL      H123871   7.305   5.425   7.990  0.0000  0.0000  0.0000
16956SL     Si123872   7.594   8.553   8.206  0.0000  0.0000  0.0000
16956SL      O123873   7.594   8.553   8.042  0.0000  0.0000  0.0000
16956SL      H123874   7.594   8.553   7.944  0.0000  0.0000  0.0000
16957SL     Si123875   7.204   8.366   8.266  0.0000  0.0000  0.0000
16957SL      O123876   7.204   8.366   8.102  0.0000  0.0000  0.0000
16957SL      H123877   7.204   8.366   8.004  0.0000  0.0000  0.0000
16958SL     Si123878   7.274   3.579   8.196  0.0000  0.0000  0.0000
16958SL      O123879   7.274   3.579   8.032  0.0000  0.0000  0.0000
16958SL      H123880   7.274   3.579   7.934  0.0000  0.0000  0.0000
16959SL     Si123881   0.630   4.802   8.314  0.0000  0.0000  0.0000
16959SL      O123882   0.630   4.802   8.150  0.0000  0.0000  0.0000
16959SL      H123883   0.630   4.802   8.052  0.0000  0.0000  0.0000
16960SL     Si123884   6.938   0.231   1.225  0.0000  0.0000  0.0000
16960SL      O123885   6.938   0.231   1.389  0.0000  0.0000  0.0000
16960SL      H123886   6.938   0.231   1.487  0.0000  0.0000  0.0000
16961SL     Si123887   2.557   3.162   8.381  0.0000  0.0000  0.0000
16961SL      O123888   2.557   3.162   8.217  0.0000  0.0000  0.0000
16961SL      H123889   2.557   3.162   8.119  0.0000  0.0000  0.0000
16962SL     Si123890   4.537   1.605   8.324  0.0000  0.0000  0.0000
16962SL      O123891   4.537   1.605   8.160  0.0000  0.0000  0.0000
16962SL      H123892   4.537   1.605   8.062  0.0000  0.0000  0.0000
16963SL     Si123893   7.742   5.745   8.365  0.0000  0.0000  0.0000
16963SL      O123894   7.742   5.745   8.201  0.0000  0.0000  0.0000
16963SL      H123895   7.742   5.745   8.103  0.0000  0.0000  0.0000
16964SL     Si123896   0.393   1.148   8.335  0.0000  0.0000  0.0000
16964SL      O123897   0.393   1.148   8.171  0.0000  0.0000  0.0000
16964SL      H123898   0.393   1.148   8.073  0.0000  0.0000  0.0000
16965SL     Si123899   1.624   3.763   8.445  0.0000  0.0000  0.0000
16965SL      O123900   1.624   3.763   8.281  0.0000  0.0000  0.0000
16965SL      H123901   1.624   3.763   8.183  0.0000  0.0000  0.0000
16966SL     Si123902   3.629   5.181   8.372  0.0000  0.0000  0.0000
16966SL      O123903   3.629   5.181   8.208  0.0000  0.0000  0.0000
16966SL      H123904   3.629   5.181   8.110  0.0000  0.0000  0.0000
16967SL     Si123905   0.238   6.487   8.363  0.0000  0.0000  0.0000
16967SL      O123906   0.238   6.487   8.199  0.0000  0.0000  0.0000
16967SL      H123907   0.238   6.487   8.101  0.0000  0.0000  0.0000
16968SL     Si123908   6.653   7.587   8.247  0.0000  0.0000  0.0000
16968SL      O123909   6.653   7.587   8.083  0.0000  0.0000  0.0000
16968SL      H123910   6.653   7.587   7.985  0.0000  0.0000  0.0000
16969SL     Si123911   7.116   2.990   1.288  0.0000  0.0000  0.0000
16969SL      O123912   7.116   2.990   1.452  0.0000  0.0000  0.0000
16969SL      H123913   7.116   2.990   1.550  0.0000  0.0000  0.0000
16970SL     Si123914   6.776   0.385   8.263  0.0000  0.0000  0.0000
16970SL      O123915   6.776   0.385   8.099  0.0000  0.0000  0.0000
16970SL      H123916   6.776   0.385   8.001  0.0000  0.0000  0.0000
16971SL     Si123917   1.089   0.289   1.222  0.0000  0.0000  0.0000
16971SL      O123918   1.089   0.289   1.386  0.0000  0.0000  0.0000
16971SL      H123919   1.089   0.289   1.484  0.0000  0.0000  0.0000
16972SL     Si123920   4.965   5.253   8.338  0.0000  0.0000  0.0000
16972SL      O123921   4.965   5.253   8.174  0.0000  0.0000  0.0000
16972SL      H123922   4.965   5.253   8.076  0.0000  0.0000  0.0000
16973SL     Si123923   5.738   3.443   8.196  0.0000  0.0000  0.0000
16973SL      O123924   5.738   3.443   8.032  0.0000  0.0000  0.0000
16973SL      H123925   5.738   3.443   7.934  0.0000  0.0000  0.0000
16974SL     Si123926   8.968   5.872   8.390  0.0000  0.0000  0.0000
16974SL      O123927   8.968   5.872   8.226  0.0000  0.0000  0.0000
16974SL      H123928   8.968   5.872   8.128  0.0000  0.0000  0.0000
16975SL     Si123929   9.117   7.262   8.171  0.0000  0.0000  0.0000
16975SL      O123930   9.117   7.262   8.007  0.0000  0.0000  0.0000
16975SL      H123931   9.117   7.262   7.909  0.0000  0.0000  0.0000
16976SL     Si123932   2.126   7.929   1.408  0.0000  0.0000  0.0000
16976SL      O123933   2.126   7.929   1.572  0.0000  0.0000  0.0000
16976SL      H123934   2.126   7.929   1.670  0.0000  0.0000  0.0000
16977SL     Si123935   2.168   0.171   8.251  0.0000  0.0000  0.0000
16977SL      O123936   2.168   0.171   8.087  0.0000  0.0000  0.0000
16977SL      H123937   2.168   0.171   7.989  0.0000  0.0000  0.0000
16978SL     Si123938   2.802   0.979   8.257  0.0000  0.0000  0.0000
16978SL      O123939   2.802   0.979   8.093  0.0000  0.0000  0.0000
16978SL      H123940   2.802   0.979   7.995  0.0000  0.0000  0.0000
16979SL     Si123941   8.897   0.933   1.337  0.0000  0.0000  0.0000
16979SL      O123942   8.897   0.933   1.501  0.0000  0.0000  0.0000
16979SL      H123943   8.897   0.933   1.599  0.0000  0.0000  0.0000
16980SL     Si123944   1.726   7.734   8.338  0.0000  0.0000  0.0000
16980SL      O123945   1.726   7.734   8.174  0.0000  0.0000  0.0000
16980SL      H123946   1.726   7.734   8.076  0.0000  0.0000  0.0000
16981SL     Si123947   1.067   8.440   1.260  0.0000  0.0000  0.0000
16981SL      O123948   1.067   8.440   1.424  0.0000  0.0000  0.0000
16981SL      H123949   1.067   8.440   1.522  0.0000  0.0000  0.0000
16982SL     Si123950   5.170   3.294   1.425  0.0000  0.0000  0.0000
16982SL      O123951   5.170   3.294   1.589  0.0000  0.0000  0.0000
16982SL      H123952   5.170   3.294   1.687  0.0000  0.0000  0.0000
16983SL     Si123953   8.713   0.093   1.275  0.0000  0.0000  0.0000
16983SL      O123954   8.713   0.093   1.439  0.0000  0.0000  0.0000
16983SL      H123955   8.713   0.093   1.537  0.0000  0.0000  0.0000
16984SL     Si123956   1.171   8.731   1.238  0.0000  0.0000  0.0000
16984SL      O123957   1.171   8.731   1.402  0.0000  0.0000  0.0000
16984SL      H123958   1.171   8.731   1.500  0.0000  0.0000  0.0000
16985SL     Si123959   5.948   4.677   1.318  0.0000  0.0000  0.0000
16985SL      O123960   5.948   4.677   1.482  0.0000  0.0000  0.0000
16985SL      H123961   5.948   4.677   1.580  0.0000  0.0000  0.0000
16986SL     Si123962   2.178   8.216   8.401  0.0000  0.0000  0.0000
16986SL      O123963   2.178   8.216   8.237  0.0000  0.0000  0.0000
16986SL      H123964   2.178   8.216   8.139  0.0000  0.0000  0.0000
16987SL     Si123965   1.015   6.431   1.306  0.0000  0.0000  0.0000
16987SL      O123966   1.015   6.431   1.470  0.0000  0.0000  0.0000
16987SL      H123967   1.015   6.431   1.568  0.0000  0.0000  0.0000
16988SL     Si123968   8.373   9.337   1.377  0.0000  0.0000  0.0000
16988SL      O123969   8.373   9.337   1.541  0.0000  0.0000  0.0000
16988SL      H123970   8.373   9.337   1.639  0.0000  0.0000  0.0000
16989SL     Si123971   3.632   7.553   8.382  0.0000  0.0000  0.0000
16989SL      O123972   3.632   7.553   8.218  0.0000  0.0000  0.0000
16989SL      H123973   3.632   7.553   8.120  0.0000  0.0000  0.0000
16990SL     Si123974   1.914   2.654   1.155  0.0000  0.0000  0.0000
16990SL      O123975   1.914   2.654   1.319  0.0000  0.0000  0.0000
16990SL      H123976   1.914   2.654   1.417  0.0000  0.0000  0.0000
16991SL     Si123977   7.894   2.695   8.303  0.0000  0.0000  0.0000
16991SL      O123978   7.894   2.695   8.139  0.0000  0.0000  0.0000
16991SL      H123979   7.894   2.695   8.041  0.0000  0.0000  0.0000
16992SL     Si123980   3.455   5.389   8.232  0.0000  0.0000  0.0000
16992SL      O123981   3.455   5.389   8.068  0.0000  0.0000  0.0000
16992SL      H123982   3.455   5.389   7.970  0.0000  0.0000  0.0000
16993SL     Si123983   1.401   2.412   8.305  0.0000  0.0000  0.0000
16993SL      O123984   1.401   2.412   8.141  0.0000  0.0000  0.0000
16993SL      H123985   1.401   2.412   8.043  0.0000  0.0000  0.0000
16994SL     Si123986   3.073   4.205   1.221  0.0000  0.0000  0.0000
16994SL      O123987   3.073   4.205   1.385  0.0000  0.0000  0.0000
16994SL      H123988   3.073   4.205   1.483  0.0000  0.0000  0.0000
16995SL     Si123989   4.293   7.838   1.363  0.0000  0.0000  0.0000
16995SL      O123990   4.293   7.838   1.527  0.0000  0.0000  0.0000
16995SL      H123991   4.293   7.838   1.625  0.0000  0.0000  0.0000
16996SL     Si123992   5.100   9.576   1.286  0.0000  0.0000  0.0000
16996SL      O123993   5.100   9.576   1.450  0.0000  0.0000  0.0000
16996SL      H123994   5.100   9.576   1.548  0.0000  0.0000  0.0000
16997SL     Si123995   7.308   4.789   1.237  0.0000  0.0000  0.0000
16997SL      O123996   7.308   4.789   1.401  0.0000  0.0000  0.0000
16997SL      H123997   7.308   4.789   1.499  0.0000  0.0000  0.0000
16998SL     Si123998   6.495   0.267   8.351  0.0000  0.0000  0.0000
16998SL      O123999   6.495   0.267   8.187  0.0000  0.0000  0.0000
16998SL      H124000   6.495   0.267   8.089  0.0000  0.0000  0.0000
16999SL     Si124001   3.321   1.981   1.409  0.0000  0.0000  0.0000
16999SL      O124002   3.321   1.981   1.573  0.0000  0.0000  0.0000
16999SL      H124003   3.321   1.981   1.671  0.0000  0.0000  0.0000
17000SL     Si124004   1.342   1.291   8.320  0.0000  0.0000  0.0000
17000SL      O124005   1.342   1.291   8.156  0.0000  0.0000  0.0000
17000SL      H124006   1.342   1.291   8.058  0.0000  0.0000  0.0000
17001SL     Si124007   7.584   7.836   1.408  0.0000  0.0000  0.0000
17001SL      O124008   7.584   7.836   1.572  0.0000  0.0000  0.0000
17001SL      H124009   7.584   7.836   1.670  0.0000  0.0000  0.0000
17002SL     Si124010   1.796   0.779   8.281  0.0000  0.0000  0.0000
17002SL      O124011   1.796   0.779   8.117  0.0000  0.0000  0.0000
17002SL      H124012   1.796   0.779   8.019  0.0000  0.0000  0.0000
17003SL     Si124013   3.975   9.105   1.410  0.0000  0.0000  0.0000
17003SL      O124014   3.975   9.105   1.574  0.0000  0.0000  0.0000
17003SL      H124015   3.975   9.105   1.672  0.0000  0.0000  0.0000
17004SL     Si124016   1.598   9.494   1.330  0.0000  0.0000  0.0000
17004SL      O124017   1.598   9.494   1.494  0.0000  0.0000  0.0000
17004SL      H124018   1.598   9.494   1.592  0.0000  0.0000  0.0000
17005SL     Si124019   7.093   1.923   8.285  0.0000  0.0000  0.0000
17005SL      O124020   7.093   1.923   8.121  0.0000  0.0000  0.0000
17005SL      H124021   7.093   1.923   8.023  0.0000  0.0000  0.0000
17006SL     Si124022   3.067   4.715   1.361  0.0000  0.0000  0.0000
17006SL      O124023   3.067   4.715   1.525  0.0000  0.0000  0.0000
17006SL      H124024   3.067   4.715   1.623  0.0000  0.0000  0.0000
17007SL     Si124025   6.852   9.047   8.376  0.0000  0.0000  0.0000
17007SL      O124026   6.852   9.047   8.212  0.0000  0.0000  0.0000
17007SL      H124027   6.852   9.047   8.114  0.0000  0.0000  0.0000
17008SL     Si124028   7.834   3.011   8.328  0.0000  0.0000  0.0000
17008SL      O124029   7.834   3.011   8.164  0.0000  0.0000  0.0000
17008SL      H124030   7.834   3.011   8.066  0.0000  0.0000  0.0000
17009SL     Si124031   5.530   0.128   8.307  0.0000  0.0000  0.0000
17009SL      O124032   5.530   0.128   8.143  0.0000  0.0000  0.0000
17009SL      H124033   5.530   0.128   8.045  0.0000  0.0000  0.0000
17010SL     Si124034   8.543   5.507   8.253  0.0000  0.0000  0.0000
17010SL      O124035   8.543   5.507   8.089  0.0000  0.0000  0.0000
17010SL      H124036   8.543   5.507   7.991  0.0000  0.0000  0.0000
17011SL     Si124037   9.086   4.073   8.430  0.0000  0.0000  0.0000
17011SL      O124038   9.086   4.073   8.266  0.0000  0.0000  0.0000
17011SL      H124039   9.086   4.073   8.168  0.0000  0.0000  0.0000
17012SL     Si124040   3.755   9.460   8.320  0.0000  0.0000  0.0000
17012SL      O124041   3.755   9.460   8.156  0.0000  0.0000  0.0000
17012SL      H124042   3.755   9.460   8.058  0.0000  0.0000  0.0000
17013SL     Si124043   4.584   5.744   1.142  0.0000  0.0000  0.0000
17013SL      O124044   4.584   5.744   1.306  0.0000  0.0000  0.0000
17013SL      H124045   4.584   5.744   1.404  0.0000  0.0000  0.0000
17014SL     Si124046   5.647   5.733   1.163  0.0000  0.0000  0.0000
17014SL      O124047   5.647   5.733   1.327  0.0000  0.0000  0.0000
17014SL      H124048   5.647   5.733   1.425  0.0000  0.0000  0.0000
17015SL     Si124049   6.740   6.013   8.426  0.0000  0.0000  0.0000
17015SL      O124050   6.740   6.013   8.262  0.0000  0.0000  0.0000
17015SL      H124051   6.740   6.013   8.164  0.0000  0.0000  0.0000
17016SL     Si124052   3.387   1.937   8.545  0.0000  0.0000  0.0000
17016SL      O124053   3.387   1.937   8.381  0.0000  0.0000  0.0000
17016SL      H124054   3.387   1.937   8.283  0.0000  0.0000  0.0000
17017SL     Si124055   8.879   0.995   8.303  0.0000  0.0000  0.0000
17017SL      O124056   8.879   0.995   8.139  0.0000  0.0000  0.0000
17017SL      H124057   8.879   0.995   8.041  0.0000  0.0000  0.0000
17018SL     Si124058   7.526   2.185   1.258  0.0000  0.0000  0.0000
17018SL      O124059   7.526   2.185   1.422  0.0000  0.0000  0.0000
17018SL      H124060   7.526   2.185   1.520  0.0000  0.0000  0.0000
17019SL     Si124061   6.034   1.592   1.328  0.0000  0.0000  0.0000
17019SL      O124062   6.034   1.592   1.492  0.0000  0.0000  0.0000
17019SL      H124063   6.034   1.592   1.590  0.0000  0.0000  0.0000
17020SL     Si124064   7.203   9.182   8.344  0.0000  0.0000  0.0000
17020SL      O124065   7.203   9.182   8.180  0.0000  0.0000  0.0000
17020SL      H124066   7.203   9.182   8.082  0.0000  0.0000  0.0000
17021SL     Si124067   8.428   6.614   1.189  0.0000  0.0000  0.0000
17021SL      O124068   8.428   6.614   1.353  0.0000  0.0000  0.0000
17021SL      H124069   8.428   6.614   1.451  0.0000  0.0000  0.0000
17022SL     Si124070   4.383   5.254   1.151  0.0000  0.0000  0.0000
17022SL      O124071   4.383   5.254   1.315  0.0000  0.0000  0.0000
17022SL      H124072   4.383   5.254   1.413  0.0000  0.0000  0.0000
17023SL     Si124073   7.149   8.425   1.311  0.0000  0.0000  0.0000
17023SL      O124074   7.149   8.425   1.475  0.0000  0.0000  0.0000
17023SL      H124075   7.149   8.425   1.573  0.0000  0.0000  0.0000
17024SL     Si124076   8.231   4.423   8.213  0.0000  0.0000  0.0000
17024SL      O124077   8.231   4.423   8.049  0.0000  0.0000  0.0000
17024SL      H124078   8.231   4.423   7.951  0.0000  0.0000  0.0000
17025SL     Si124079   2.288   1.574   1.227  0.0000  0.0000  0.0000
17025SL      O124080   2.288   1.574   1.391  0.0000  0.0000  0.0000
17025SL      H124081   2.288   1.574   1.489  0.0000  0.0000  0.0000
17026SL     Si124082   3.019   3.442   8.409  0.0000  0.0000  0.0000
17026SL      O124083   3.019   3.442   8.245  0.0000  0.0000  0.0000
17026SL      H124084   3.019   3.442   8.147  0.0000  0.0000  0.0000
17027SL     Si124085   1.049   1.281   8.215  0.0000  0.0000  0.0000
17027SL      O124086   1.049   1.281   8.051  0.0000  0.0000  0.0000
17027SL      H124087   1.049   1.281   7.953  0.0000  0.0000  0.0000
17028SL     Si124088   9.469   5.383   8.292  0.0000  0.0000  0.0000
17028SL      O124089   9.469   5.383   8.128  0.0000  0.0000  0.0000
17028SL      H124090   9.469   5.383   8.030  0.0000  0.0000  0.0000
17029SL     Si124091   3.775   2.480   1.185  0.0000  0.0000  0.0000
17029SL      O124092   3.775   2.480   1.349  0.0000  0.0000  0.0000
17029SL      H124093   3.775   2.480   1.447  0.0000  0.0000  0.0000
17030SL     Si124094   9.421   1.557   8.360  0.0000  0.0000  0.0000
17030SL      O124095   9.421   1.557   8.196  0.0000  0.0000  0.0000
17030SL      H124096   9.421   1.557   8.098  0.0000  0.0000  0.0000
17031SL     Si124097   7.918   4.475   8.209  0.0000  0.0000  0.0000
17031SL      O124098   7.918   4.475   8.045  0.0000  0.0000  0.0000
17031SL      H124099   7.918   4.475   7.947  0.0000  0.0000  0.0000
17032SL     Si124100   7.234   5.086   1.203  0.0000  0.0000  0.0000
17032SL      O124101   7.234   5.086   1.367  0.0000  0.0000  0.0000
17032SL      H124102   7.234   5.086   1.465  0.0000  0.0000  0.0000
17033SL     Si124103   5.705   0.283   1.170  0.0000  0.0000  0.0000
17033SL      O124104   5.705   0.283   1.334  0.0000  0.0000  0.0000
17033SL      H124105   5.705   0.283   1.432  0.0000  0.0000  0.0000
17034SL     Si124106   1.037   7.671   8.253  0.0000  0.0000  0.0000
17034SL      O124107   1.037   7.671   8.089  0.0000  0.0000  0.0000
17034SL      H124108   1.037   7.671   7.991  0.0000  0.0000  0.0000
17035SL     Si124109   0.039   4.305   8.373  0.0000  0.0000  0.0000
17035SL      O124110   0.039   4.305   8.209  0.0000  0.0000  0.0000
17035SL      H124111   0.039   4.305   8.111  0.0000  0.0000  0.0000
17036SL     Si124112   4.493   2.280   1.235  0.0000  0.0000  0.0000
17036SL      O124113   4.493   2.280   1.399  0.0000  0.0000  0.0000
17036SL      H124114   4.493   2.280   1.497  0.0000  0.0000  0.0000
17037SL     Si124115   8.343   0.805   1.293  0.0000  0.0000  0.0000
17037SL      O124116   8.343   0.805   1.457  0.0000  0.0000  0.0000
17037SL      H124117   8.343   0.805   1.555  0.0000  0.0000  0.0000
17038SL     Si124118   2.800   2.340   8.392  0.0000  0.0000  0.0000
17038SL      O124119   2.800   2.340   8.228  0.0000  0.0000  0.0000
17038SL      H124120   2.800   2.340   8.130  0.0000  0.0000  0.0000
17039SL     Si124121   4.814   6.932   1.339  0.0000  0.0000  0.0000
17039SL      O124122   4.814   6.932   1.503  0.0000  0.0000  0.0000
17039SL      H124123   4.814   6.932   1.601  0.0000  0.0000  0.0000
17040SL     Si124124   1.827   4.900   1.395  0.0000  0.0000  0.0000
17040SL      O124125   1.827   4.900   1.559  0.0000  0.0000  0.0000
17040SL      H124126   1.827   4.900   1.657  0.0000  0.0000  0.0000
17041SL     Si124127   3.252   3.427   1.366  0.0000  0.0000  0.0000
17041SL      O124128   3.252   3.427   1.530  0.0000  0.0000  0.0000
17041SL      H124129   3.252   3.427   1.628  0.0000  0.0000  0.0000
17042SL     Si124130   8.101   9.019   8.525  0.0000  0.0000  0.0000
17042SL      O124131   8.101   9.019   8.361  0.0000  0.0000  0.0000
17042SL      H124132   8.101   9.019   8.263  0.0000  0.0000  0.0000
17043SL     Si124133   0.894   4.159   1.403  0.0000  0.0000  0.0000
17043SL      O124134   0.894   4.159   1.567  0.0000  0.0000  0.0000
17043SL      H124135   0.894   4.159   1.665  0.0000  0.0000  0.0000
17044SL     Si124136   7.931   3.870   1.436  0.0000  0.0000  0.0000
17044SL      O124137   7.931   3.870   1.600  0.0000  0.0000  0.0000
17044SL      H124138   7.931   3.870   1.698  0.0000  0.0000  0.0000
17045SL     Si124139   8.069   3.216   8.288  0.0000  0.0000  0.0000
17045SL      O124140   8.069   3.216   8.124  0.0000  0.0000  0.0000
17045SL      H124141   8.069   3.216   8.026  0.0000  0.0000  0.0000
17046SL     Si124142   7.990   4.930   1.251  0.0000  0.0000  0.0000
17046SL      O124143   7.990   4.930   1.415  0.0000  0.0000  0.0000
17046SL      H124144   7.990   4.930   1.513  0.0000  0.0000  0.0000
17047SL     Si124145   0.600   3.625   1.298  0.0000  0.0000  0.0000
17047SL      O124146   0.600   3.625   1.462  0.0000  0.0000  0.0000
17047SL      H124147   0.600   3.625   1.560  0.0000  0.0000  0.0000
17048SL     Si124148   2.266   5.964   1.368  0.0000  0.0000  0.0000
17048SL      O124149   2.266   5.964   1.532  0.0000  0.0000  0.0000
17048SL      H124150   2.266   5.964   1.630  0.0000  0.0000  0.0000
17049SL     Si124151   6.156   2.785   1.176  0.0000  0.0000  0.0000
17049SL      O124152   6.156   2.785   1.340  0.0000  0.0000  0.0000
17049SL      H124153   6.156   2.785   1.438  0.0000  0.0000  0.0000
17050SL     Si124154   6.465   1.440   1.381  0.0000  0.0000  0.0000
17050SL      O124155   6.465   1.440   1.545  0.0000  0.0000  0.0000
17050SL      H124156   6.465   1.440   1.643  0.0000  0.0000  0.0000
17051SL     Si124157   5.742   8.457   8.342  0.0000  0.0000  0.0000
17051SL      O124158   5.742   8.457   8.178  0.0000  0.0000  0.0000
17051SL      H124159   5.742   8.457   8.080  0.0000  0.0000  0.0000
17052SL     Si124160   8.979   3.743   1.309  0.0000  0.0000  0.0000
17052SL      O124161   8.979   3.743   1.473  0.0000  0.0000  0.0000
17052SL      H124162   8.979   3.743   1.571  0.0000  0.0000  0.0000
17053SL     Si124163   6.807   4.455   8.291  0.0000  0.0000  0.0000
17053SL      O124164   6.807   4.455   8.127  0.0000  0.0000  0.0000
17053SL      H124165   6.807   4.455   8.029  0.0000  0.0000  0.0000
17054SL     Si124166   9.060   8.277   8.332  0.0000  0.0000  0.0000
17054SL      O124167   9.060   8.277   8.168  0.0000  0.0000  0.0000
17054SL      H124168   9.060   8.277   8.070  0.0000  0.0000  0.0000
17055SL     Si124169   9.114   3.243   8.327  0.0000  0.0000  0.0000
17055SL      O124170   9.114   3.243   8.163  0.0000  0.0000  0.0000
17055SL      H124171   9.114   3.243   8.065  0.0000  0.0000  0.0000
17056SL     Si124172   7.173   7.053   1.231  0.0000  0.0000  0.0000
17056SL      O124173   7.173   7.053   1.395  0.0000  0.0000  0.0000
17056SL      H124174   7.173   7.053   1.493  0.0000  0.0000  0.0000
17057SL     Si124175   9.078   4.829   8.393  0.0000  0.0000  0.0000
17057SL      O124176   9.078   4.829   8.229  0.0000  0.0000  0.0000
17057SL      H124177   9.078   4.829   8.131  0.0000  0.0000  0.0000
17058SL     Si124178   3.355   1.093   8.326  0.0000  0.0000  0.0000
17058SL      O124179   3.355   1.093   8.162  0.0000  0.0000  0.0000
17058SL      H124180   3.355   1.093   8.064  0.0000  0.0000  0.0000
17059SL     Si124181   3.120   1.035   1.183  0.0000  0.0000  0.0000
17059SL      O124182   3.120   1.035   1.347  0.0000  0.0000  0.0000
17059SL      H124183   3.120   1.035   1.445  0.0000  0.0000  0.0000
17060SL     Si124184   3.597   9.325   1.158  0.0000  0.0000  0.0000
17060SL      O124185   3.597   9.325   1.322  0.0000  0.0000  0.0000
17060SL      H124186   3.597   9.325   1.420  0.0000  0.0000  0.0000
17061SL     Si124187   9.519   0.626   1.320  0.0000  0.0000  0.0000
17061SL      O124188   9.519   0.626   1.484  0.0000  0.0000  0.0000
17061SL      H124189   9.519   0.626   1.582  0.0000  0.0000  0.0000
17062SL     Si124190   1.417   6.968   1.377  0.0000  0.0000  0.0000
17062SL      O124191   1.417   6.968   1.541  0.0000  0.0000  0.0000
17062SL      H124192   1.417   6.968   1.639  0.0000  0.0000  0.0000
17063SL     Si124193   0.214   9.562   1.169  0.0000  0.0000  0.0000
17063SL      O124194   0.214   9.562   1.333  0.0000  0.0000  0.0000
17063SL      H124195   0.214   9.562   1.431  0.0000  0.0000  0.0000
17064SL     Si124196   0.924   4.061   8.389  0.0000  0.0000  0.0000
17064SL      O124197   0.924   4.061   8.225  0.0000  0.0000  0.0000
17064SL      H124198   0.924   4.061   8.127  0.0000  0.0000  0.0000
17065SL     Si124199   9.048   8.220   1.342  0.0000  0.0000  0.0000
17065SL      O124200   9.048   8.220   1.506  0.0000  0.0000  0.0000
17065SL      H124201   9.048   8.220   1.604  0.0000  0.0000  0.0000
17066SL     Si124202   4.886   3.674   8.286  0.0000  0.0000  0.0000
17066SL      O124203   4.886   3.674   8.122  0.0000  0.0000  0.0000
17066SL      H124204   4.886   3.674   8.024  0.0000  0.0000  0.0000
17067SL     Si124205   3.008   5.608   8.247  0.0000  0.0000  0.0000
17067SL      O124206   3.008   5.608   8.083  0.0000  0.0000  0.0000
17067SL      H124207   3.008   5.608   7.985  0.0000  0.0000  0.0000
17068SL     Si124208   3.135   3.370   0.865  0.0000  0.0000  0.0000
17068SL      O124209   3.135   3.370   1.029  0.0000  0.0000  0.0000
17068SL      H124210   3.135   3.370   1.127  0.0000  0.0000  0.0000
17069SL     Si124211   4.284   0.362   8.347  0.0000  0.0000  0.0000
17069SL      O124212   4.284   0.362   8.183  0.0000  0.0000  0.0000
17069SL      H124213   4.284   0.362   8.085  0.0000  0.0000  0.0000
17070SL     Si124214   1.099   7.368   8.245  0.0000  0.0000  0.0000
17070SL      O124215   1.099   7.368   8.081  0.0000  0.0000  0.0000
17070SL      H124216   1.099   7.368   7.983  0.0000  0.0000  0.0000
17071SL     Si124217   5.336   7.733   8.366  0.0000  0.0000  0.0000
17071SL      O124218   5.336   7.733   8.202  0.0000  0.0000  0.0000
17071SL      H124219   5.336   7.733   8.104  0.0000  0.0000  0.0000
17072SL     Si124220   2.543   9.564   8.257  0.0000  0.0000  0.0000
17072SL      O124221   2.543   9.564   8.093  0.0000  0.0000  0.0000
17072SL      H124222   2.543   9.564   7.995  0.0000  0.0000  0.0000
17073SL     Si124223   4.684   0.526   1.218  0.0000  0.0000  0.0000
17073SL      O124224   4.684   0.526   1.382  0.0000  0.0000  0.0000
17073SL      H124225   4.684   0.526   1.480  0.0000  0.0000  0.0000
17074SL     Si124226   9.430   4.190   1.424  0.0000  0.0000  0.0000
17074SL      O124227   9.430   4.190   1.588  0.0000  0.0000  0.0000
17074SL      H124228   9.430   4.190   1.686  0.0000  0.0000  0.0000
17075SL     Si124229   3.404   2.855   8.275  0.0000  0.0000  0.0000
17075SL      O124230   3.404   2.855   8.111  0.0000  0.0000  0.0000
17075SL      H124231   3.404   2.855   8.013  0.0000  0.0000  0.0000
17076SL     Si124232   7.269   3.120   8.384  0.0000  0.0000  0.0000
17076SL      O124233   7.269   3.120   8.220  0.0000  0.0000  0.0000
17076SL      H124234   7.269   3.120   8.122  0.0000  0.0000  0.0000
17077SL     Si124235   3.677   6.637   8.320  0.0000  0.0000  0.0000
17077SL      O124236   3.677   6.637   8.156  0.0000  0.0000  0.0000
17077SL      H124237   3.677   6.637   8.058  0.0000  0.0000  0.0000
17078SL     Si124238   4.247   6.407   1.298  0.0000  0.0000  0.0000
17078SL      O124239   4.247   6.407   1.462  0.0000  0.0000  0.0000
17078SL      H124240   4.247   6.407   1.560  0.0000  0.0000  0.0000
17079SL     Si124241   5.595   5.289   1.158  0.0000  0.0000  0.0000
17079SL      O124242   5.595   5.289   1.322  0.0000  0.0000  0.0000
17079SL      H124243   5.595   5.289   1.420  0.0000  0.0000  0.0000
17080SL     Si124244   6.864   5.204   8.433  0.0000  0.0000  0.0000
17080SL      O124245   6.864   5.204   8.269  0.0000  0.0000  0.0000
17080SL      H124246   6.864   5.204   8.171  0.0000  0.0000  0.0000
17081SL     Si124247   5.218   8.974   8.335  0.0000  0.0000  0.0000
17081SL      O124248   5.218   8.974   8.171  0.0000  0.0000  0.0000
17081SL      H124249   5.218   8.974   8.073  0.0000  0.0000  0.0000
17082SL     Si124250   6.078   5.379   1.205  0.0000  0.0000  0.0000
17082SL      O124251   6.078   5.379   1.369  0.0000  0.0000  0.0000
17082SL      H124252   6.078   5.379   1.467  0.0000  0.0000  0.0000
17083SL     Si124253   5.705   2.216   1.255  0.0000  0.0000  0.0000
17083SL      O124254   5.705   2.216   1.419  0.0000  0.0000  0.0000
17083SL      H124255   5.705   2.216   1.517  0.0000  0.0000  0.0000
17084SL     Si124256   1.059   6.907   1.284  0.0000  0.0000  0.0000
17084SL      O124257   1.059   6.907   1.448  0.0000  0.0000  0.0000
17084SL      H124258   1.059   6.907   1.546  0.0000  0.0000  0.0000
17085SL     Si124259   2.074   9.036   1.349  0.0000  0.0000  0.0000
17085SL      O124260   2.074   9.036   1.513  0.0000  0.0000  0.0000
17085SL      H124261   2.074   9.036   1.611  0.0000  0.0000  0.0000
17086SL     Si124262   2.658   4.295   8.217  0.0000  0.0000  0.0000
17086SL      O124263   2.658   4.295   8.053  0.0000  0.0000  0.0000
17086SL      H124264   2.658   4.295   7.955  0.0000  0.0000  0.0000
17087SL     Si124265   3.439   5.709   8.182  0.0000  0.0000  0.0000
17087SL      O124266   3.439   5.709   8.018  0.0000  0.0000  0.0000
17087SL      H124267   3.439   5.709   7.920  0.0000  0.0000  0.0000
17088SL     Si124268   1.840   3.544   1.189  0.0000  0.0000  0.0000
17088SL      O124269   1.840   3.544   1.353  0.0000  0.0000  0.0000
17088SL      H124270   1.840   3.544   1.451  0.0000  0.0000  0.0000
17089SL     Si124271   0.820   0.249   8.368  0.0000  0.0000  0.0000
17089SL      O124272   0.820   0.249   8.204  0.0000  0.0000  0.0000
17089SL      H124273   0.820   0.249   8.106  0.0000  0.0000  0.0000
17090SL     Si124274   1.040   8.020   1.352  0.0000  0.0000  0.0000
17090SL      O124275   1.040   8.020   1.516  0.0000  0.0000  0.0000
17090SL      H124276   1.040   8.020   1.614  0.0000  0.0000  0.0000
17091SL     Si124277   8.251   5.165   8.167  0.0000  0.0000  0.0000
17091SL      O124278   8.251   5.165   8.003  0.0000  0.0000  0.0000
17091SL      H124279   8.251   5.165   7.905  0.0000  0.0000  0.0000
17092SL     Si124280   0.124   5.227   1.238  0.0000  0.0000  0.0000
17092SL      O124281   0.124   5.227   1.402  0.0000  0.0000  0.0000
17092SL      H124282   0.124   5.227   1.500  0.0000  0.0000  0.0000
17093SL     Si124283   3.316   9.169   8.401  0.0000  0.0000  0.0000
17093SL      O124284   3.316   9.169   8.237  0.0000  0.0000  0.0000
17093SL      H124285   3.316   9.169   8.139  0.0000  0.0000  0.0000
17094SL     Si124286   3.429   7.282   1.378  0.0000  0.0000  0.0000
17094SL      O124287   3.429   7.282   1.542  0.0000  0.0000  0.0000
17094SL      H124288   3.429   7.282   1.640  0.0000  0.0000  0.0000
17095SL     Si124289   7.468   6.350   8.237  0.0000  0.0000  0.0000
17095SL      O124290   7.468   6.350   8.073  0.0000  0.0000  0.0000
17095SL      H124291   7.468   6.350   7.975  0.0000  0.0000  0.0000
17096SL     Si124292   1.314   2.878   1.286  0.0000  0.0000  0.0000
17096SL      O124293   1.314   2.878   1.450  0.0000  0.0000  0.0000
17096SL      H124294   1.314   2.878   1.548  0.0000  0.0000  0.0000
17097SL     Si124295   0.168   5.329   8.271  0.0000  0.0000  0.0000
17097SL      O124296   0.168   5.329   8.107  0.0000  0.0000  0.0000
17097SL      H124297   0.168   5.329   8.009  0.0000  0.0000  0.0000
17098SL     Si124298   5.052   7.053   8.385  0.0000  0.0000  0.0000
17098SL      O124299   5.052   7.053   8.221  0.0000  0.0000  0.0000
17098SL      H124300   5.052   7.053   8.123  0.0000  0.0000  0.0000
17099SL     Si124301   3.031   7.005   8.251  0.0000  0.0000  0.0000
17099SL      O124302   3.031   7.005   8.087  0.0000  0.0000  0.0000
17099SL      H124303   3.031   7.005   7.989  0.0000  0.0000  0.0000
17100SL     Si124304   5.305   3.188   8.261  0.0000  0.0000  0.0000
17100SL      O124305   5.305   3.188   8.097  0.0000  0.0000  0.0000
17100SL      H124306   5.305   3.188   7.999  0.0000  0.0000  0.0000
17101SLG    Si124307   8.447   1.779   1.289  0.0000  0.0000  0.0000
17101SLG     O124308   8.447   1.779   1.453  0.0000  0.0000  0.0000
17101SLG     H124309   8.447   1.779   1.551  0.0000  0.0000  0.0000
17101SLG     O224310   8.563   1.779   1.405  0.0000  0.0000  0.0000
17101SLG     H224311   8.563   1.779   1.503  0.0000  0.0000  0.0000
17102SLG    Si124312   6.746   6.932   8.249  0.0000  0.0000  0.0000
17102SLG     O124313   6.746   6.932   8.085  0.0000  0.0000  0.0000
17102SLG     H124314   6.746   6.932   7.987  0.0000  0.0000  0.0000
17102SLG     O224315   6.862   6.932   8.133  0.0000  0.0000  0.0000
17102SLG     H224316   6.862   6.932   8.035  0.0000  0.0000  0.0000
17103SLG    Si124317   8.390   1.102   8.231  0.0000  0.0000  0.0000
17103SLG     O124318   8.390   1.102   8.067  0.0000  0.0000  0.0000
17103SLG     H124319   8.390   1.102   7.969  0.0000  0.0000  0.0000
17103SLG     O224320   8.506   1.102   8.115  0.0000  0.0000  0.0000
17103SLG     H224321   8.506   1.102   8.017  0.0000  0.0000  0.0000
17104SLG    Si124322   0.599   0.760   8.205  0.0000  0.0000  0.0000
17104SLG     O124323   0.599   0.760   8.041  0.0000  0.0000  0.0000
17104SLG     H124324   0.599   0.760   7.943  0.0000  0.0000  0.0000
17104SLG     O224325   0.715   0.760   8.089  0.0000  0.0000  0.0000
17104SLG     H224326   0.715   0.760   7.991  0.0000  0.0000  0.0000
17105SLG    Si124327   3.730   3.597   1.387  0.0000  0.0000  0.0000
17105SLG     O124328   3.730   3.597   1.551  0.0000  0.0000  0.0000
17105SLG     H124329   3.730   3.597   1.649  0.0000  0.0000  0.0000
17105SLG     O224330   3.846   3.597   1.503  0.0000  0.0000  0.0000
17105SLG     H224331   3.846   3.597   1.601  0.0000  0.0000  0.0000
17106SLG    Si124332   4.005   3.193   8.305  0.0000  0.0000  0.0000
17106SLG     O124333   4.005   3.193   8.141  0.0000  0.0000  0.0000
17106SLG     H124334   4.005   3.193   8.043  0.0000  0.0000  0.0000
17106SLG     O224335   4.121   3.193   8.189  0.0000  0.0000  0.0000
17106SLG     H224336   4.121   3.193   8.091  0.0000  0.0000  0.0000
17107SLG    Si124337   8.629   1.289   1.360  0.0000  0.0000  0.0000
17107SLG     O124338   8.629   1.289   1.524  0.0000  0.0000  0.0000
17107SLG     H124339   8.629   1.289   1.622  0.0000  0.0000  0.0000
17107SLG     O224340   8.745   1.289   1.476  0.0000  0.0000  0.0000
17107SLG     H224341   8.745   1.289   1.574  0.0000  0.0000  0.0000
17108SLG    Si124342   7.543   6.638   8.183  0.0000  0.0000  0.0000
17108SLG     O124343   7.543   6.638   8.019  0.0000  0.0000  0.0000
17108SLG     H124344   7.543   6.638   7.921  0.0000  0.0000  0.0000
17108SLG     O224345   7.659   6.638   8.067  0.0000  0.0000  0.0000
17108SLG     H224346   7.659   6.638   7.969  0.0000  0.0000  0.0000
17109SLG    Si124347   5.425   3.990   1.368  0.0000  0.0000  0.0000
17109SLG     O124348   5.425   3.990   1.532  0.0000  0.0000  0.0000
17109SLG     H124349   5.425   3.990   1.630  0.0000  0.0000  0.0000
17109SLG     O224350   5.541   3.990   1.484  0.0000  0.0000  0.0000
17109SLG     H224351   5.541   3.990   1.582  0.0000  0.0000  0.0000
17110SLG    Si124352   6.362   2.437   8.230  0.0000  0.0000  0.0000
17110SLG     O124353   6.362   2.437   8.066  0.0000  0.0000  0.0000
17110SLG     H124354   6.362   2.437   7.968  0.0000  0.0000  0.0000
17110SLG     O224355   6.478   2.437   8.114  0.0000  0.0000  0.0000
17110SLG     H224356   6.478   2.437   8.016  0.0000  0.0000  0.0000
17111SLG    Si124357   1.180   1.457   1.409  0.0000  0.0000  0.0000
17111SLG     O124358   1.180   1.457   1.573  0.0000  0.0000  0.0000
17111SLG     H124359   1.180   1.457   1.671  0.0000  0.0000  0.0000
17111SLG     O224360   1.296   1.457   1.525  0.0000  0.0000  0.0000
17111SLG     H224361   1.296   1.457   1.623  0.0000  0.0000  0.0000
17112SLG    Si124362   1.114   1.861   8.255  0.0000  0.0000  0.0000
17112SLG     O124363   1.114   1.861   8.091  0.0000  0.0000  0.0000
17112SLG     H124364   1.114   1.861   7.993  0.0000  0.0000  0.0000
17112SLG     O224365   1.230   1.861   8.139  0.0000  0.0000  0.0000
17112SLG     H224366   1.230   1.861   8.041  0.0000  0.0000  0.0000
17113SLG    Si124367   5.644   1.498   8.251  0.0000  0.0000  0.0000
17113SLG     O124368   5.644   1.498   8.087  0.0000  0.0000  0.0000
17113SLG     H124369   5.644   1.498   7.989  0.0000  0.0000  0.0000
17113SLG     O224370   5.760   1.498   8.135  0.0000  0.0000  0.0000
17113SLG     H224371   5.760   1.498   8.037  0.0000  0.0000  0.0000
17114SLG    Si124372   8.796   6.318   1.387  0.0000  0.0000  0.0000
17114SLG     O124373   8.796   6.318   1.551  0.0000  0.0000  0.0000
17114SLG     H124374   8.796   6.318   1.649  0.0000  0.0000  0.0000
17114SLG     O224375   8.912   6.318   1.503  0.0000  0.0000  0.0000
17114SLG     H224376   8.912   6.318   1.601  0.0000  0.0000  0.0000
17115SLG    Si124377   4.478   0.999   1.358  0.0000  0.0000  0.0000
17115SLG     O124378   4.478   0.999   1.522  0.0000  0.0000  0.0000
17115SLG     H124379   4.478   0.999   1.620  0.0000  0.0000  0.0000
17115SLG     O224380   4.594   0.999   1.474  0.0000  0.0000  0.0000
17115SLG     H224381   4.594   0.999   1.572  0.0000  0.0000  0.0000
17116SLG    Si124382   8.136   1.178   1.292  0.0000  0.0000  0.0000
17116SLG     O124383   8.136   1.178   1.456  0.0000  0.0000  0.0000
17116SLG     H124384   8.136   1.178   1.554  0.0000  0.0000  0.0000
17116SLG     O224385   8.252   1.178   1.408  0.0000  0.0000  0.0000
17116SLG     H224386   8.252   1.178   1.506  0.0000  0.0000  0.0000
17117SLG    Si124387   0.954   6.739   8.181  0.0000  0.0000  0.0000
17117SLG     O124388   0.954   6.739   8.017  0.0000  0.0000  0.0000
17117SLG     H124389   0.954   6.739   7.919  0.0000  0.0000  0.0000
17117SLG     O224390   1.070   6.739   8.065  0.0000  0.0000  0.0000
17117SLG     H224391   1.070   6.739   7.967  0.0000  0.0000  0.0000
17118SLG    Si124392   7.310   7.021   8.273  0.0000  0.0000  0.0000
17118SLG     O124393   7.310   7.021   8.109  0.0000  0.0000  0.0000
17118SLG     H124394   7.310   7.021   8.011  0.0000  0.0000  0.0000
17118SLG     O224395   7.426   7.021   8.157  0.0000  0.0000  0.0000
17118SLG     H224396   7.426   7.021   8.059  0.0000  0.0000  0.0000
17119SLG    Si124397   8.214   7.745   1.286  0.0000  0.0000  0.0000
17119SLG     O124398   8.214   7.745   1.450  0.0000  0.0000  0.0000
17119SLG     H124399   8.214   7.745   1.548  0.0000  0.0000  0.0000
17119SLG     O224400   8.330   7.745   1.402  0.0000  0.0000  0.0000
17119SLG     H224401   8.330   7.745   1.500  0.0000  0.0000  0.0000
17120SLG    Si124402   6.166   6.571   1.385  0.0000  0.0000  0.0000
17120SLG     O124403   6.166   6.571   1.549  0.0000  0.0000  0.0000
17120SLG     H124404   6.166   6.571   1.647  0.0000  0.0000  0.0000
17120SLG     O224405   6.282   6.571   1.501  0.0000  0.0000  0.0000
17120SLG     H224406   6.282   6.571   1.599  0.0000  0.0000  0.0000
17121SLG    Si124407   1.378   4.412   1.400  0.0000  0.0000  0.0000
17121SLG     O124408   1.378   4.412   1.564  0.0000  0.0000  0.0000
17121SLG     H124409   1.378   4.412   1.662  0.0000  0.0000  0.0000
17121SLG     O224410   1.494   4.412   1.516  0.0000  0.0000  0.0000
17121SLG     H224411   1.494   4.412   1.614  0.0000  0.0000  0.0000
17122SLG    Si124412   5.731   6.832   1.454  0.0000  0.0000  0.0000
17122SLG     O124413   5.731   6.832   1.618  0.0000  0.0000  0.0000
17122SLG     H124414   5.731   6.832   1.716  0.0000  0.0000  0.0000
17122SLG     O224415   5.847   6.832   1.570  0.0000  0.0000  0.0000
17122SLG     H224416   5.847   6.832   1.668  0.0000  0.0000  0.0000
17123SLG    Si124417   4.718   2.503   8.244  0.0000  0.0000  0.0000
17123SLG     O124418   4.718   2.503   8.080  0.0000  0.0000  0.0000
17123SLG     H124419   4.718   2.503   7.982  0.0000  0.0000  0.0000
17123SLG     O224420   4.834   2.503   8.128  0.0000  0.0000  0.0000
17123SLG     H224421   4.834   2.503   8.030  0.0000  0.0000  0.0000
17124SLG    Si124422   1.451   8.488   8.271  0.0000  0.0000  0.0000
17124SLG     O124423   1.451   8.488   8.107  0.0000  0.0000  0.0000
17124SLG     H124424   1.451   8.488   8.009  0.0000  0.0000  0.0000
17124SLG     O224425   1.567   8.488   8.155  0.0000  0.0000  0.0000
17124SLG     H224426   1.567   8.488   8.057  0.0000  0.0000  0.0000
17125SLG    Si124427   2.500   5.254   1.408  0.0000  0.0000  0.0000
17125SLG     O124428   2.500   5.254   1.572  0.0000  0.0000  0.0000
17125SLG     H124429   2.500   5.254   1.670  0.0000  0.0000  0.0000
17125SLG     O224430   2.616   5.254   1.524  0.0000  0.0000  0.0000
17125SLG     H224431   2.616   5.254   1.622  0.0000  0.0000  0.0000
17126SLG    Si124432   0.040   1.594   1.240  0.0000  0.0000  0.0000
17126SLG     O124433   0.040   1.594   1.404  0.0000  0.0000  0.0000
17126SLG     H124434   0.040   1.594   1.502  0.0000  0.0000  0.0000
17126SLG     O224435   0.156   1.594   1.356  0.0000  0.0000  0.0000
17126SLG     H224436   0.156   1.594   1.454  0.0000  0.0000  0.0000
17127SLG    Si124437   5.192   5.377   1.357  0.0000  0.0000  0.0000
17127SLG     O124438   5.192   5.377   1.521  0.0000  0.0000  0.0000
17127SLG     H124439   5.192   5.377   1.619  0.0000  0.0000  0.0000
17127SLG     O224440   5.308   5.377   1.473  0.0000  0.0000  0.0000
17127SLG     H224441   5.308   5.377   1.571  0.0000  0.0000  0.0000
17128SLG    Si124442   3.988   5.144   1.394  0.0000  0.0000  0.0000
17128SLG     O124443   3.988   5.144   1.558  0.0000  0.0000  0.0000
17128SLG     H124444   3.988   5.144   1.656  0.0000  0.0000  0.0000
17128SLG     O224445   4.104   5.144   1.510  0.0000  0.0000  0.0000
17128SLG     H224446   4.104   5.144   1.608  0.0000  0.0000  0.0000
17129SLG    Si124447   8.921   7.682   1.310  0.0000  0.0000  0.0000
17129SLG     O124448   8.921   7.682   1.474  0.0000  0.0000  0.0000
17129SLG     H124449   8.921   7.682   1.572  0.0000  0.0000  0.0000
17129SLG     O224450   9.037   7.682   1.426  0.0000  0.0000  0.0000
17129SLG     H224451   9.037   7.682   1.524  0.0000  0.0000  0.0000
17130SLG    Si124452   1.833   0.516   1.351  0.0000  0.0000  0.0000
17130SLG     O124453   1.833   0.516   1.515  0.0000  0.0000  0.0000
17130SLG     H124454   1.833   0.516   1.613  0.0000  0.0000  0.0000
17130SLG     O224455   1.949   0.516   1.467  0.0000  0.0000  0.0000
17130SLG     H224456   1.949   0.516   1.565  0.0000  0.0000  0.0000
17131SLG    Si124457   5.875   6.496   8.241  0.0000  0.0000  0.0000
17131SLG     O124458   5.875   6.496   8.077  0.0000  0.0000  0.0000
17131SLG     H124459   5.875   6.496   7.979  0.0000  0.0000  0.0000
17131SLG     O224460   5.991   6.496   8.125  0.0000  0.0000  0.0000
17131SLG     H224461   5.991   6.496   8.027  0.0000  0.0000  0.0000
17132SLG    Si124462   4.069   3.091   1.290  0.0000  0.0000  0.0000
17132SLG     O124463   4.069   3.091   1.454  0.0000  0.0000  0.0000
17132SLG     H124464   4.069   3.091   1.552  0.0000  0.0000  0.0000
17132SLG     O224465   4.185   3.091   1.406  0.0000  0.0000  0.0000
17132SLG     H224466   4.185   3.091   1.504  0.0000  0.0000  0.0000
17133SLG    Si124467   7.327   7.678   1.397  0.0000  0.0000  0.0000
17133SLG     O124468   7.327   7.678   1.561  0.0000  0.0000  0.0000
17133SLG     H124469   7.327   7.678   1.659  0.0000  0.0000  0.0000
17133SLG     O224470   7.443   7.678   1.513  0.0000  0.0000  0.0000
17133SLG     H224471   7.443   7.678   1.611  0.0000  0.0000  0.0000
17134SLG    Si124472   1.880   2.152   8.226  0.0000  0.0000  0.0000
17134SLG     O124473   1.880   2.152   8.062  0.0000  0.0000  0.0000
17134SLG     H124474   1.880   2.152   7.964  0.0000  0.0000  0.0000
17134SLG     O224475   1.996   2.152   8.110  0.0000  0.0000  0.0000
17134SLG     H224476   1.996   2.152   8.012  0.0000  0.0000  0.0000
17135SLG    Si124477   6.878   6.486   8.274  0.0000  0.0000  0.0000
17135SLG     O124478   6.878   6.486   8.110  0.0000  0.0000  0.0000
17135SLG     H124479   6.878   6.486   8.012  0.0000  0.0000  0.0000
17135SLG     O224480   6.994   6.486   8.158  0.0000  0.0000  0.0000
17135SLG     H224481   6.994   6.486   8.060  0.0000  0.0000  0.0000
17136SLG    Si124482   1.982   8.549   8.232  0.0000  0.0000  0.0000
17136SLG     O124483   1.982   8.549   8.068  0.0000  0.0000  0.0000
17136SLG     H124484   1.982   8.549   7.970  0.0000  0.0000  0.0000
17136SLG     O224485   2.098   8.549   8.116  0.0000  0.0000  0.0000
17136SLG     H224486   2.098   8.549   8.018  0.0000  0.0000  0.0000
17137THY      O24487   1.549   6.496   3.794  0.6597  0.3859  1.0141
17137THY     HO24488   1.579   6.576   3.748  0.1564 -0.9287  0.4617
17137THY    CA124489   1.649   6.469   3.878  0.0866 -0.2000 -0.6444
17137THY    CA224490   1.637   6.359   3.968  0.6186 -0.7121 -0.1021
17137THY    CP124491   1.494   6.287   3.985  0.4801  0.5163  0.2763
17137THY    HP124492   1.434   6.293   3.893  0.1352  0.6382 -1.0346
17137THY    CP224493   1.413   6.372   4.082  0.0448  0.2458  0.3779
17137THY    HP224494   1.311   6.331   4.078  0.6230 -1.8102 -0.9910
17137THY    HP324495   1.407   6.475   4.044  1.2176 -2.2666 -0.3993
17137THY    HP424496   1.454   6.381   4.184 -1.6093  0.8299  2.1952
17137THY    CP324497   1.508   6.141   4.029 -0.4696  0.0818  0.3688
17137THY    HP524498   1.575   6.088   3.960  0.2414  0.3659  0.8804
17137THY    HP624499   1.412   6.088   4.031  0.4032  0.7001 -1.2341
17137THY    HP724500   1.556   6.135   4.127 -2.6300  1.2348  0.6895
17137THY    CA324501   1.750   6.319   4.047 -0.0206  0.1599  0.1232
17137THY    HA324502   1.738   6.234   4.115  0.0535 -0.9997 -0.8455
17137THY    CA424503   1.869   6.393   4.030 -0.0196 -0.4570 -0.7890
17137THY    HA424504   1.955   6.370   4.093 -0.4001  0.2167 -0.3887
17137THY    CA524505   1.872   6.511   3.949  0.7868 -0.8282 -0.1746
17137THY    CM124506   1.993   6.601   3.962  0.0187  0.2960  0.2710
17137THY    HM124507   1.984   6.644   4.062 -0.4502  0.5307 -0.3630
17137THY    HM224508   1.998   6.690   3.897 -0.5676 -0.5068 -0.2677
17137THY    HM324509   2.086   6.545   3.946 -1.3197 -1.7559 -1.5583
17137THY    CA624510   1.763   6.544   3.867  0.2980 -0.4014 -0.0199
17137THY    HA624511   1.761   6.639   3.814  1.1767  1.0694  0.8603
17138THY      O24512   6.151   6.093   2.355 -0.0038  0.4765 -0.1556
17138THY     HO24513   6.210   6.149   2.301  0.0945 -1.1872 -1.7520
17138THY    CA124514   6.049   6.055   2.273  0.7828 -0.0783 -0.1921
17138THY    CA224515   5.937   5.981   2.318  0.1207 -0.0511 -0.0872
17138THY    CP124516   5.922   5.934   2.462  0.2804  0.2984  0.5170
17138THY    HP124517   6.024   5.911   2.494  0.3135 -0.7478 -0.8892
17138THY    CP224518   5.846   5.804   2.487 -0.4069 -0.1635  0.3352
17138THY    HP224519   5.888   5.725   2.424 -1.7679 -0.7458  0.0468
17138THY    HP324520   5.741   5.818   2.457 -0.6796  1.3484  1.8968
17138THY    HP424521   5.848   5.789   2.595 -1.5548 -0.0324  0.9448
17138THY    CP324522   5.861   6.052   2.537 -0.5543 -0.2672 -0.0678
17138THY    HP524523   5.760   6.060   2.496  0.7245 -3.4412  1.4695
17138THY    HP624524   5.914   6.148   2.528  0.3738 -2.4600 -0.7319
17138THY    HP724525   5.862   6.032   2.645 -0.6698 -0.6026 -2.0791
17138THY    CA324526   5.825   5.964   2.234  0.2570  0.5258  0.4698
17138THY    HA324527   5.739   5.915   2.279  0.2036  2.6062  2.2985
17138THY    CA424528   5.821   6.017   2.105 -0.0001 -0.7946 -0.0449
17138THY    HA424529   5.735   5.998   2.042  1.1998 -2.1780 -1.1242
17138THY    CA524530   5.935   6.091   2.056 -0.2885  0.2679  0.2354
17138THY    CM124531   5.927   6.160   1.919 -0.2208 -0.0360 -0.2379
17138THY    HM124532   5.874   6.256   1.923 -0.5318 -0.5347 -0.3847
17138THY    HM224533   5.871   6.092   1.854  0.4497  0.0680 -0.9083
17138THY    HM324534   6.026   6.181   1.877 -0.9468 -0.4653  2.8220
17138THY    CA624535   6.041   6.105   2.141  0.2414 -0.7141 -0.0853
17138THY    HA624536   6.123   6.166   2.106  0.3332 -1.6495 -0.7335
17139THY      O24537   3.433   5.247   5.698  0.2706  0.2612  0.1543
17139THY     HO24538   3.383   5.292   5.768 -2.1299 -1.7501  0.8161
17139THY    CA124539   3.389   5.118   5.720 -0.5454  0.3850 -0.3805
17139THY    CA224540   3.416   5.020   5.622  0.2500 -0.1660  0.3976
17139THY    CP124541   3.510   5.052   5.501  0.2278  1.0378 -0.2407
17139THY    HP124542   3.532   5.160   5.504 -0.0136  1.3679 -0.1993
17139THY    CP224543   3.439   5.015   5.360 -0.3709 -0.3079 -0.0291
17139THY    HP224544   3.343   5.067   5.354  0.8797 -2.1828  2.2626
17139THY    HP324545   3.425   4.907   5.348  1.5961  1.0324 -0.4868
17139THY    HP424546   3.502   5.053   5.279  0.2667  0.5748  0.8352
17139THY    CP324547   3.643   4.980   5.515  0.2738  0.2578  0.4447
17139THY    HP524548   3.625   4.875   5.490 -1.6620  2.0368  0.2952
17139THY    HP624549   3.679   4.994   5.617 -0.7623  1.0396 -2.0603
17139THY    HP724550   3.712   5.009   5.435  0.2798 -0.5470 -1.5831
17139THY    CA324551   3.372   4.892   5.651 -0.9043  0.0633  0.6477
17139THY    HA324552   3.390   4.810   5.582  1.4208  1.6027 -0.2671
17139THY    CA424553   3.303   4.868   5.769 -0.5061 -0.0490  0.3118
17139THY    HA424554   3.265   4.768   5.788 -0.9957 -4.1470 -0.4760
17139THY    CA524555   3.259   4.975   5.852 -0.2629  0.6812 -0.5242
17139THY    CM124556   3.180   4.943   5.969 -0.1962  0.1913  0.1921
17139THY    HM124557   3.094   4.878   5.948  0.3198 -1.2971 -0.0462
17139THY    HM224558   3.136   5.035   6.009 -0.2530  1.4459 -0.3713
17139THY    HM324559   3.240   4.897   6.047 -2.9769  2.1074 -0.4519
17139THY    CA624560   3.307   5.103   5.826 -0.4074  0.1753  0.2070
17139THY    HA624561   3.285   5.183   5.895 -0.3911 -0.5275  0.8263
17140THY      O24562   8.426   7.018   5.505  0.0557 -0.8259  0.1161
17140THY     HO24563   8.391   7.108   5.512 -0.6187  1.3522 -0.2572
17140THY    CA124564   8.560   7.036   5.480  0.8921 -0.7560 -0.9845
17140THY    CA224565   8.652   6.930   5.477 -0.6502  0.1134 -0.8702
17140THY    CP124566   8.610   6.792   5.516  0.0812  0.5459 -0.0336
17140THY    HP124567   8.503   6.781   5.539  0.2213  0.1859 -2.7075
17140THY    CP224568   8.677   6.769   5.646  0.0031  0.0254 -0.0015
17140THY    HP224569   8.657   6.667   5.681  0.9462  0.4553 -0.0494
17140THY    HP324570   8.633   6.827   5.728  3.3313  2.4924 -0.6553
17140THY    HP424571   8.784   6.791   5.643 -0.5051  1.0308  3.2102
17140THY    CP324572   8.636   6.685   5.401 -0.1481 -0.5138  0.5604
17140THY    HP524573   8.743   6.676   5.379 -0.0912  0.5261 -2.3243
17140THY    HP624574   8.579   6.716   5.313  0.4765 -1.0630  0.1769
17140THY    HP724575   8.588   6.592   5.435 -2.0365  0.5950  1.8683
17140THY    CA324576   8.786   6.959   5.440  0.1877  0.0136 -0.1505
17140THY    HA324577   8.860   6.882   5.463  0.9883 -0.0924  0.5720
17140THY    CA424578   8.820   7.091   5.407 -0.1014 -0.2902 -0.0922
17140THY    HA424579   8.921   7.113   5.374  1.3725  3.1050 -1.1831
17140THY    CA524580   8.721   7.190   5.397  0.0179  0.3271  0.0419
17140THY    CM124581   8.745   7.323   5.336 -0.2029 -0.0273  0.0196
17140THY    HM124582   8.853   7.333   5.320 -0.4611 -1.0745  1.4667
17140THY    HM224583   8.705   7.408   5.393 -1.1624 -1.8492  0.8498
17140THY    HM324584   8.700   7.327   5.236 -0.3859  0.0517 -0.0364
17140THY    CA624585   8.589   7.158   5.429 -0.8540  0.3059  0.0656
17140THY    HA624586   8.512   7.234   5.425 -0.3696  0.7236  0.5844
17141THY      O24587   9.173   3.598   3.159  0.0510  0.1019 -0.5629
17141THY     HO24588   9.194   3.636   3.072 -1.6715 -1.0669 -2.1256
17141THY    CA124589   9.217   3.678   3.254  0.1163 -0.2474 -0.1960
17141THY    CA224590   9.156   3.691   3.383  0.2691  0.3385  0.1883
17141THY    CP124591   9.021   3.624   3.422  0.9616  0.3230 -0.0158
17141THY    HP124592   8.963   3.640   3.331 -1.8854  2.3917  3.1328
17141THY    CP224593   8.933   3.700   3.518  0.3462 -0.1399 -0.2833
17141THY    HP224594   8.917   3.804   3.486 -2.0991  0.6973 -0.3492
17141THY    HP324595   8.985   3.714   3.614 -0.6120  0.1332  1.9045
17141THY    HP424596   8.834   3.653   3.524  0.5016  0.4184 -0.5517
17141THY    CP324597   9.028   3.478   3.466  0.0987  0.9309  0.4675
17141THY    HP524598   9.078   3.470   3.563 -0.1430  1.0953  0.9131
17141THY    HP624599   9.084   3.428   3.386  0.1447  1.6944 -0.7343
17141THY    HP724600   8.929   3.433   3.457  0.6604 -0.8080 -0.5362
17141THY    CA324601   9.230   3.759   3.481  0.0331  0.1375  0.0699
17141THY    HA324602   9.204   3.745   3.586  3.4506  0.9728 -1.2129
17141THY    CA424603   9.347   3.829   3.450 -0.2884 -0.7652 -0.2545
17141THY    HA424604   9.400   3.885   3.527 -0.6625 -0.0156 -0.9077
17141THY    CA524605   9.397   3.821   3.324 -0.0965 -0.5522  0.4707
17141THY    CM124606   9.530   3.886   3.288  0.5395 -0.0991  0.1814
17141THY    HM124607   9.502   3.992   3.289  2.8287  0.4826  0.8299
17141THY    HM224608   9.554   3.866   3.183  0.9299  0.1767 -0.8333
17141THY    HM324609   9.604   3.865   3.365 -1.6866  1.3142 -3.3572
17141THY    CA624610   9.327   3.750   3.225  0.2221 -0.1967 -0.1316
17141THY    HA624611   9.372   3.731   3.128  2.5986  1.2076 -2.3770
17142THY      O24612   6.218   9.090   6.720 -0.3790  0.3099 -0.1933
17142THY     HO24613   6.308   9.058   6.708 -0.5306 -1.5490 -0.0336
17142THY    CA124614   6.140   9.036   6.620 -0.0194 -0.0491  0.2917
17142THY    CA224615   5.999   9.045   6.620 -0.0845 -0.4784  0.3656
17142THY    CP124616   5.914   9.115   6.727 -0.1359 -0.5762 -0.7643
17142THY    HP124617   5.975   9.164   6.804  0.4313 -0.2545 -1.9525
17142THY    CP224618   5.818   9.016   6.801  0.1863 -0.9316  0.8108
17142THY    HP224619   5.872   8.973   6.886 -2.8902  0.4517 -0.6394
17142THY    HP324620   5.781   8.929   6.747  1.9398 -1.2469  0.2186
17142THY    HP424621   5.737   9.075   6.848 -0.1611  0.5463 -0.7637
17142THY    CP324622   5.842   9.234   6.667 -0.0279  0.5429 -0.0877
17142THY    HP524623   5.781   9.209   6.579  0.8253 -0.2634  0.6262
17142THY    HP624624   5.912   9.302   6.619 -0.7904  0.3806  0.6001
17142THY    HP724625   5.795   9.296   6.744  1.3855  1.7314 -0.4564
17142THY    CA324626   5.928   8.982   6.517  0.3199  0.6048  0.2575
17142THY    HA324627   5.822   8.990   6.499  0.4674 -0.0160  0.9271
17142THY    CA424628   5.998   8.916   6.421  0.0732  0.5147  0.0604
17142THY    HA424629   5.953   8.874   6.332  0.2238  0.0734  0.8153
17142THY    CA524630   6.139   8.912   6.420  1.2338 -0.3003 -0.2605
17142THY    CM124631   6.210   8.839   6.313 -0.3277  0.3250 -0.0329
17142THY    HM124632   6.232   8.734   6.336  1.2174  1.9721  0.5870
17142THY    HM224633   6.313   8.873   6.293 -1.2984 -4.4111  0.8516
17142THY    HM324634   6.159   8.851   6.217 -1.4512  0.7058 -1.5038
17142THY    CA624635   6.209   8.974   6.527 -0.1700  0.0900  0.1817
17142THY    HA624636   6.316   8.957   6.523 -0.4905 -1.3430 -2.0418
17143THY      O24637   4.843   7.800   5.942 -0.2793  0.2758 -0.2179
17143THY     HO24638   4.843   7.863   6.017  0.6087 -0.6131  0.8736
17143THY    CA124639   4.720   7.746   5.929 -0.0542  0.0494 -0.0659
17143THY    CA224640   4.706   7.614   5.877 -0.3520  0.1405  0.2599
17143THY    CP124641   4.838   7.534   5.850 -0.0713  0.7579 -1.0902
17143THY    HP124642   4.930   7.586   5.878 -0.1235  1.8428 -1.5594
17143THY    CP224643   4.841   7.494   5.696  0.1386 -0.0421 -0.3559
17143THY    HP224644   4.846   7.590   5.644  1.3881  0.7419  0.0227
17143THY    HP324645   4.754   7.429   5.675  0.4558  0.6979 -1.0448
17143THY    HP424646   4.933   7.440   5.672  0.3279 -2.7377  1.0086
17143THY    CP324647   4.843   7.404   5.929  0.4157  0.2819 -0.0304
17143THY    HP524648   4.744   7.357   5.930  1.5440  2.7422 -2.6393
17143THY    HP624649   4.871   7.433   6.031  2.4447 -0.6563  1.5738
17143THY    HP724650   4.921   7.336   5.894 -1.2282  0.1887 -1.9760
17143THY    CA324651   4.580   7.557   5.860 -0.3369  0.3848  0.4911
17143THY    HA324652   4.569   7.456   5.822  0.7540  0.1951  0.4314
17143THY    CA424653   4.468   7.641   5.888 -0.2846 -0.2278  0.3172
17143THY    HA424654   4.368   7.601   5.873  0.1193  0.9133 -1.2477
17143THY    CA524655   4.483   7.768   5.942 -0.2318 -0.4308 -0.2341
17143THY    CM124656   4.361   7.856   5.961  0.1923  0.3815  0.5078
17143THY    HM124657   4.396   7.949   6.006  1.5681 -0.0069  0.2008
17143THY    HM224658   4.297   7.791   6.022  0.4099  1.2896  1.1296
17143THY    HM324659   4.316   7.879   5.863  0.1715  0.1869 -0.3051
17143THY    CA624660   4.613   7.825   5.950  1.3368 -0.2027  0.2531
17143THY    HA624661   4.618   7.929   5.983 -1.1668 -1.6189  0.9125
17144THY      O24662   5.006   8.152   5.889 -0.2661 -0.0207 -0.6311
17144THY     HO24663   5.024   8.245   5.867 -1.2552 -0.4390 -0.5191
17144THY    CA124664   5.130   8.090   5.898  0.7504 -0.0781  0.6020
17144THY    CA224665   5.161   7.979   5.816  0.2588  0.3298 -0.2772
17144THY    CP124666   5.058   7.929   5.703  0.0727 -0.2710 -1.0577
17144THY    HP124667   4.955   7.944   5.737 -1.2216 -4.0817 -0.2511
17144THY    CP224668   5.073   7.783   5.656 -0.0267  0.3650 -0.4650
17144THY    HP224669   4.995   7.776   5.580  1.3740 -1.4729  2.2313
17144THY    HP324670   5.064   7.706   5.734  1.7490 -0.2039 -1.3196
17144THY    HP424671   5.169   7.764   5.606 -1.4258 -1.9177 -2.1236
17144THY    CP324672   5.096   8.025   5.587 -0.8107  0.3246  0.8589
17144THY    HP524673   5.204   8.032   5.572 -0.6015 -0.4092 -2.3314
17144THY    HP624674   5.059   8.125   5.613  0.6391 -1.6655  1.9579
17144THY    HP724675   5.049   8.007   5.490 -0.2261 -0.0120  1.1359
17144THY    CA324676   5.285   7.917   5.841  0.1121  0.1746  0.4471
17144THY    HA324677   5.313   7.830   5.783  1.2975  0.4482  0.6315
17144THY    CA424678   5.373   7.968   5.944 -0.0669  0.0673  0.0970
17144THY    HA424679   5.470   7.923   5.968  0.3410 -2.1367 -0.3066
17144THY    CA524680   5.337   8.075   6.021 -0.5585 -0.4405 -0.0616
17144THY    CM124681   5.425   8.123   6.140 -0.2081  0.5735  0.1368
17144THY    HM124682   5.529   8.090   6.133 -0.6514  0.2285 -1.2699
17144THY    HM224683   5.385   8.097   6.239 -0.0300  1.3324  2.5049
17144THY    HM324684   5.423   8.233   6.140  0.3240  1.0182  0.1494
17144THY    CA624685   5.218   8.138   5.997  0.3026 -0.4547 -0.1370
17144THY    HA624686   5.203   8.233   6.047  2.1776 -0.2428  0.0758
17145THY      O24687   9.161   6.316   5.680  0.4035 -0.1740  0.1123
17145THY     HO24688   9.153   6.321   5.777 -0.8506 -0.2490 -0.2532
17145THY    CA124689   9.041   6.291   5.621 -1.1108  0.4015 -0.3686
17145THY    CA224690   9.037   6.252   5.489  0.1152  0.1057  0.5890
17145THY    CP124691   9.163   6.219   5.403  0.1672  0.5730 -0.0325
17145THY    HP124692   9.258   6.224   5.457  0.7776 -0.5489  0.8995
17145THY    CP224693   9.179   6.320   5.289  0.4612 -0.1602 -0.5854
17145THY    HP224694   9.163   6.424   5.319 -0.5544  0.4106 -0.8839
17145THY    HP324695   9.104   6.304   5.210 -0.1182  0.1665  0.4077
17145THY    HP424696   9.277   6.308   5.241  0.1498 -0.5818 -1.5397
17145THY    CP324697   9.159   6.080   5.346  0.5782 -0.2514  0.2027
17145THY    HP524698   9.058   6.054   5.312 -0.0468 -1.6008  3.7592
17145THY    HP624699   9.194   6.016   5.427 -0.6948  1.1154  1.1725
17145THY    HP724700   9.232   6.074   5.264 -0.2529 -1.2542  2.4607
17145THY    CA324701   8.910   6.254   5.430 -0.2506  0.7685 -0.0100
17145THY    HA324702   8.899   6.224   5.326  1.0592 -0.0305  2.0661
17145THY    CA424703   8.793   6.273   5.501  0.3323 -0.5968  0.1141
17145THY    HA424704   8.696   6.263   5.454 -0.0176  0.0114  0.6053
17145THY    CA524705   8.792   6.311   5.634  0.4416  0.3300  0.0722
17145THY    CM124706   8.666   6.345   5.701  0.5332 -0.0994 -0.5383
17145THY    HM124707   8.586   6.270   5.691  0.2210  2.1008 -0.5616
17145THY    HM224708   8.632   6.441   5.661  0.7155 -3.5626 -1.7884
17145THY    HM324709   8.680   6.367   5.808 -0.7721 -0.0132 -0.0765
17145THY    CA624710   8.924   6.326   5.693  0.6001 -0.6157 -0.1655
17145THY    HA624711   8.923   6.357   5.797  1.3309 -0.4934 -0.5245
17146THY      O24712   6.215   7.347   6.549 -0.0418  0.0304 -0.2249
17146THY     HO24713   6.280   7.300   6.494 -0.4280  0.6399 -1.5200
17146THY    CA124714   6.148   7.249   6.605 -0.1383  0.1586 -0.2222
17146THY    CA224715   6.034   7.269   6.681  0.7939  0.4961 -0.2995
17146THY    CP124716   5.979   7.410   6.709  0.1944  0.0442 -0.7954
17146THY    HP124717   6.049   7.489   6.680 -0.4080  0.6350 -0.0397
17146THY    CP224718   5.949   7.431   6.864 -0.0594  0.8411  0.3092
17146THY    HP224719   6.037   7.395   6.919  0.9388 -0.8357  0.1032
17146THY    HP324720   5.859   7.378   6.897 -1.4261 -1.9139  0.7312
17146THY    HP424721   5.921   7.532   6.897 -0.9158  0.6585  0.1384
17146THY    CP324722   5.853   7.422   6.620  0.3620  0.8282 -0.4245
17146THY    HP524723   5.882   7.412   6.514  0.1548  0.7085  0.1490
17146THY    HP624724   5.795   7.514   6.635  0.7472  2.0055 -0.3657
17146THY    HP724725   5.782   7.342   6.642 -1.8942  0.1066  1.2482
17146THY    CA324726   5.973   7.158   6.748  0.2148 -0.3754 -0.3023
17146THY    HA324727   5.889   7.168   6.816  0.6055 -0.2319  3.6440
17146THY    CA424728   6.026   7.027   6.724 -0.0204  0.6041  0.2901
17146THY    HA424729   5.982   6.939   6.770 -1.1757 -1.1641 -0.1059
17146THY    CA524730   6.143   7.006   6.644  0.0253 -0.4835  0.5585
17146THY    CM124731   6.182   6.858   6.622  0.0270 -0.1276  0.4232
17146THY    HM124732   6.246   6.830   6.706 -0.8203  0.9091  1.4836
17146THY    HM224733   6.225   6.848   6.522 -1.8821 -1.0618  1.0406
17146THY    HM324734   6.090   6.798   6.616  1.1526 -1.0034 -1.2836
17146THY    CA624735   6.203   7.119   6.583 -0.1684  0.9933 -0.2682
17146THY    HA624736   6.283   7.107   6.509  0.5977  1.1204  3.1259
17147THY      O24737   6.391   4.458   3.302  0.6875  0.1020  0.1400
17147THY     HO24738   6.351   4.393   3.241 -0.2530  0.4670  0.3580
17147THY    CA124739   6.334   4.581   3.287 -0.0165 -0.0157 -0.1382
17147THY    CA224740   6.384   4.685   3.371  0.5874 -0.1588 -0.5883
17147THY    CP124741   6.486   4.650   3.487  0.6866  0.0877 -0.0372
17147THY    HP124742   6.465   4.546   3.512 -0.5619 -1.6286 -0.2548
17147THY    CP224743   6.453   4.738   3.616 -0.7236  0.2531  0.8635
17147THY    HP224744   6.350   4.729   3.652 -0.6903  0.3554  0.8973
17147THY    HP324745   6.472   4.842   3.589 -1.5209 -1.2347  0.6578
17147THY    HP424746   6.527   4.704   3.690 -1.1807 -0.0034 -0.7901
17147THY    CP324747   6.628   4.685   3.449 -0.7737 -0.5339 -0.6418
17147THY    HP524748   6.674   4.597   3.401  2.8632 -0.4770  1.0147
17147THY    HP624749   6.694   4.699   3.535 -2.2969  0.8171 -1.5879
17147THY    HP724750   6.635   4.776   3.387 -1.3564  1.5371  0.8972
17147THY    CA324751   6.338   4.815   3.351 -0.1445  0.5569  0.4280
17147THY    HA324752   6.378   4.887   3.422  2.2671  1.0623 -1.2842
17147THY    CA424753   6.248   4.836   3.242 -0.0643  0.5709 -0.5660
17147THY    HA424754   6.217   4.939   3.231  1.0416  2.3318 -0.0075
17147THY    CA524755   6.193   4.728   3.166 -0.5507 -0.1287 -0.1285
17147THY    CM124756   6.094   4.763   3.057 -0.3350 -0.0126  0.0739
17147THY    HM124757   6.007   4.696   3.056  0.9135  0.1861 -1.6154
17147THY    HM224758   6.143   4.762   2.959  0.7752  0.4964 -2.3716
17147THY    HM324759   6.053   4.864   3.071 -4.3695 -2.1229 -1.0787
17147THY    CA624760   6.241   4.601   3.191 -0.3847  0.8457 -0.4643
17147THY    HA624761   6.202   4.527   3.122  0.2030  1.0035 -0.9255
17148THY      O24762   2.758   0.773   1.852 -0.3616 -0.1295  0.2973
17148THY     HO24763   2.693   0.836   1.817 -0.7692  0.1831  0.0479
17148THY    CA124764   2.883   0.819   1.820  0.0916  0.3592  0.5500
17148THY    CA224765   3.004   0.743   1.830  0.0243 -0.2407  0.0156
17148THY    CP124766   3.010   0.604   1.884  0.2161 -0.0517 -0.5531
17148THY    HP124767   2.910   0.579   1.923  0.9427  1.8313 -0.7206
17148THY    CP224768   3.111   0.596   1.999  0.2651 -0.3741 -0.6748
17148THY    HP224769   3.217   0.594   1.969 -0.3272 -2.6092 -1.1519
17148THY    HP324770   3.087   0.508   2.060  2.2259  1.9682  0.2929
17148THY    HP424771   3.082   0.681   2.062 -2.3012 -1.3909 -0.7164
17148THY    CP324772   3.037   0.497   1.781 -0.6995  0.3194 -0.1024
17148THY    HP524773   3.039   0.402   1.836 -1.5555  1.5435  0.5687
17148THY    HP624774   3.137   0.519   1.743 -0.6475  0.1622 -0.5916
17148THY    HP724775   2.961   0.486   1.702 -0.3696 -0.0595  0.2871
17148THY    CA324776   3.125   0.805   1.796  0.0558  0.4052  0.4287
17148THY    HA324777   3.217   0.748   1.795  1.0212 -1.2166  1.9314
17148THY    CA424778   3.120   0.941   1.769 -0.4873 -0.4065 -0.7266
17148THY    HA424779   3.208   0.994   1.735 -0.7835  1.6726  1.2194
17148THY    CA524780   3.000   1.016   1.767  0.0541  0.0422 -1.3088
17148THY    CM124781   3.003   1.163   1.746 -0.8033 -0.2802  0.0030
17148THY    HM124782   3.104   1.191   1.714  0.1051 -0.2207 -2.9032
17148THY    HM224783   2.982   1.209   1.844  0.6044 -0.5338  1.2697
17148THY    HM324784   2.923   1.184   1.675 -0.0314 -1.2164 -0.1377
17148THY    CA624785   2.882   0.955   1.805  0.3879 -0.0095 -0.3206
17148THY    HA624786   2.787   1.007   1.805 -0.6050  1.5983 -2.0204
17149THY      O24787   8.112   6.278   7.569  0.0112 -0.2056  0.0035
17149THY     HO24788   8.060   6.360   7.564  0.6791  1.0982  0.5433
17149THY    CA124789   8.178   6.278   7.693  0.1868  0.0918  0.0064
17149THY    CA224790   8.277   6.183   7.719 -0.3517 -0.7739 -0.9746
17149THY    CP124791   8.321   6.091   7.605  0.4027  0.2309  0.4216
17149THY    HP124792   8.290   6.127   7.506  0.8620 -0.0652  0.0180
17149THY    CP224793   8.255   5.951   7.629 -0.2132 -1.0257 -0.5058
17149THY    HP224794   8.284   5.879   7.551  1.4371 -0.6491 -0.2809
17149THY    HP324795   8.147   5.967   7.618 -0.1159 -2.5577 -0.7263
17149THY    HP424796   8.285   5.908   7.724  1.4714  0.1578  2.9294
17149THY    CP324797   8.472   6.069   7.605 -0.5217 -0.3012  0.5729
17149THY    HP524798   8.520   6.154   7.556 -3.1289 -2.4935  0.9234
17149THY    HP624799   8.491   5.982   7.540 -1.9750  0.4685 -0.3792
17149THY    HP724800   8.514   6.046   7.704  1.2268 -0.6019  2.2875
17149THY    CA324801   8.325   6.174   7.856  0.2283  1.0577  0.6883
17149THY    HA324802   8.407   6.109   7.884 -0.1137  0.3134 -0.0822
17149THY    CA424803   8.270   6.257   7.956  0.1498 -0.0248 -0.4231
17149THY    HA424804   8.314   6.268   8.055  1.2087 -0.4732 -0.5000
17149THY    CA524805   8.167   6.345   7.925  0.0074  0.8357  1.0439
17149THY    CM124806   8.110   6.435   8.032 -0.3068 -0.2131  0.0205
17149THY    HM124807   8.033   6.372   8.078 -2.2582 -1.9531  1.0075
17149THY    HM224808   8.066   6.522   7.980  1.9482 -0.6540  0.9767
17149THY    HM324809   8.177   6.465   8.113 -1.1911  0.5727 -0.1022
17149THY    CA624810   8.121   6.354   7.792 -0.2028  0.2883 -0.1907
17149THY    HA624811   8.053   6.432   7.762 -1.0589 -0.7534 -1.3181
17150THY      O24812   5.659   7.509   5.290 -0.0257 -0.1538 -0.0788
17150THY     HO24813   5.742   7.463   5.310  1.0703  0.7424  2.1338
17150THY    CA124814   5.619   7.568   5.400 -0.2099 -0.5665 -0.4053
17150THY    CA224815   5.536   7.675   5.400 -0.2506  0.5450 -0.5403
17150THY    CP124816   5.493   7.744   5.277 -0.1920 -0.3688 -0.0246
17150THY    HP124817   5.517   7.692   5.184  2.1311 -0.6961  1.5077
17150THY    CP224818   5.552   7.885   5.253  0.4179  0.1625  0.6347
17150THY    HP224819   5.512   7.930   5.161 -0.0073  0.5621  1.0924
17150THY    HP324820   5.660   7.875   5.244  0.3493  1.2447 -1.6634
17150THY    HP424821   5.532   7.950   5.339 -1.8319 -0.6668  1.1580
17150THY    CP324822   5.336   7.764   5.270 -0.1815 -0.7963 -0.1929
17150THY    HP524823   5.294   7.784   5.171 -1.5052  0.0280  1.2362
17150THY    HP624824   5.298   7.842   5.337 -2.1529  1.4867 -2.8841
17150THY    HP724825   5.286   7.673   5.305  0.8473 -0.2008 -0.5581
17150THY    CA324826   5.498   7.729   5.524  0.8211  0.2714 -0.0447
17150THY    HA324827   5.430   7.814   5.533  1.1282 -0.1787  0.2572
17150THY    CA424828   5.542   7.673   5.640  0.8847 -0.4814 -0.2068
17150THY    HA424829   5.508   7.706   5.737  2.6599  0.2224 -0.3233
17150THY    CA524830   5.624   7.567   5.644  0.0615 -0.0916  0.6840
17150THY    CM124831   5.671   7.500   5.776  0.2290  0.3007  0.2687
17150THY    HM124832   5.629   7.400   5.797  0.7588  3.1099  0.5484
17150THY    HM224833   5.644   7.572   5.854  0.0357 -0.5707  1.1416
17150THY    HM324834   5.779   7.483   5.773  0.0624 -0.1494 -0.7729
17150THY    CA624835   5.662   7.512   5.519  0.5034 -0.5993  0.5949
17150THY    HA624836   5.721   7.421   5.528 -0.4270  1.1450  0.1254
17151THY      O24837   4.765   5.397   4.787  0.7947 -0.5356  0.1672
17151THY     HO24838   4.818   5.442   4.719 -1.0962 -0.6404  2.4107
17151THY    CA124839   4.702   5.494   4.857  0.5208 -1.2393  0.0552
17151THY    CA224840   4.687   5.481   4.993 -0.0777 -0.6570  0.1373
17151THY    CP124841   4.739   5.349   5.062 -0.0846 -0.4769 -0.1572
17151THY    HP124842   4.833   5.318   5.015  0.1370  1.0147 -1.9382
17151THY    CP224843   4.633   5.240   5.032 -0.3980 -0.2831 -0.2261
17151THY    HP224844   4.532   5.280   5.049 -0.3203  0.1347 -0.2105
17151THY    HP324845   4.640   5.151   5.095 -0.9654  1.0703  0.6559
17151THY    HP424846   4.645   5.212   4.927 -1.1794 -0.6825  0.8572
17151THY    CP324847   4.760   5.364   5.211 -0.8691  0.5735 -0.1487
17151THY    HP524848   4.668   5.345   5.268 -1.5086 -0.7914 -1.4036
17151THY    HP624849   4.798   5.463   5.237 -0.6690 -0.7776  0.1493
17151THY    HP724850   4.846   5.304   5.243 -1.6208 -0.4353 -1.8553
17151THY    CA324851   4.624   5.583   5.064 -0.0291  0.0229  0.4587
17151THY    HA324852   4.613   5.585   5.172 -1.2759 -0.0861  0.4328
17151THY    CA424853   4.572   5.694   4.988  0.2402 -0.2289  0.5123
17151THY    HA424854   4.513   5.772   5.036  0.9537 -2.0999  2.2666
17151THY    CA524855   4.594   5.701   4.855  0.0115 -0.6888  0.7241
17151THY    CM124856   4.543   5.815   4.779  0.0462  0.4618 -1.0015
17151THY    HM124857   4.436   5.834   4.784  0.0162 -2.7641  0.2473
17151THY    HM224858   4.581   5.812   4.676 -1.4260 -0.1507  0.1196
17151THY    HM324859   4.591   5.904   4.823 -0.3474 -0.2590 -0.4215
17151THY    CA624860   4.655   5.602   4.786 -0.7903 -0.7967  0.9380
17151THY    HA624861   4.666   5.602   4.678  1.8873 -0.6226 -0.9836
17152THY      O24862   6.793   8.460   7.599 -0.2600  0.3076  0.4010
17152THY     HO24863   6.795   8.492   7.691 -0.2094  0.5822 -0.3760
17152THY    CA124864   6.819   8.567   7.519  0.1456 -0.3905  0.4854
17152THY    CA224865   6.747   8.589   7.405  0.0916  0.2076 -0.2697
17152THY    CP124866   6.634   8.499   7.368  0.5669 -0.4821  0.0945
17152THY    HP124867   6.644   8.401   7.415 -0.6359 -0.0753  0.1512
17152THY    CP224868   6.621   8.478   7.220  0.1947  0.6884  0.2162
17152THY    HP224869   6.716   8.436   7.186  0.6148  3.1868 -1.0388
17152THY    HP324870   6.575   8.566   7.173  0.2836 -1.0950 -0.6309
17152THY    HP424871   6.548   8.399   7.199 -0.2292  1.4626  0.3936
17152THY    CP324872   6.495   8.551   7.425  0.1072  0.7062  0.0557
17152THY    HP524873   6.421   8.473   7.404  0.8401  1.7851 -0.9601
17152THY    HP624874   6.464   8.641   7.370 -3.3695  1.0767 -0.7762
17152THY    HP724875   6.504   8.579   7.531  0.1956  0.5492  0.6384
17152THY    CA324876   6.776   8.708   7.331 -0.3243 -0.4955  0.5070
17152THY    HA324877   6.731   8.737   7.237  0.6148 -0.7350  1.2581
17152THY    CA424878   6.887   8.789   7.368 -0.1892 -0.0771 -0.2448
17152THY    HA424879   6.918   8.873   7.306 -2.4975 -0.5875  0.2776
17152THY    CA524880   6.959   8.766   7.486 -0.0071 -0.1832  0.8557
17152THY    CM124881   7.071   8.856   7.526 -0.3139 -0.0642  0.2081
17152THY    HM124882   7.136   8.893   7.446 -1.4152 -0.7541  0.6917
17152THY    HM224883   7.134   8.822   7.609  1.9075 -0.6608  2.5556
17152THY    HM324884   7.024   8.940   7.579  0.0848  0.5006  0.0832
17152THY    CA624885   6.918   8.660   7.561  0.3008 -0.7114 -0.5888
17152THY    HA624886   6.971   8.650   7.655  2.0563 -1.3013  2.0339
17153THY      O24887   3.227   5.295   5.483 -0.1396  0.8589  0.5702
17153THY     HO24888   3.312   5.273   5.523  1.1212 -0.2269  3.0781
17153THY    CA124889   3.258   5.360   5.368 -0.6315 -0.0643  0.7115
17153THY    CA224890   3.165   5.378   5.265 -1.0564  0.5003  0.8019
17153THY    CP124891   3.033   5.309   5.259  0.6036 -0.2162  0.8291
17153THY    HP124892   3.030   5.245   5.348  0.7251 -0.2212  0.8150
17153THY    CP224893   3.027   5.205   5.150 -0.5038  0.1567 -0.3262
17153THY    HP224894   3.080   5.115   5.184  0.4026 -0.4115 -0.0286
17153THY    HP324895   3.085   5.246   5.066 -1.9074 -0.9020 -0.4229
17153THY    HP424896   2.922   5.179   5.130 -1.1045  1.4662  0.9808
17153THY    CP324897   2.911   5.408   5.253  0.1626 -0.1591 -0.3087
17153THY    HP524898   2.899   5.468   5.344  0.0878 -0.2773 -0.1438
17153THY    HP624899   2.825   5.341   5.246 -0.1924  1.0100 -0.0113
17153THY    HP724900   2.914   5.478   5.169  0.9339  2.1992  2.7540
17153THY    CA324901   3.207   5.463   5.157  0.4820 -0.1227 -0.7404
17153THY    HA324902   3.133   5.472   5.078 -2.7829  2.7271 -0.6400
17153THY    CA424903   3.337   5.515   5.152  0.3540 -0.1877  0.4963
17153THY    HA424904   3.365   5.572   5.064 -1.7499 -0.4759  1.1921
17153THY    CA524905   3.428   5.488   5.258  0.3198 -0.4585  0.4070
17153THY    CM124906   3.556   5.560   5.260 -0.2425  0.6488 -0.2517
17153THY    HM124907   3.634   5.499   5.307  0.0680  2.2474  1.2665
17153THY    HM224908   3.545   5.653   5.318 -0.3975  1.0556 -0.5226
17153THY    HM324909   3.593   5.609   5.169  0.7423  0.9812 -0.3499
17153THY    CA624910   3.385   5.409   5.366 -0.4784  0.8910 -0.2545
17153THY    HA624911   3.462   5.401   5.443  0.9441 -0.2581  1.4083
17154THY      O24912   4.419   4.458   3.644  0.7704  0.2483 -0.1353
17154THY     HO24913   4.376   4.373   3.627 -2.0830  1.3162  0.9706
17154THY    CA124914   4.538   4.459   3.585  0.4739 -0.4967  0.2753
17154THY    CA224915   4.586   4.567   3.504  0.2479 -0.0728 -0.2555
17154THY    CP124916   4.498   4.683   3.473  0.0170  0.0246 -0.7148
17154THY    HP124917   4.405   4.701   3.528 -1.1888 -2.5543  1.8071
17154THY    CP224918   4.447   4.682   3.325 -0.9007  0.6602 -0.1907
17154THY    HP224919   4.390   4.588   3.313 -0.1191  1.3708 -0.7722
17154THY    HP324920   4.529   4.669   3.254 -1.0675  0.0054  2.0758
17154THY    HP424921   4.390   4.769   3.291  3.3531  0.4653  2.8125
17154THY    CP324922   4.574   4.815   3.511  0.2958  0.5272  0.2537
17154THY    HP524923   4.667   4.808   3.454  1.2961  2.2445 -1.3929
17154THY    HP624924   4.605   4.816   3.616 -1.5463  1.1192  0.2379
17154THY    HP724925   4.497   4.887   3.480  0.1632 -0.4280 -0.2856
17154THY    CA324926   4.705   4.543   3.421 -0.0555 -0.0937 -0.0944
17154THY    HA324927   4.740   4.609   3.342 -0.1926  0.5239  0.7440
17154THY    CA424928   4.779   4.424   3.444  0.7834  0.0793 -0.6253
17154THY    HA424929   4.861   4.399   3.377 -0.0081 -1.0747 -0.1998
17154THY    CA524930   4.742   4.340   3.548 -0.0737 -0.0069  0.6088
17154THY    CM124931   4.819   4.214   3.572 -0.0271  0.0881 -0.3048
17154THY    HM124932   4.918   4.230   3.527 -0.3778  0.0594  2.2845
17154THY    HM224933   4.772   4.127   3.526 -2.1502  0.5457  0.5310
17154THY    HM324934   4.817   4.180   3.676  0.4619 -1.0853 -4.5073
17154THY    CA624935   4.622   4.347   3.615  0.7161 -0.1932 -0.2039
17154THY    HA624936   4.603   4.274   3.693  1.4988 -0.5775 -0.8353
17155THY      O24937   1.863   0.481   6.284 -0.0087  0.0220 -0.5180
17155THY     HO24938   1.801   0.490   6.210  1.2206 -1.0114 -0.1628
17155THY    CA124939   1.967   0.418   6.228  0.1357  1.0253  0.6559
17155THY    CA224940   2.077   0.381   6.303 -0.9609  0.2502  0.8438
17155THY    CP124941   2.082   0.413   6.457  0.3968  0.1091 -0.0140
17155THY    HP124942   1.983   0.388   6.499  0.1382 -0.0720  0.6767
17155THY    CP224943   2.101   0.561   6.483  0.0793  0.3976 -0.0725
17155THY    HP224944   2.194   0.601   6.442 -0.2947  0.3724  0.7849
17155THY    HP324945   2.091   0.576   6.591  1.8814  0.6865 -0.7779
17155THY    HP424946   2.021   0.614   6.430 -0.6002  2.5038  1.0918
17155THY    CP324947   2.189   0.340   6.540  0.4640 -0.6429  0.2934
17155THY    HP524948   2.290   0.354   6.499  0.1825 -1.2922  0.4400
17155THY    HP624949   2.162   0.234   6.527  0.0151 -1.9932  0.5623
17155THY    HP724950   2.183   0.368   6.646 -0.7609 -0.4235 -0.6935
17155THY    CA324951   2.179   0.304   6.245 -0.5691 -0.6853  0.5359
17155THY    HA324952   2.259   0.269   6.310 -1.3706 -0.8536 -1.7700
17155THY    CA424953   2.184   0.276   6.108  0.4559  0.1049  0.5124
17155THY    HA424954   2.266   0.212   6.076  0.0611  1.4134 -0.7209
17155THY    CA524955   2.074   0.317   6.032  0.3513 -0.4443 -0.0393
17155THY    CM124956   2.077   0.294   5.880  0.2727 -0.0587 -0.4954
17155THY    HM124957   2.180   0.272   5.850  0.3828  1.3290 -2.0744
17155THY    HM224958   2.053   0.387   5.827  0.5951 -0.3715 -0.5868
17155THY    HM324959   2.012   0.211   5.848  0.3228 -1.2912 -0.0797
17155THY    CA624960   1.963   0.391   6.092  0.1037  0.6467  0.3027
17155THY    HA624961   1.879   0.415   6.028  1.2911 -0.7288  0.9542
17156THY      O24962   8.783   8.235   6.759 -0.3469  0.1321 -0.1641
17156THY     HO24963   8.753   8.195   6.842 -3.0486 -0.7757 -0.1753
17156THY    CA124964   8.788   8.134   6.667 -0.0446  0.0747 -0.4124
17156THY    CA224965   8.911   8.108   6.604  0.2250 -0.4746 -0.1695
17156THY    CP124966   9.041   8.181   6.646  1.1610  0.4405 -0.5174
17156THY    HP124967   9.015   8.263   6.713  2.6408 -0.8467  1.0754
17156THY    CP224968   9.116   8.248   6.524 -0.7526 -0.3351 -0.6857
17156THY    HP224969   9.215   8.284   6.554  0.3771 -1.6353 -2.5560
17156THY    HP324970   9.060   8.329   6.474 -0.3248  1.3028  0.6849
17156THY    HP424971   9.145   8.171   6.452  1.1750  1.4208 -1.7025
17156THY    CP324972   9.147   8.096   6.717 -0.2214  0.6554  0.0542
17156THY    HP524973   9.202   8.039   6.641 -1.2931 -1.6850  1.9664
17156THY    HP624974   9.109   8.024   6.790  3.9392  1.1339 -1.9912
17156THY    HP724975   9.227   8.150   6.770  0.2280  0.4029 -0.3485
17156THY    CA324976   8.911   8.018   6.498 -0.0007 -0.7787  0.1222
17156THY    HA324977   9.005   7.984   6.455 -1.0845 -1.7144 -1.9036
17156THY    CA424978   8.795   7.957   6.454 -0.4801  0.1092  0.4094
17156THY    HA424979   8.798   7.884   6.373 -0.6704 -0.1699  0.7043
17156THY    CA524980   8.671   7.990   6.512 -0.3693 -0.2079 -0.0876
17156THY    CM124981   8.536   7.929   6.470 -0.1492 -0.0253  0.6312
17156THY    HM124982   8.469   8.015   6.460  1.9460  1.1304  2.5113
17156THY    HM224983   8.486   7.855   6.534  0.2918 -1.5236 -1.0545
17156THY    HM324984   8.536   7.871   6.377  1.2585  0.1729  0.2891
17156THY    CA624985   8.668   8.083   6.618  0.0640  0.0168  0.0733
17156THY    HA624986   8.575   8.102   6.671  0.2481  0.1205  0.7022
17157THY      O24987   5.451   5.632   3.577  0.1658 -0.5859 -0.0551
17157THY     HO24988   5.501   5.574   3.638 -0.0076  0.1231  0.5294
17157THY    CA124989   5.539   5.703   3.512  0.3391  0.7200  0.8532
17157THY    CA224990   5.501   5.785   3.405  0.1197 -0.2999 -1.0269
17157THY    CP124991   5.351   5.797   3.365 -0.4326 -0.2848  0.4029
17157THY    HP124992   5.291   5.766   3.451 -0.2236 -0.5994 -0.9829
17157THY    CP224993   5.320   5.717   3.243 -0.1914 -0.1957  0.0446
17157THY    HP224994   5.363   5.775   3.161 -0.0406  1.2296  2.0821
17157THY    HP324995   5.211   5.704   3.232  0.2888 -3.3643 -2.4123
17157THY    HP424996   5.363   5.617   3.242 -0.9062 -0.0273 -0.2749
17157THY    CP324997   5.320   5.945   3.342  0.1886 -0.2432  0.2108
17157THY    HP524998   5.346   6.000   3.433 -1.2122  1.1227 -1.2745
17157THY    HP624999   5.210   5.944   3.334  0.2513 -1.4411  0.9808
17157THY    HP725000   5.357   5.994   3.251 -1.3450 -0.9532  0.1218
17157THY    CA325001   5.598   5.854   3.339 -0.5380  0.3338 -0.3642
17157THY    HA325002   5.579   5.928   3.262 -0.3335  0.4510 -0.1898
17157THY    CA425003   5.734   5.837   3.369 -0.1560  0.2931  0.4338
17157THY    HA425004   5.812   5.877   3.305  0.3074  1.1755  0.9954
17157THY    CA525005   5.774   5.747   3.478  0.2235  0.2834 -0.8659
17157THY    CM125006   5.914   5.729   3.517 -0.7767 -0.7365 -0.6808
17157THY    HM125007   5.919   5.738   3.626  1.8014 -0.7753 -0.8524
17157THY    HM225008   5.988   5.796   3.471 -0.4556  0.3519 -0.2736
17157THY    HM325009   5.952   5.629   3.491  2.1326  0.9868 -0.1310
17157THY    CA625010   5.669   5.684   3.544  0.5600  0.5791  0.3643
17157THY    HA625011   5.686   5.624   3.634  0.1640 -0.4014 -1.2803
17158THY      O25012   5.086   2.569   6.767 -0.2821 -0.6105  0.1372
17158THY     HO25013   5.009   2.572   6.827  0.8595  0.9009  1.6524
17158THY    CA125014   5.073   2.474   6.676 -0.3160  0.0642  0.1295
17158THY    CA225015   5.186   2.442   6.591 -0.4741 -0.5457 -0.2066
17158THY    CP125016   5.306   2.527   6.586  0.2032 -0.5593 -0.2496
17158THY    HP125017   5.296   2.603   6.664 -1.5677 -0.3495 -0.6395
17158THY    CP225018   5.330   2.594   6.451 -0.3281  0.1237  0.0112
17158THY    HP225019   5.317   2.519   6.373 -1.0195  0.4307 -0.1896
17158THY    HP325020   5.431   2.636   6.441 -0.7460 -3.8977  0.4023
17158THY    HP425021   5.260   2.676   6.429  0.0062 -0.9075  0.0339
17158THY    CP325022   5.432   2.446   6.631 -0.0433 -0.0496 -0.2549
17158THY    HP525023   5.418   2.391   6.724  1.7476 -1.4490 -3.3990
17158THY    HP625024   5.518   2.514   6.632  0.9896 -0.9900 -1.4750
17158THY    HP725025   5.452   2.372   6.552 -0.8367 -0.5145  0.0212
17158THY    CA325026   5.170   2.339   6.502 -0.3607  0.0239 -0.2704
17158THY    HA325027   5.251   2.306   6.437 -0.8526 -1.3792  1.2159
17158THY    CA425028   5.049   2.264   6.492  0.0637 -0.1803 -0.2263
17158THY    HA425029   5.047   2.177   6.427  1.3725  1.0782 -1.2350
17158THY    CA525030   4.941   2.300   6.568 -0.0444 -0.3853 -0.0193
17158THY    CM125031   4.818   2.209   6.568  0.1522 -0.1231 -0.6699
17158THY    HM125032   4.810   2.154   6.474 -2.7960 -0.4789  0.2077
17158THY    HM225033   4.724   2.265   6.573 -0.8058 -1.1562 -2.1063
17158THY    HM325034   4.814   2.144   6.657  0.0778 -0.2393 -0.8239
17158THY    CA625035   4.953   2.399   6.660  0.2458  0.3827 -0.0077
17158THY    HA625036   4.864   2.420   6.718 -1.6809 -2.4948  0.2970
17159THY      O25037   4.951   0.560   7.253  0.0715  0.1408 -0.7447
17159THY     HO25038   4.949   0.563   7.351  1.6973  0.1794  0.1131
17159THY    CA125039   5.059   0.487   7.240 -0.2732 -0.1673 -0.0959
17159THY    CA225040   5.084   0.418   7.118  0.1868  0.5397  0.2826
17159THY    CP125041   4.993   0.442   6.998 -0.0034  0.3968  0.8431
17159THY    HP125042   4.927   0.530   7.001 -0.8107 -1.4028  0.3442
17159THY    CP225043   4.909   0.321   6.969  0.6292 -0.2472 -0.2601
17159THY    HP225044   4.963   0.227   6.954  0.7326  1.8629 -0.5742
17159THY    HP325045   4.857   0.335   6.873 -0.2739  0.0148 -1.6256
17159THY    HP425046   4.827   0.293   7.036 -0.3807  0.0557  2.9783
17159THY    CP325047   5.075   0.483   6.873  0.1174 -0.3052  0.3549
17159THY    HP525048   5.124   0.580   6.888 -2.0527  0.1884  1.4345
17159THY    HP625049   5.010   0.493   6.785 -0.3317  0.1283  1.4147
17159THY    HP725050   5.153   0.412   6.846  0.6209 -0.3272  0.9052
17159THY    CA325051   5.208   0.345   7.111 -0.2161  0.0357 -0.3594
17159THY    HA325052   5.240   0.296   7.019 -1.5447 -0.5031 -0.2417
17159THY    CA425053   5.303   0.362   7.209  0.5520  0.3500 -0.4406
17159THY    HA425054   5.403   0.320   7.211  1.0749  1.2640  0.7917
17159THY    CA525055   5.258   0.413   7.332 -0.5017  0.0386 -0.4490
17159THY    CM125056   5.354   0.423   7.437 -0.1262 -0.6497  0.5380
17159THY    HM125057   5.378   0.524   7.473 -0.2333  0.1703  0.2833
17159THY    HM225058   5.442   0.361   7.420 -0.4737  0.0699 -0.1783
17159THY    HM325059   5.309   0.373   7.524  1.3045  0.6930  1.4761
17159THY    CA625060   5.137   0.482   7.350  0.8510 -0.6346 -0.0868
17159THY    HA625061   5.122   0.539   7.441 -2.7881 -1.3183  0.3146
17160THY      O25062   1.071   6.728   5.750  0.1137  0.3591 -0.6387
17160THY     HO25063   1.162   6.758   5.734  1.6379  5.2224 -1.7198
17160THY    CA125064   1.021   6.813   5.843  0.4857 -0.6839 -0.0080
17160THY    CA225065   0.887   6.809   5.892  0.4995  0.1864  0.4316
17160THY    CP125066   0.799   6.696   5.846  0.4200  0.1682 -0.0532
17160THY    HP125067   0.860   6.607   5.829  0.8705 -0.7019  0.4184
17160THY    CP225068   0.734   6.736   5.709  0.3660 -0.0402 -0.4259
17160THY    HP225069   0.807   6.760   5.630 -0.6582 -1.6172 -2.2271
17160THY    HP325070   0.673   6.827   5.713 -1.0326  1.3803 -1.3878
17160THY    HP425071   0.682   6.654   5.659  0.7633 -1.6013  0.2314
17160THY    CP325072   0.676   6.662   5.936 -0.2739 -0.1648 -0.3957
17160THY    HP525073   0.640   6.562   5.908  3.0857  2.0218 -2.4246
17160THY    HP625074   0.596   6.736   5.934 -0.7209 -1.3510 -0.8782
17160THY    HP725075   0.713   6.657   6.039 -0.4145 -0.1720 -3.7649
17160THY    CA325076   0.842   6.906   5.986  0.0758  0.0524  1.1031
17160THY    HA325077   0.744   6.901   6.031  0.7507  1.5575  0.6803
17160THY    CA425078   0.934   7.009   6.018  0.1173 -0.8297 -0.0893
17160THY    HA425079   0.896   7.087   6.083  0.2516 -1.7209  0.7417
17160THY    CA525080   1.066   7.017   5.964 -0.4377 -0.1246  0.3614
17160THY    CM125081   1.160   7.135   5.986  0.1462 -0.0785 -0.0858
17160THY    HM125082   1.262   7.103   5.964  0.8780 -0.8785  2.5154
17160THY    HM225083   1.169   7.161   6.092  1.0719  0.6219 -2.9172
17160THY    HM325084   1.141   7.212   5.910 -0.7610 -1.7760 -1.9118
17160THY    CA625085   1.102   6.916   5.876 -0.1205  0.1808 -0.1235
17160THY    HA625086   1.201   6.933   5.833  0.1600  1.1063  0.7097
17161THY      O25087   0.692   3.406   2.988  0.1838  0.0619 -0.1396
17161THY     HO25088   0.733   3.418   2.900 -1.4406 -0.3804  4.6822
17161THY    CA125089   0.740   3.516   3.060 -0.6774  0.3336 -0.0102
17161THY    CA225090   0.658   3.597   3.138  0.0419  0.6181 -0.9697
17161THY    CP125091   0.512   3.562   3.158 -0.1053 -0.4769 -0.2385
17161THY    HP125092   0.491   3.455   3.145  0.9386 -1.2324 -0.3604
17161THY    CP225093   0.434   3.645   3.054 -0.1362 -0.6005 -0.5520
17161THY    HP225094   0.417   3.747   3.089  0.5683 -3.3959  0.6242
17161THY    HP325095   0.339   3.594   3.031  0.2444 -0.1799 -1.4657
17161THY    HP425096   0.489   3.661   2.961  2.9004  1.5360  3.1579
17161THY    CP325097   0.455   3.596   3.298  0.3896 -0.3372  0.5780
17161THY    HP525098   0.428   3.702   3.307 -1.3600 -1.3878  0.2632
17161THY    HP625099   0.535   3.565   3.366 -0.4955  1.4281  1.9746
17161THY    HP725100   0.364   3.542   3.323  0.4760 -0.0979  0.5431
17161THY    CA325101   0.711   3.713   3.198 -0.3026 -0.1816 -0.7575
17161THY    HA325102   0.639   3.783   3.237 -3.7641 -1.9099 -3.0826
17161THY    CA425103   0.848   3.737   3.193  0.1024  0.0761  0.2412
17161THY    HA425104   0.889   3.828   3.237  0.1743  1.2671 -0.3403
17161THY    CA525105   0.931   3.648   3.125  0.0116  0.1665 -0.0167
17161THY    CM125106   1.077   3.680   3.097 -0.7627 -0.4166  0.3449
17161THY    HM125107   1.084   3.702   2.990 -1.3116 -0.5668 -0.1721
17161THY    HM225108   1.133   3.588   3.114  1.4857 -3.3221  1.0457
17161THY    HM325109   1.112   3.754   3.170 -0.9308  0.0937 -0.0714
17161THY    CA625110   0.882   3.539   3.054 -0.3845  0.6356 -0.9037
17161THY    HA625111   0.951   3.472   3.006  1.0484  0.5991  0.5399
17162THY      O25112   6.256   3.870   4.721 -0.2217  0.4972 -0.5511
17162THY     HO25113   6.283   3.962   4.736  1.1563  1.7398 -1.1139
17162THY    CA125114   6.324   3.816   4.818  0.5647  0.3859 -0.9908
17162THY    CA225115   6.305   3.685   4.870 -0.4958  0.8087 -0.2865
17162THY    CP125116   6.196   3.589   4.800  0.7286 -0.4491  0.4455
17162THY    HP125117   6.180   3.589   4.692  0.3621 -0.4177 -0.8099
17162THY    CP225118   6.062   3.614   4.866  0.1980 -0.0509  0.1993
17162THY    HP225119   5.997   3.530   4.839 -1.4718 -0.5609  1.6016
17162THY    HP325120   6.025   3.717   4.854  0.1687  0.1408  0.2119
17162THY    HP425121   6.078   3.609   4.975 -0.6072  0.0229 -1.6025
17162THY    CP325122   6.235   3.444   4.830  0.2564  0.6141  0.2331
17162THY    HP525123   6.164   3.369   4.795 -0.4251 -0.7409  1.4523
17162THY    HP625124   6.256   3.430   4.937  0.9582  0.1169 -3.3898
17162THY    HP725125   6.325   3.423   4.772 -0.2094 -1.2364  2.8426
17162THY    CA325126   6.381   3.652   4.986  1.0441  0.0878  0.1881
17162THY    HA325127   6.370   3.559   5.042 -2.8698 -1.0596 -0.1987
17162THY    CA425128   6.470   3.746   5.039 -0.6533 -0.2239  0.3537
17162THY    HA425129   6.524   3.712   5.127  0.7304 -1.3138 -0.3598
17162THY    CA525130   6.490   3.874   4.987  0.0885  0.0469 -0.3594
17162THY    CM125131   6.584   3.974   5.041  0.2671  0.0554 -0.0662
17162THY    HM125132   6.537   4.049   5.106  1.4951  2.6351 -1.4023
17162THY    HM225133   6.634   4.037   4.966  1.7785  0.5286 -0.6638
17162THY    HM325134   6.660   3.925   5.102 -2.0410  2.6696 -0.6307
17162THY    CA625135   6.413   3.910   4.870 -0.7580 -0.4216 -0.2044
17162THY    HA625136   6.431   4.009   4.828 -0.5672  1.9413  0.8182
17163THY      O25137   1.717   7.850   6.902 -0.8165 -0.1367 -0.3237
17163THY     HO25138   1.739   7.888   6.989 -0.1771  0.3983 -1.8276
17163THY    CA125139   1.804   7.898   6.810  0.6319  0.4626  0.2742
17163THY    CA225140   1.840   7.833   6.696 -0.0366  0.9089  0.4223
17163THY    CP125141   1.787   7.696   6.652 -0.4490 -0.1704 -0.6390
17163THY    HP125142   1.716   7.668   6.731 -0.6079 -0.0807  0.0005
17163THY    CP225143   1.899   7.594   6.649  1.4106  0.8594 -0.7529
17163THY    HP225144   1.932   7.581   6.753 -0.5962  1.6120 -0.1907
17163THY    HP325145   1.980   7.617   6.578  0.0805 -0.1143  1.2369
17163THY    HP425146   1.859   7.499   6.610  0.8514  0.3703 -0.3228
17163THY    CP325147   1.714   7.690   6.511 -0.0627 -0.1864  0.6573
17163THY    HP525148   1.655   7.782   6.506 -1.1206  0.8388  0.0724
17163THY    HP625149   1.650   7.604   6.486  0.5955  1.0642 -0.2390
17163THY    HP725150   1.775   7.682   6.421 -2.1849 -1.5754 -1.3314
17163THY    CA325151   1.933   7.897   6.613 -0.0862  0.0474 -0.2232
17163THY    HA325152   1.963   7.845   6.522 -1.4509  0.1998 -1.3219
17163THY    CA425153   1.987   8.027   6.637 -0.3272 -0.4850  0.3782
17163THY    HA425154   2.052   8.069   6.562  0.6656 -0.5793 -1.2320
17163THY    CA525155   1.938   8.092   6.745 -0.3368  1.0669  0.6214
17163THY    CM125156   1.981   8.225   6.784 -0.0971  0.7197 -0.3214
17163THY    HM125157   2.040   8.226   6.876 -1.7387  1.9623 -3.6425
17163THY    HM225158   1.906   8.305   6.789 -1.2993 -1.3612 -1.2380
17163THY    HM325159   2.043   8.258   6.700  1.6879  1.1481 -2.3832
17163THY    CA625160   1.856   8.024   6.830 -0.6022  0.1560  0.1894
17163THY    HA625161   1.833   8.076   6.922  0.8897  0.5172  0.2363
17164THY      O25162   5.258   6.423   2.433 -0.8435  0.0329  0.6203
17164THY     HO25163   5.336   6.464   2.394 -0.7570 -0.0151  0.4126
17164THY    CA125164   5.220   6.328   2.339 -0.0444 -0.1698  0.9701
17164THY    CA225165   5.116   6.231   2.364 -0.3248 -0.0190 -0.9496
17164THY    CP125166   5.044   6.246   2.500 -0.7423 -1.0827  0.3629
17164THY    HP125167   5.089   6.313   2.573 -0.1910 -2.1343  1.1796
17164THY    CP225168   5.031   6.107   2.576 -0.0704  0.7909 -0.8086
17164THY    HP225169   4.971   6.123   2.666  2.0762  1.7282  3.7478
17164THY    HP325170   5.126   6.076   2.621 -0.6688  1.3506 -1.8834
17164THY    HP425171   4.992   6.024   2.515 -0.4625  0.7037 -0.5641
17164THY    CP325172   4.903   6.301   2.461 -0.5501  0.0659  0.0760
17164THY    HP525173   4.916   6.404   2.423  2.2101  1.4988  0.3524
17164THY    HP625174   4.841   6.298   2.551  0.0514  0.5091  0.6423
17164THY    HP725175   4.865   6.235   2.382 -0.0136  1.7501 -2.3602
17164THY    CA325176   5.084   6.138   2.265 -0.7468  0.5656 -0.1082
17164THY    HA325177   5.001   6.069   2.270 -1.6465 -2.2311  0.6342
17164THY    CA425178   5.151   6.152   2.145  0.5130 -0.0706 -0.2657
17164THY    HA425179   5.125   6.078   2.069  2.2058  0.1433 -1.1471
17164THY    CA525180   5.264   6.237   2.125 -0.7679 -0.2802 -0.0916
17164THY    CM125181   5.345   6.232   1.998 -0.5274 -0.6853  0.2259
17164THY    HM125182   5.310   6.300   1.920  0.6776  0.7298  2.6291
17164THY    HM225183   5.337   6.130   1.961 -1.8561 -0.6438  0.2881
17164THY    HM325184   5.450   6.252   2.021  0.1284 -1.6453 -1.8606
17164THY    CA625185   5.298   6.327   2.223  0.3790  0.3072 -0.3832
17164THY    HA625186   5.381   6.395   2.209 -0.5464 -0.8877  0.5537
17165THY      O25187   8.725   4.385   3.615 -0.3084 -0.6319  0.3423
17165THY     HO25188   8.733   4.323   3.690 -0.9215 -0.1653  0.8211
17165THY    CA125189   8.839   4.376   3.543  0.1190  0.0112 -0.3076
17165THY    CA225190   8.857   4.458   3.435  0.0658 -0.0388 -0.1907
17165THY    CP125191   8.752   4.556   3.386  0.0678 -0.7548 -0.9969
17165THY    HP125192   8.668   4.562   3.457  0.7461  0.0726 -1.1430
17165THY    CP225193   8.703   4.513   3.245 -0.0287  0.8223  0.0208
17165THY    HP225194   8.784   4.491   3.175 -0.5928 -0.2316  1.2180
17165THY    HP325195   8.634   4.587   3.203 -1.6456  0.0753 -1.8159
17165THY    HP425196   8.646   4.421   3.263 -3.1715  1.4435  1.9518
17165THY    CP325197   8.807   4.699   3.386  0.4439  0.6767 -0.6287
17165THY    HP525198   8.863   4.724   3.295 -0.1967  0.6948  0.9920
17165THY    HP625199   8.874   4.712   3.471  1.5736 -0.5389  2.2005
17165THY    HP725200   8.733   4.780   3.393  3.6132 -0.9247  2.6765
17165THY    CA325201   8.982   4.450   3.364 -0.7326  0.2334  0.1140
17165THY    HA325202   9.000   4.517   3.281 -0.1599  0.1189 -0.1757
17165THY    CA425203   9.080   4.356   3.406  0.5378  0.9142 -0.5734
17165THY    HA425204   9.167   4.346   3.342  2.4489  2.9731  1.6042
17165THY    CA525205   9.059   4.272   3.516  0.3343 -0.8563 -0.2762
17165THY    CM125206   9.160   4.162   3.558 -0.0698 -0.3837  0.6500
17165THY    HM125207   9.245   4.171   3.489 -0.0546 -0.3284  0.9269
17165THY    HM225208   9.116   4.063   3.539  0.3045 -1.8316  0.7378
17165THY    HM325209   9.190   4.156   3.663  1.0025 -0.7697 -2.0742
17165THY    CA625210   8.939   4.290   3.583  0.6038  0.3466  0.0569
17165THY    HA625211   8.914   4.226   3.667  0.5063  0.4757  0.2613
17166THY      O25212   6.722   2.322   6.127 -0.1050  0.4836 -0.2594
17166THY     HO25213   6.787   2.253   6.107 -0.9654 -1.1427 -0.6387
17166THY    CA125214   6.612   2.253   6.101 -0.7936 -0.1999  0.1313
17166THY    CA225215   6.492   2.301   6.046  0.2162  0.1574  0.2615
17166THY    CP125216   6.476   2.449   6.013 -0.1672  0.0103 -1.0466
17166THY    HP125217   6.574   2.496   5.994 -1.9185 -0.0811  2.9456
17166THY    CP225218   6.407   2.517   6.140 -0.3557  0.9337  0.5866
17166THY    HP225219   6.403   2.626   6.127  1.8691 -1.4472  0.4813
17166THY    HP325220   6.453   2.489   6.235 -0.2622  0.7728  0.1901
17166THY    HP425221   6.300   2.495   6.139 -0.5601  0.3665  1.5774
17166THY    CP325222   6.402   2.481   5.877  0.2679 -0.4228  0.2517
17166THY    HP525223   6.428   2.581   5.839  2.8635 -1.1425 -0.6044
17166THY    HP625224   6.294   2.463   5.868 -0.0197  0.9501  1.1339
17166THY    HP725225   6.444   2.413   5.802  0.3706 -0.1575  0.0209
17166THY    CA325226   6.388   2.209   6.024 -0.0383  0.6834 -0.3876
17166THY    HA325227   6.293   2.242   5.983  0.2848  1.2793  1.4124
17166THY    CA425228   6.407   2.072   6.054 -0.1898  0.6330 -0.3616
17166THY    HA425229   6.325   2.008   6.021 -1.7087  0.3467  1.6199
17166THY    CA525230   6.524   2.029   6.112 -0.3436  1.0643  1.1567
17166THY    CM125231   6.532   1.878   6.138  0.2944 -0.2478 -0.1062
17166THY    HM125232   6.444   1.825   6.101  1.4706 -0.1740 -2.1847
17166THY    HM225233   6.539   1.852   6.244 -1.2946 -0.5641 -2.0425
17166THY    HM325234   6.619   1.825   6.098  1.2010  1.9302 -0.3697
17166THY    CA625235   6.628   2.117   6.136 -0.9754  0.0448  0.0115
17166THY    HA625236   6.718   2.077   6.181 -1.1420 -0.4207 -0.8963
17167THY      O25237   0.841   8.274   5.914  0.0547 -0.2622  0.9605
17167THY     HO25238   0.750   8.245   5.931  0.9889  1.0086 -1.5201
17167THY    CA125239   0.908   8.281   6.032  0.1438 -0.2013  0.1074
17167THY    CA225240   1.027   8.359   6.036 -0.2293  0.3423  0.0227
17167THY    CP125241   1.082   8.432   5.917 -0.4642 -0.3640 -0.8570
17167THY    HP125242   1.018   8.422   5.828  2.7192 -3.0536  0.5316
17167THY    CP225243   1.234   8.393   5.891 -0.2959 -0.1739 -0.4549
17167THY    HP225244   1.255   8.286   5.884 -0.5500 -4.9975 -0.3839
17167THY    HP325245   1.300   8.441   5.965  1.2275 -2.3455  1.0031
17167THY    HP425246   1.253   8.438   5.793 -1.4407 -0.4463 -0.5347
17167THY    CP325247   1.078   8.582   5.942  0.1176  0.3292  0.1879
17167THY    HP525248   1.089   8.628   5.843 -2.4366 -2.1458 -3.9047
17167THY    HP625249   1.159   8.614   6.009  0.6106 -0.1743  0.0031
17167THY    HP725250   0.983   8.623   5.980  0.1869  0.4587  0.2333
17167THY    CA325251   1.092   8.362   6.165  0.4912  0.2014 -0.3572
17167THY    HA325252   1.185   8.417   6.182 -1.3391  2.9769  2.1966
17167THY    CA425253   1.040   8.291   6.271 -0.0192  0.0965  0.2305
17167THY    HA425254   1.086   8.283   6.369  0.3654 -0.1711 -1.0086
17167THY    CA525255   0.923   8.214   6.258  0.7315  0.1245 -0.6232
17167THY    CM125256   0.882   8.109   6.357  0.0071 -0.4101 -0.3419
17167THY    HM125257   0.782   8.140   6.390  0.8114  1.4545  0.4253
17167THY    HM225258   0.941   8.131   6.447 -0.8319  0.1960 -0.5346
17167THY    HM325259   0.893   8.008   6.317  0.4023 -0.4849 -0.2725
17167THY    CA625260   0.850   8.221   6.139  0.4833 -0.6626 -0.3785
17167THY    HA625261   0.759   8.163   6.128 -0.4650 -1.4877  1.1955
17168THY      O25262   6.890   2.202   7.039 -0.1036 -1.0213  0.0754
17168THY     HO25263   6.905   2.267   7.110  1.9087  0.0074 -1.3932
17168THY    CA125264   6.755   2.197   7.024 -0.5628  0.5587  0.5655
17168THY    CA225265   6.683   2.080   7.048  0.2384 -0.5630  0.7458
17168THY    CP125266   6.755   1.944   7.094  0.5820  0.8657 -0.7761
17168THY    HP125267   6.857   1.980   7.115  0.1589  0.0446  0.9636
17168THY    CP225268   6.741   1.838   6.973  0.6774 -0.0826 -0.1809
17168THY    HP225269   6.745   1.887   6.875 -1.6077  0.6639  1.6465
17168THY    HP325270   6.648   1.782   6.986  0.2347 -2.8066 -0.1841
17168THY    HP425271   6.822   1.763   6.977 -0.2730  1.7387 -1.1804
17168THY    CP325272   6.720   1.894   7.235 -0.1675  0.4240  0.3193
17168THY    HP525273   6.613   1.889   7.258  0.1527  2.4950  1.5066
17168THY    HP625274   6.747   1.974   7.306 -1.6830  1.2436  0.1537
17168THY    HP725275   6.764   1.804   7.280  1.0275  1.2473  1.2817
17168THY    CA325276   6.544   2.085   7.023  0.6469  0.3819  0.2264
17168THY    HA325277   6.492   1.991   7.040  0.2996 -0.1532  0.3229
17168THY    CA425278   6.485   2.208   6.998 -0.8008 -0.1103 -0.3503
17168THY    HA425279   6.377   2.213   7.000 -0.7493  0.2120  0.9939
17168THY    CA525280   6.558   2.324   6.986  0.6457  0.2069  0.1314
17168THY    CM125281   6.497   2.463   6.960  0.5834 -0.0096 -0.1894
17168THY    HM125282   6.387   2.458   6.956  0.3093 -2.7999  3.5752
17168THY    HM225283   6.523   2.484   6.855 -0.0760 -1.0768 -3.8569
17168THY    HM325284   6.529   2.547   7.022 -1.5244  0.8163  0.0791
17168THY    CA625285   6.696   2.322   6.990  0.4117 -0.3804  0.2577
17168THY    HA625286   6.753   2.414   6.983  0.7910  1.0134  0.1469
17169THY      O25287   3.311   2.435   1.687 -0.3039 -0.1885  0.5025
17169THY     HO25288   3.330   2.522   1.649  1.0301  0.1749  0.3934
17169THY    CA125289   3.379   2.428   1.803  0.5305 -0.1617 -0.5309
17169THY    CA225290   3.378   2.312   1.884 -0.1668 -0.4489 -0.3775
17169THY    CP125291   3.315   2.179   1.837 -0.0915  0.4643  0.6121
17169THY    HP125292   3.233   2.207   1.771  0.2849  0.5713  2.0099
17169THY    CP225293   3.267   2.094   1.955 -0.8760 -0.2851 -0.3164
17169THY    HP225294   3.184   2.028   1.923 -0.8068 -1.8313  0.2957
17169THY    HP325295   3.214   2.151   2.032  0.0569  0.8276 -0.9285
17169THY    HP425296   3.347   2.034   2.000  0.6442 -2.5986 -0.1211
17169THY    CP325297   3.419   2.088   1.760 -0.0248 -0.2966 -0.3255
17169THY    HP525298   3.492   2.048   1.832 -0.0604  0.1120  0.3377
17169THY    HP625299   3.468   2.139   1.676 -0.6005 -0.1853  0.4277
17169THY    HP725300   3.376   1.994   1.725  0.1701 -0.8869 -0.1988
17169THY    CA325301   3.439   2.326   2.014 -0.8575  0.1949  0.0663
17169THY    HA325302   3.454   2.246   2.086 -0.1395 -1.0418 -0.9546
17169THY    CA425303   3.503   2.447   2.046 -0.0418  0.4379 -0.1108
17169THY    HA425304   3.547   2.456   2.145 -1.0408  1.0943 -1.9765
17169THY    CA525305   3.501   2.557   1.961  0.9363 -0.7592  0.9588
17169THY    CM125306   3.549   2.683   2.011 -0.5138 -0.5545 -0.3514
17169THY    HM125307   3.588   2.741   1.926 -2.6433 -1.4882 -0.2133
17169THY    HM225308   3.628   2.670   2.087 -1.3341  0.3281 -0.2774
17169THY    HM325309   3.458   2.733   2.045 -1.4649 -4.2229  0.6617
17169THY    CA625310   3.436   2.546   1.840  0.2829  0.5896  0.3860
17169THY    HA625311   3.441   2.635   1.779  0.9145  1.6817  1.1244
17170THY      O25312   2.525   3.650   4.845 -0.5741  0.4388 -0.4037
17170THY     HO25313   2.494   3.733   4.805  0.7310 -0.5694 -0.3657
17170THY    CA125314   2.422   3.604   4.921  0.3725 -0.1633  0.1210
17170THY    CA225315   2.436   3.544   5.051 -0.0273  0.3757  0.1370
17170THY    CP125316   2.570   3.535   5.119 -0.1939  0.0189 -0.0109
17170THY    HP125317   2.645   3.547   5.041  0.9229  0.8924 -1.0672
17170THY    CP225318   2.592   3.397   5.185 -0.0090  0.5535  0.5595
17170THY    HP225319   2.596   3.320   5.106  1.5178 -1.0278  2.1573
17170THY    HP325320   2.512   3.383   5.259 -0.2138  1.0359  3.5177
17170THY    HP425321   2.687   3.397   5.239 -0.4914  1.4177  0.7895
17170THY    CP325322   2.602   3.641   5.222 -0.4468 -0.0932 -0.1333
17170THY    HP525323   2.617   3.736   5.171  0.5120 -1.9695 -1.2485
17170THY    HP625324   2.683   3.628   5.294 -1.7466  1.5208  0.2622
17170THY    HP725325   2.520   3.661   5.293  0.9236  1.2062  1.0963
17170THY    CA325326   2.318   3.505   5.120  0.0877 -0.5909  0.4956
17170THY    HA325327   2.333   3.481   5.225 -0.8266 -0.8661 -1.5329
17170THY    CA425328   2.191   3.525   5.060  0.1671 -0.6394  0.2330
17170THY    HA425329   2.114   3.502   5.133  1.7148  1.2741  0.7538
17170THY    CA525330   2.179   3.567   4.928  0.8123 -0.2758 -0.7348
17170THY    CM125331   2.053   3.600   4.852  0.4209 -0.7433  0.1425
17170THY    HM125332   2.062   3.633   4.748 -2.8409 -0.9680  0.6891
17170THY    HM225333   1.998   3.675   4.911 -0.0526 -1.3597  0.2859
17170THY    HM325334   2.000   3.505   4.838 -3.0440 -2.3342  2.1041
17170THY    CA625335   2.295   3.623   4.865  0.1380 -0.7815  0.2196
17170THY    HA625336   2.285   3.659   4.763 -2.0133 -0.6246  0.2245
17171THY      O25337   7.321   9.021   4.654  0.5579  0.0632  0.3315
17171THY     HO25338   7.387   9.080   4.694 -1.1444  0.2974  2.1848
17171THY    CA125339   7.378   8.909   4.602 -0.2604 -0.8978 -0.0722
17171THY    CA225340   7.325   8.842   4.489 -0.5736 -0.3526 -0.0486
17171THY    CP125341   7.196   8.896   4.422 -0.3180 -0.5333  0.7009
17171THY    HP125342   7.189   9.003   4.446  1.0595 -0.1079  0.7110
17171THY    CP225343   7.070   8.820   4.480 -0.1066  0.0902 -0.2066
17171THY    HP225344   7.050   8.849   4.583 -1.6128 -0.3466  0.3862
17171THY    HP325345   7.084   8.711   4.474  0.5809 -1.7823 -0.0616
17171THY    HP425346   6.980   8.851   4.426  0.3306  0.7203  2.3428
17171THY    CP325347   7.191   8.892   4.265 -0.0912  0.0562  0.0168
17171THY    HP525348   7.287   8.940   4.244  1.5312  2.0045 -2.1559
17171THY    HP625349   7.101   8.939   4.224 -1.3129  2.0833 -0.3981
17171THY    HP725350   7.208   8.794   4.218  0.1321  0.9626 -0.3984
17171THY    CA325351   7.390   8.717   4.457  0.7677  0.6592 -0.3728
17171THY    HA325352   7.358   8.659   4.372 -0.3504  1.8488 -1.5883
17171THY    CA425353   7.503   8.679   4.528  0.0685 -0.1065 -0.9964
17171THY    HA425354   7.562   8.593   4.499  2.1451  1.6630 -0.2575
17171THY    CA525355   7.554   8.759   4.630  0.1093 -0.6023  0.7822
17171THY    CM125356   7.681   8.708   4.693 -0.5959  0.4127 -0.2772
17171THY    HM125357   7.725   8.620   4.645 -0.0378  0.9753 -0.3142
17171THY    HM225358   7.676   8.689   4.801  0.1708  0.4099 -0.5243
17171THY    HM325359   7.758   8.784   4.673  1.0392  0.6485 -1.8020
17171THY    CA625360   7.494   8.873   4.673 -0.8113 -0.0715 -0.4205
17171THY    HA625361   7.526   8.928   4.761  0.7468 -0.7162 -0.2656
17172THY      O25362   5.770   2.365   5.043 -0.0559 -0.6149 -0.2513
17172THY     HO25363   5.720   2.446   5.062  0.8761 -0.8440  0.3858
17172THY    CA125364   5.891   2.380   5.102  0.2772 -0.2524 -0.7001
17172THY    CA225365   5.986   2.280   5.122  0.0358  0.0001  0.0329
17172THY    CP125366   5.953   2.137   5.079  0.8704 -0.8845  0.7287
17172THY    HP125367   5.865   2.128   5.014 -0.1477  0.7178 -2.8007
17172THY    CP225368   5.929   2.047   5.200  0.0503  0.2125 -0.5964
17172THY    HP225369   5.888   1.951   5.168  0.3201 -1.3995 -0.1908
17172THY    HP325370   5.854   2.087   5.270  0.2777 -0.2530  0.7108
17172THY    HP425371   6.016   2.020   5.261  0.1993 -0.9528 -2.9950
17172THY    CP325372   6.069   2.080   5.000 -0.3373  0.3460 -0.1027
17172THY    HP525373   6.082   2.128   4.902  0.0346  0.6411  0.3944
17172THY    HP625374   6.045   1.975   4.977 -1.3142  2.2905 -0.3425
17172THY    HP725375   6.165   2.075   5.052 -0.1716  0.1795  1.1973
17172THY    CA325376   6.112   2.302   5.188  0.3410  0.0966 -0.2427
17172THY    HA325377   6.177   2.220   5.215  0.9640  1.7069  0.7449
17172THY    CA425378   6.132   2.439   5.220  0.8555 -0.1814 -0.5361
17172THY    HA425379   6.227   2.477   5.256  1.4937  0.6415 -2.7490
17172THY    CA525380   6.035   2.540   5.196  0.2335  0.5858  0.9768
17172THY    CM125381   6.064   2.685   5.239  0.2008 -0.3287 -0.8632
17172THY    HM125382   6.012   2.705   5.333 -1.7327 -1.0006 -2.3485
17172THY    HM225383   6.020   2.744   5.158 -1.6670  0.4264 -1.1447
17172THY    HM325384   6.171   2.696   5.256  0.5271 -0.3319 -3.3418
17172THY    CA625385   5.920   2.509   5.131 -0.2119  0.1666 -0.2512
17172THY    HA625386   5.859   2.597   5.112 -1.3100  3.2918 -0.2133
17173THY      O25387   6.798   6.085   7.449 -0.9009  0.3546  0.3208
17173THY     HO25388   6.834   6.039   7.526 -1.3722  0.3691 -0.0383
17173THY    CA125389   6.913   6.135   7.383 -0.3730 -1.0678 -0.0183
17173THY    CA225390   6.923   6.275   7.338  0.4723 -0.0102  0.8116
17173THY    CP125391   6.799   6.362   7.339  0.1594 -0.0335 -0.4452
17173THY    HP125392   6.713   6.306   7.376  0.6987  1.1317 -0.5323
17173THY    CP225393   6.755   6.419   7.200  0.2986  0.1785  0.0738
17173THY    HP225394   6.659   6.472   7.208  2.0703 -1.5392  3.9184
17173THY    HP325395   6.762   6.339   7.125 -0.8992  0.9771 -0.8193
17173THY    HP425396   6.812   6.504   7.162 -1.8698 -1.9523  0.7104
17173THY    CP325397   6.802   6.471   7.447  0.4749  0.0530  0.3993
17173THY    HP525398   6.703   6.515   7.462  0.1724 -2.4414  0.7047
17173THY    HP625399   6.879   6.545   7.421  1.7648  2.8021  0.1309
17173THY    HP725400   6.834   6.422   7.539  1.8406  0.2080  1.5105
17173THY    CA325401   7.051   6.312   7.283  0.5075  0.3822 -0.1997
17173THY    HA325402   7.067   6.412   7.243  1.3033  1.6566  0.2092
17173THY    CA425403   7.156   6.225   7.280  0.3409  0.7347 -0.8973
17173THY    HA425404   7.247   6.271   7.242 -0.7359  0.6888  1.3620
17173THY    CA525405   7.149   6.101   7.335 -0.3323  0.7796  0.4133
17173THY    CM125406   7.273   6.013   7.344  0.4840  0.4441 -0.1385
17173THY    HM125407   7.362   6.065   7.380  1.2388  1.0587 -1.7726
17173THY    HM225408   7.295   5.973   7.244 -1.4169 -0.3880  0.7678
17173THY    HM325409   7.251   5.926   7.408 -0.0365  1.2189  0.5429
17173THY    CA625410   7.029   6.055   7.391 -0.9744 -0.2805  0.0592
17173THY    HA625411   7.024   5.957   7.437  0.3027 -1.2054 -0.4737
17174THY      O25412   5.704   8.926   6.223  0.3368 -0.0001  0.2011
17174THY     HO25413   5.639   8.924   6.296 -1.4709 -1.5075  0.5707
17174THY    CA125414   5.717   9.058   6.193 -0.0560 -0.0296  0.0582
17174THY    CA225415   5.811   9.105   6.103 -0.4062 -0.6599 -0.1948
17174THY    CP125416   5.895   9.007   6.023  0.4403 -0.1130  0.0520
17174THY    HP125417   5.888   8.910   6.074 -1.8663  0.2601  0.3605
17174THY    CP225418   6.043   9.040   6.015 -0.2599  0.3434  0.3036
17174THY    HP225419   6.090   9.065   6.111  0.0743  0.5107 -0.9217
17174THY    HP325420   6.055   9.130   5.952  2.1270  2.8855  1.9353
17174THY    HP425421   6.099   8.955   5.973  2.1805  0.2247  1.8618
17174THY    CP325422   5.845   8.985   5.886  0.0811 -0.2573  0.6035
17174THY    HP525423   5.736   8.995   5.886 -0.0015  0.9220 -0.1150
17174THY    HP625424   5.873   8.886   5.848 -1.0918  3.1258 -1.1780
17174THY    HP725425   5.875   9.068   5.821 -1.1797  0.1776  1.4373
17174THY    CA325426   5.813   9.238   6.067 -0.1937  1.0810 -0.1933
17174THY    HA325427   5.868   9.273   5.979 -0.3027  1.2256  0.3604
17174THY    CA425428   5.733   9.326   6.133 -0.4172  0.2263 -0.9984
17174THY    HA425429   5.726   9.432   6.112  0.8172  0.5587 -0.8417
17174THY    CA525430   5.656   9.286   6.237  1.0716  0.4073  0.1085
17174THY    CM125431   5.565   9.371   6.314 -0.7816  0.6246  0.4125
17174THY    HM125432   5.501   9.425   6.243  3.3762 -3.2086  0.9113
17174THY    HM225433   5.626   9.450   6.357  0.4936  0.9802 -0.7250
17174THY    HM325434   5.494   9.324   6.383 -1.7780 -0.2779  0.5235
17174THY    CA625435   5.648   9.150   6.264 -0.3341 -0.8484 -0.2840
17174THY    HA625436   5.589   9.121   6.351 -0.4024 -1.0222 -0.6640
17175THY      O25437   5.888   1.479   2.520  0.7698 -0.3315 -0.5084
17175THY     HO25438   5.945   1.419   2.467  1.1665  0.2901 -0.6891
17175THY    CA125439   5.761   1.453   2.494 -0.1379 -0.5422 -0.4638
17175THY    CA225440   5.661   1.517   2.558 -0.9577 -0.0958 -0.1452
17175THY    CP125441   5.701   1.627   2.660  0.2578  0.3332  0.5000
17175THY    HP125442   5.789   1.587   2.711  0.3494 -0.3083 -0.1455
17175THY    CP225443   5.597   1.642   2.774 -0.6610 -0.3521 -0.2159
17175THY    HP225444   5.576   1.542   2.812  0.5774 -1.0557 -0.7606
17175THY    HP325445   5.511   1.694   2.729  0.0428  0.4751  1.7486
17175THY    HP425446   5.631   1.711   2.852 -0.0260 -1.4351  0.7338
17175THY    CP325447   5.723   1.764   2.577 -0.2093  0.2055 -0.2606
17175THY    HP525448   5.754   1.846   2.643  3.0590 -1.1210 -0.2392
17175THY    HP625449   5.628   1.797   2.532 -0.3123  0.4298 -0.2540
17175THY    HP725450   5.809   1.763   2.508  0.4310  0.9983 -0.5986
17175THY    CA325451   5.527   1.493   2.511  0.1958  0.2276  0.1027
17175THY    HA325452   5.445   1.555   2.547 -0.5525  0.9998 -1.2940
17175THY    CA425453   5.508   1.404   2.405 -0.2863 -0.7445 -0.1567
17175THY    HA425454   5.409   1.377   2.372 -0.0595  0.0341 -2.1202
17175THY    CA525455   5.613   1.328   2.359  0.1365 -0.4083  0.5292
17175THY    CM125456   5.598   1.226   2.257  0.4420 -0.1825 -0.6620
17175THY    HM125457   5.641   1.248   2.159 -1.8938 -1.1586 -0.1168
17175THY    HM225458   5.497   1.223   2.214  0.8258 -1.3672  1.1801
17175THY    HM325459   5.626   1.128   2.298  0.1833  1.1119 -0.2220
17175THY    CA625460   5.741   1.348   2.406  0.3659  0.0241 -0.0272
17175THY    HA625461   5.820   1.284   2.367 -0.0433 -1.4042  0.3171
17176THY      O25462   1.359   3.035   3.987  0.2161 -0.1172  0.0998
17176THY     HO25463   1.287   3.095   4.014 -2.0327  1.3943 -2.9822
17176THY    CA125464   1.336   3.002   3.858 -0.0151 -0.4152 -0.0307
17176THY    CA225465   1.331   2.864   3.810 -0.6130  0.5659  0.3782
17176THY    CP125466   1.365   2.752   3.910  0.0819  0.1397  0.1256
17176THY    HP125467   1.385   2.774   4.016  0.1183  0.0894  0.3362
17176THY    CP225468   1.475   2.658   3.864  0.2906 -0.0982  0.5132
17176THY    HP225469   1.536   2.711   3.790 -0.5900  0.1782  1.9601
17176THY    HP325470   1.430   2.573   3.812  0.4934  3.7140 -2.1684
17176THY    HP425471   1.530   2.607   3.944  0.3497 -0.2889  0.2742
17176THY    CP325472   1.237   2.661   3.927 -0.2305 -0.0299 -0.2139
17176THY    HP525473   1.197   2.616   3.836  0.6332 -1.0142  0.9682
17176THY    HP625474   1.163   2.732   3.968  0.2904 -0.9484  0.8783
17176THY    HP725475   1.244   2.576   3.997 -2.8897 -1.5945 -1.8798
17176THY    CA325476   1.304   2.848   3.669  0.4583  0.0666  0.1232
17176THY    HA325477   1.289   2.747   3.631  0.7440 -0.2291  0.1918
17176THY    CA425478   1.289   2.962   3.589  0.2792  0.2778  0.2526
17176THY    HA425479   1.270   2.941   3.484 -1.5998  1.0328 -2.4243
17176THY    CA525480   1.288   3.093   3.640  0.1818  0.1857  0.2722
17176THY    CM125481   1.248   3.206   3.544  0.0309  0.5027  0.1319
17176THY    HM125482   1.140   3.206   3.526  0.1251 -0.2671  2.1080
17176THY    HM225483   1.286   3.186   3.443  0.9288  0.4712  1.8775
17176THY    HM325484   1.272   3.304   3.586  1.7354 -2.0449  0.9027
17176THY    CA625485   1.300   3.108   3.777 -1.0404 -0.5482  0.2356
17176THY    HA625486   1.294   3.206   3.823  0.0209  1.0419 -0.3908
17177THY      O25487   7.311   1.149   2.675 -0.4282  0.4468  0.1678
17177THY     HO25488   7.396   1.126   2.634 -1.3769 -3.5068  2.6751
17177THY    CA125489   7.294   1.077   2.785 -0.4627  0.7129 -0.0732
17177THY    CA225490   7.240   1.126   2.906  0.3537  0.1107  0.7596
17177THY    CP125491   7.177   1.261   2.920  0.0213 -0.6433  0.2725
17177THY    HP125492   7.226   1.325   2.846 -2.2787 -0.8275  1.9250
17177THY    CP225493   7.197   1.332   3.058  0.2317 -0.0439 -0.1313
17177THY    HP225494   7.263   1.270   3.119 -0.8152  0.2731 -0.9434
17177THY    HP325495   7.100   1.339   3.108 -1.0031 -2.1293 -1.4389
17177THY    HP425496   7.237   1.434   3.055  0.9192  0.6430 -0.3763
17177THY    CP325497   7.038   1.262   2.877 -0.1345  0.3090  0.6257
17177THY    HP525498   7.020   1.360   2.831 -1.4759  0.9770  0.7183
17177THY    HP625499   6.964   1.243   2.956 -1.1565 -0.8462 -0.3730
17177THY    HP725500   7.032   1.182   2.803  1.5636 -1.0752  1.7119
17177THY    CA325501   7.211   1.027   3.012 -0.2066 -0.0615 -0.1389
17177THY    HA325502   7.156   1.050   3.103 -0.6454 -0.4628  0.4467
17177THY    CA425503   7.257   0.889   2.996  0.4797 -1.0108 -0.9942
17177THY    HA425504   7.243   0.821   3.080 -0.0263 -1.6758 -1.7250
17177THY    CA525505   7.311   0.852   2.880 -0.2007 -0.0189  0.1538
17177THY    CM125506   7.335   0.705   2.857  0.6357  0.8872  0.0426
17177THY    HM125507   7.303   0.675   2.757  3.2678  0.1606 -0.5600
17177THY    HM225508   7.286   0.640   2.932 -0.5352 -0.9811 -1.3305
17177THY    HM325509   7.443   0.689   2.853  0.6300 -0.4811  0.2519
17177THY    CA625510   7.335   0.944   2.777 -0.0242  0.4029 -0.1869
17177THY    HA625511   7.370   0.901   2.683 -2.8357 -0.9355  0.1957
17178THY      O25512   6.736   0.801   3.471 -0.5413  0.3692  0.5161
17178THY     HO25513   6.669   0.872   3.479 -2.2864  0.5561 -1.0778
17178THY    CA125514   6.851   0.856   3.447  0.5811 -0.9841  0.1369
17178THY    CA225515   6.971   0.783   3.438  0.2051 -0.6715 -0.3764
17178THY    CP125516   6.978   0.629   3.443  0.5704  0.6763 -0.0253
17178THY    HP125517   6.879   0.590   3.469 -1.2448 -1.9703  2.3536
17178THY    CP225518   7.058   0.585   3.557 -0.1519  0.0452 -0.2622
17178THY    HP225519   7.162   0.620   3.549 -0.4559 -0.2982  0.6001
17178THY    HP325520   7.078   0.478   3.547  0.5489  2.7889 -0.4750
17178THY    HP425521   7.024   0.605   3.660  1.1415  0.5443 -0.5055
17178THY    CP325522   7.022   0.566   3.314 -0.2357 -0.0533  0.1940
17178THY    HP525523   6.998   0.459   3.323 -0.0304  1.8932  0.2809
17178THY    HP625524   7.124   0.599   3.288  0.0825 -1.5896 -1.7709
17178THY    HP725525   6.967   0.604   3.227  1.4385 -1.4543 -0.4299
17178THY    CA325526   7.093   0.857   3.412  0.5549  0.0666  0.9439
17178THY    HA325527   7.183   0.797   3.403  0.3172 -0.7631  0.7039
17178THY    CA425528   7.093   0.992   3.395  0.7979 -0.2796  0.4321
17178THY    HA425529   7.185   1.033   3.355  1.2674  0.3358  0.0016
17178THY    CA525530   6.974   1.063   3.406 -0.4269 -0.1602  0.1582
17178THY    CM125531   6.984   1.211   3.412  0.4807 -0.2167 -0.5768
17178THY    HM125532   6.900   1.276   3.438  1.4679 -1.6499  1.4061
17178THY    HM225533   7.009   1.243   3.310 -0.3585 -0.5275 -0.9132
17178THY    HM325534   7.070   1.244   3.473 -1.6061  1.6433  1.8071
17178THY    CA625535   6.853   0.999   3.443 -0.2670  0.1169  0.7151
17178THY    HA625536   6.761   1.057   3.445 -0.2236  1.4379  0.7528
17179THY      O25537   3.299   6.574   7.917  0.4797 -0.5912 -0.2007
17179THY     HO25538   3.210   6.542   7.939 -0.0944 -3.7245 -1.0476
17179THY    CA125539   3.274   6.610   7.792 -1.0861  0.3335 -0.0244
17179THY    CA225540   3.370   6.648   7.700  0.5103  0.5915  0.4319
17179THY    CP125541   3.516   6.651   7.736  1.0579 -0.3726 -0.4519
17179THY    HP125542   3.524   6.647   7.845  1.3448 -0.3686  0.1891
17179THY    CP225543   3.593   6.772   7.684  0.3844  0.3719 -0.1039
17179THY    HP225544   3.699   6.762   7.711 -0.1198  1.8219 -2.0012
17179THY    HP325545   3.562   6.858   7.745 -1.5531 -0.6089 -0.0629
17179THY    HP425546   3.589   6.783   7.575  1.6407  0.2988 -0.1738
17179THY    CP325547   3.580   6.530   7.678  0.3554  0.3007 -0.0774
17179THY    HP525548   3.684   6.512   7.706  0.4466  0.1260  0.1705
17179THY    HP625549   3.574   6.528   7.569  0.8632  0.2512  0.6010
17179THY    HP725550   3.512   6.450   7.711  2.2602 -0.0190 -1.9341
17179THY    CA325551   3.329   6.678   7.568 -0.2197 -0.1204  0.0154
17179THY    HA325552   3.404   6.691   7.490  2.5607  2.1774 -1.2597
17179THY    CA425553   3.191   6.668   7.536  0.0733  0.0527 -0.0482
17179THY    HA425554   3.157   6.683   7.434 -2.1879  0.8293  0.5465
17179THY    CA525555   3.099   6.656   7.637  0.1096  0.6944  0.0183
17179THY    CM125556   2.954   6.670   7.626 -0.6002  0.1658 -0.1363
17179THY    HM125557   2.888   6.615   7.694 -0.5972 -1.8511 -2.7831
17179THY    HM225558   2.910   6.651   7.528  1.2775 -1.3389  2.5286
17179THY    HM325559   2.932   6.777   7.636 -0.7956  1.7226 -0.2896
17179THY    CA625560   3.140   6.630   7.766  1.2287  0.1696  0.1349
17179THY    HA625561   3.060   6.616   7.839  0.7416 -0.9491 -4.1483
17180THY      O25562   1.841   3.321   6.804 -0.1527  0.3790  0.0567
17180THY     HO25563   1.900   3.246   6.821 -0.8883 -0.6356 -0.7827
17180THY    CA125564   1.735   3.287   6.884  0.4623 -0.1280 -0.0541
17180THY    CA225565   1.603   3.311   6.840  0.3845  0.1317 -0.0387
17180THY    CP125566   1.583   3.366   6.689 -0.0694  0.8513 -0.2940
17180THY    HP125567   1.675   3.352   6.632 -0.8266 -1.1026  2.0252
17180THY    CP225568   1.550   3.512   6.693  0.0239 -0.1311 -0.2841
17180THY    HP225569   1.553   3.561   6.595 -0.1098  0.7416  1.5792
17180THY    HP325570   1.619   3.575   6.751 -0.5947  0.9951 -0.6193
17180THY    HP425571   1.454   3.525   6.745  0.2651  0.1756  0.3331
17180THY    CP325572   1.476   3.293   6.611  0.0300  0.1899 -0.0901
17180THY    HP525573   1.482   3.184   6.623 -0.3372 -2.3789 -0.4570
17180THY    HP625574   1.482   3.301   6.502 -2.1933  0.0146 -0.3270
17180THY    HP725575   1.381   3.339   6.639  1.1223  1.5375  1.4894
17180THY    CA325576   1.490   3.298   6.925 -0.2444 -0.8539 -0.7335
17180THY    HA325577   1.392   3.335   6.898 -0.8100  0.1714 -1.4191
17180THY    CA425578   1.515   3.260   7.058 -0.2711  0.0709 -0.3508
17180THY    HA425579   1.431   3.250   7.127  0.5582  2.3458  4.9821
17180THY    CA525580   1.646   3.232   7.104 -0.2050  0.2288  0.3420
17180THY    CM125581   1.667   3.203   7.245  0.3713  0.2453  0.0297
17180THY    HM125582   1.675   3.295   7.306  0.4761  0.9857 -0.4605
17180THY    HM225583   1.769   3.166   7.260  1.1649 -1.8027  1.2183
17180THY    HM325584   1.585   3.140   7.281 -1.5602 -2.0312  1.0952
17180THY    CA625585   1.755   3.245   7.015  0.0233 -0.4736 -0.2553
17180THY    HA625586   1.856   3.224   7.048  0.8062 -2.6244 -0.0483
17181THY      O25587   8.075   5.990   5.924 -0.1348  0.6517  0.1891
17181THY     HO25588   8.115   6.071   5.890  0.2785 -0.7057 -0.5564
17181THY    CA125589   7.992   5.948   5.826  0.1510 -0.3218  0.3663
17181THY    CA225590   7.978   5.814   5.795 -0.1846  0.5187 -0.0141
17181THY    CP125591   8.062   5.701   5.865 -0.1006 -0.1086 -0.5823
17181THY    HP125592   8.118   5.734   5.953  1.3591 -1.5924  1.1660
17181THY    CP225593   8.169   5.655   5.762 -0.7755 -0.2695 -0.1308
17181THY    HP225594   8.203   5.553   5.781 -2.6432  1.4233 -0.5028
17181THY    HP325595   8.262   5.712   5.761  1.4615 -0.4700 -3.5432
17181THY    HP425596   8.140   5.652   5.656  0.6328 -0.7157  1.1618
17181THY    CP325597   7.972   5.580   5.889 -0.5233 -0.0577 -0.0423
17181THY    HP525598   7.948   5.514   5.805  1.7089 -0.6734 -0.1139
17181THY    HP625599   7.892   5.610   5.958  0.2687  1.2128 -0.7586
17181THY    HP725600   8.031   5.505   5.944 -1.1495 -0.6009 -0.9595
17181THY    CA325601   7.894   5.783   5.681 -0.2749 -0.4614 -0.6446
17181THY    HA325602   7.885   5.679   5.653  1.3476  0.1491 -0.9826
17181THY    CA425603   7.823   5.883   5.614  0.8130 -0.2191  0.3563
17181THY    HA425604   7.749   5.854   5.541  2.2988 -0.7639 -2.4869
17181THY    CA525605   7.840   6.016   5.656  0.1695 -0.1542 -0.3858
17181THY    CM125606   7.774   6.135   5.584 -0.0747 -0.1006 -0.2148
17181THY    HM125607   7.810   6.235   5.614  1.7484 -0.3855 -0.7498
17181THY    HM225608   7.665   6.137   5.591 -0.1181 -0.7199  1.1742
17181THY    HM325609   7.792   6.124   5.477  0.0489 -0.1682  0.5849
17181THY    CA625610   7.934   6.048   5.755  0.4793  0.0557 -0.0310
17181THY    HA625611   7.945   6.153   5.780 -3.0425 -2.7485  1.1883
17182THY      O25612   7.046   4.794   7.687 -0.1145 -0.0493 -0.0777
17182THY     HO25613   7.042   4.860   7.616  1.2274 -0.3177 -0.2531
17182THY    CA125614   7.181   4.779   7.708 -0.4192 -0.3413  0.5108
17182THY    CA225615   7.236   4.678   7.790 -0.3389 -0.3271  0.4501
17182THY    CP125616   7.142   4.562   7.834 -0.0169  0.4171  0.9671
17182THY    HP125617   7.036   4.587   7.822 -0.3908  0.0574 -0.6828
17182THY    CP225618   7.156   4.513   7.977  0.1002 -0.1803  0.6607
17182THY    HP225619   7.180   4.588   8.053  2.2905  2.1936 -2.2408
17182THY    HP325620   7.241   4.444   7.981 -0.0596 -4.1570 -0.0393
17182THY    HP425621   7.073   4.451   8.013  0.0256 -0.4067  0.6273
17182THY    CP325622   7.161   4.445   7.750 -0.7749  0.6232  0.2290
17182THY    HP525623   7.135   4.475   7.647  0.1918  0.7996  1.7697
17182THY    HP625624   7.088   4.370   7.783 -0.5389 -0.5986 -0.5800
17182THY    HP725625   7.257   4.393   7.757 -1.4715  0.5275 -1.1017
17182THY    CA325626   7.371   4.665   7.813 -0.5183  0.0580  0.2808
17182THY    HA325627   7.393   4.574   7.868 -3.9973  0.7452 -0.2823
17182THY    CA425628   7.460   4.764   7.754 -0.3015 -0.1811 -0.3130
17182THY    HA425629   7.567   4.754   7.769 -0.5174  1.0625 -0.8524
17182THY    CA525630   7.405   4.855   7.665 -0.1000  0.7002 -0.0499
17182THY    CM125631   7.499   4.932   7.573 -0.2620  0.3443  0.9947
17182THY    HM125632   7.577   4.867   7.534  0.0101  0.6213  1.1518
17182THY    HM225633   7.549   5.022   7.611 -0.0893 -1.3368  1.6470
17182THY    HM325634   7.453   4.976   7.484  1.9993 -1.4092 -0.0229
17182THY    CA625635   7.266   4.858   7.642 -0.7982  0.4803 -0.2244
17182THY    HA625636   7.235   4.923   7.561 -1.3008 -0.0250 -1.0823
17183THY      O25637   3.414   5.110   2.756  0.0785  0.1464  0.4856
17183THY     HO25638   3.497   5.108   2.705  0.2694  0.4741 -1.0501
17183THY    CA125639   3.303   5.076   2.675 -0.2415 -0.5277  0.2003
17183THY    CA225640   3.171   5.074   2.719  1.2831  0.3161  0.4868
17183THY    CP125641   3.132   5.099   2.860 -0.4242 -0.1544  0.0978
17183THY    HP125642   3.219   5.086   2.926  0.6337 -1.3278  0.9538
17183THY    CP225643   3.021   5.002   2.911  0.1535  0.0255 -0.2648
17183THY    HP225644   3.044   4.898   2.889  1.6433 -0.7330  0.2062
17183THY    HP325645   2.924   5.033   2.870 -0.5477  2.1159  0.5050
17183THY    HP425646   3.011   5.013   3.020  1.3833  0.1642 -0.4570
17183THY    CP325647   3.092   5.242   2.886 -0.6759  0.2421  0.3005
17183THY    HP525648   3.001   5.279   2.836 -1.2421  0.9334 -0.1313
17183THY    HP625649   3.174   5.306   2.852 -1.6622 -1.1468  0.8772
17183THY    HP725650   3.091   5.259   2.994  0.6990  0.2738  0.2790
17183THY    CA325651   3.066   5.043   2.621 -0.1186 -0.1373  0.3474
17183THY    HA325652   2.962   5.035   2.652  0.1582  0.6837 -0.2499
17183THY    CA425653   3.091   5.013   2.491 -0.2672 -0.3876  0.1195
17183THY    HA425654   3.007   4.991   2.425 -0.8237 -0.1837  1.5231
17183THY    CA525655   3.225   5.020   2.449  0.4719  0.2858 -0.2679
17183THY    CM125656   3.247   5.001   2.302 -0.5378  0.3328  0.3313
17183THY    HM125657   3.344   4.949   2.303  0.2937  1.1411  1.8238
17183THY    HM225658   3.275   5.099   2.262 -0.4613  1.5862  0.8455
17183THY    HM325659   3.172   4.945   2.245  0.1638 -1.4117  1.1132
17183THY    CA625660   3.325   5.052   2.544 -0.4684  0.3657  0.1191
17183THY    HA625661   3.428   5.055   2.511 -0.8409 -0.9799 -1.0558
17184THY      O25662   1.381   4.161   6.153 -0.1390  0.9807 -0.3736
17184THY     HO25663   1.362   4.079   6.201  1.4835 -2.6622 -3.1396
17184THY    CA125664   1.337   4.140   6.025  0.0134  0.4107 -0.0193
17184THY    CA225665   1.208   4.186   5.987 -0.5102  0.0587  0.4781
17184THY    CP125666   1.119   4.254   6.093 -0.3206 -0.0249 -0.2063
17184THY    HP125667   1.168   4.278   6.188 -0.0955 -0.6056  1.7686
17184THY    CP225668   0.997   4.170   6.144 -0.2132 -0.5372 -0.2992
17184THY    HP225669   1.035   4.091   6.209  0.3119 -1.0588 -0.4799
17184THY    HP325670   0.939   4.117   6.067 -1.3483  0.2816 -0.2876
17184THY    HP425671   0.925   4.225   6.206 -0.0145 -0.2113 -0.4071
17184THY    CP325672   1.077   4.389   6.038  0.0603 -0.4317 -0.4234
17184THY    HP525673   1.170   4.438   6.007 -0.5567 -1.0896  0.3594
17184THY    HP625674   1.034   4.447   6.120 -1.1560 -1.6924  0.5346
17184THY    HP725675   0.996   4.370   5.966  0.6436 -1.1189 -0.3320
17184THY    CA325676   1.168   4.169   5.855  0.0331 -0.1706  0.2328
17184THY    HA325677   1.071   4.196   5.815 -0.8586  0.8391 -1.3229
17184THY    CA425678   1.259   4.114   5.762  0.0749  0.3030 -0.9364
17184THY    HA425679   1.241   4.109   5.655 -1.2801  0.4245  0.5346
17184THY    CA525680   1.387   4.067   5.808  0.5485  0.5048 -0.4374
17184THY    CM125681   1.481   4.022   5.706  0.4193 -0.5073  0.1855
17184THY    HM125682   1.452   4.016   5.600  0.8633 -0.5553 -2.3701
17184THY    HM225683   1.508   3.919   5.732  2.1493 -2.4550  0.0715
17184THY    HM325684   1.573   4.079   5.723  0.7676  0.0025 -0.5035
17184THY    CA625685   1.419   4.078   5.940 -0.1929 -0.1341  0.6745
17184THY    HA625686   1.519   4.051   5.973 -0.3586 -0.7404 -0.7818
17185THY      O25687   4.937   7.995   6.166 -0.2848 -0.2669  0.2060
17185THY     HO25688   4.959   8.080   6.125 -2.0463  1.0884  1.3907
17185THY    CA125689   4.865   8.022   6.282 -0.0804  0.6743  0.3779
17185THY    CA225690   4.788   8.137   6.308  0.3284  0.3933  0.7468
17185THY    CP125691   4.777   8.238   6.201 -0.0305  0.8417 -0.3921
17185THY    HP125692   4.782   8.187   6.104  0.4123  1.5121 -1.6766
17185THY    CP225693   4.887   8.345   6.209  0.5720  0.4568  0.5281
17185THY    HP225694   4.852   8.408   6.291 -3.6626  0.0118 -0.8593
17185THY    HP325695   4.879   8.399   6.114 -1.2717  0.1405 -0.2058
17185THY    HP425696   4.986   8.300   6.221  1.5076 -0.3882  2.2564
17185THY    CP325697   4.639   8.301   6.178 -0.1298 -0.5723  0.9094
17185THY    HP525698   4.566   8.221   6.191  0.8932 -0.5773 -0.0400
17185THY    HP625699   4.633   8.345   6.078  0.6366 -0.9336  0.2183
17185THY    HP725700   4.621   8.371   6.260 -0.0062  1.1050 -0.9430
17185THY    CA325701   4.723   8.154   6.433 -0.3022  0.5180 -0.3412
17185THY    HA325702   4.659   8.241   6.444 -2.4549 -1.1168 -1.6125
17185THY    CA425703   4.730   8.051   6.523 -0.1887 -0.2692  0.7232
17185THY    HA425704   4.665   8.053   6.610 -0.5274 -0.5030  2.8878
17185THY    CA525705   4.812   7.943   6.500  0.3638  0.2335 -0.2176
17185THY    CM125706   4.800   7.834   6.601  0.8340 -0.6237 -0.0375
17185THY    HM125707   4.787   7.868   6.704  0.5736 -0.6274 -0.1297
17185THY    HM225708   4.890   7.771   6.592  0.7062 -3.0625  0.0541
17185THY    HM325709   4.722   7.762   6.576 -0.3700  0.8987  0.6877
17185THY    CA625710   4.875   7.929   6.381 -0.7774  0.0492  0.1586
17185THY    HA625711   4.922   7.834   6.357  0.4152  0.9161  0.5117
17186THY      O25712   4.540   3.178   1.799 -0.0453 -0.4426  0.1419
17186THY     HO25713   4.564   3.145   1.711 -0.6944 -0.6412  0.1890
17186THY    CA125714   4.440   3.094   1.834  0.4244  0.8708 -0.2191
17186THY    CA225715   4.386   3.095   1.963 -0.9226 -0.4793  0.4904
17186THY    CP125716   4.463   3.160   2.078  0.1209 -0.7651 -0.1875
17186THY    HP125717   4.533   3.237   2.043 -0.8826  2.2426  2.2732
17186THY    CP225718   4.540   3.039   2.138  0.2022  0.0116  0.7206
17186THY    HP225719   4.618   3.083   2.202 -0.5785  0.9975  0.6883
17186THY    HP325720   4.596   2.975   2.069 -0.4445 -0.5282  0.7255
17186THY    HP425721   4.478   2.977   2.204  1.5052  3.1091  2.4551
17186THY    CP325722   4.375   3.250   2.181  0.0333 -0.0598  0.1256
17186THY    HP525723   4.440   3.291   2.258 -0.6622  0.0349  1.0840
17186THY    HP625724   4.298   3.192   2.233 -0.0022 -0.5219 -0.2459
17186THY    HP725725   4.321   3.333   2.134 -1.4314 -0.7498 -1.1709
17186THY    CA325726   4.279   3.006   1.997 -0.4555 -0.0754 -0.2354
17186THY    HA325727   4.245   3.008   2.100  0.9990  0.4668 -1.2803
17186THY    CA425728   4.217   2.934   1.899 -0.5538 -0.1729 -0.1669
17186THY    HA425729   4.132   2.870   1.924  1.0286 -1.0999 -2.7976
17186THY    CA525730   4.264   2.934   1.765 -0.2387 -0.1074 -0.0528
17186THY    CM125731   4.199   2.853   1.654 -0.2767  0.6828  0.5181
17186THY    HM125732   4.191   2.914   1.564  1.1975 -2.4154 -3.4274
17186THY    HM225733   4.102   2.811   1.680  0.4698 -0.6704 -2.2558
17186THY    HM325734   4.265   2.768   1.635  1.3347 -1.6597  2.1647
17186THY    CA625735   4.381   3.007   1.732  0.0550  1.2493 -0.0398
17186THY    HA625736   4.409   3.015   1.627  0.4484  1.3527 -0.0273
17187THY      O25737   8.505   2.456   3.471 -0.0725  0.8637 -0.1073
17187THY     HO25738   8.488   2.501   3.556  0.4619 -0.1140  2.0668
17187THY    CA125739   8.527   2.321   3.489 -0.1636 -0.2051  0.1647
17187THY    CA225740   8.551   2.228   3.379  0.1998 -0.3905 -0.5291
17187THY    CP125741   8.534   2.283   3.235  0.3635  1.1046  0.1670
17187THY    HP125742   8.500   2.387   3.246 -0.9137 -0.8853  0.0091
17187THY    CP225743   8.420   2.203   3.163 -0.1194 -0.9540  0.1081
17187THY    HP225744   8.327   2.205   3.223  1.3902  1.5659 -0.4468
17187THY    HP325745   8.450   2.099   3.152  1.4406  5.2133 -0.4929
17187THY    HP425746   8.394   2.245   3.065  0.8616 -1.3944 -0.2952
17187THY    CP325747   8.670   2.291   3.160 -0.2601  0.5022  0.3713
17187THY    HP525748   8.705   2.190   3.135 -0.4184 -2.6871  1.0204
17187THY    HP625749   8.743   2.343   3.223  0.6015 -0.8724  0.8800
17187THY    HP725750   8.670   2.333   3.059 -0.4897  0.1903 -0.3596
17187THY    CA325751   8.577   2.091   3.399  0.1427 -0.3372  0.6716
17187THY    HA325752   8.578   2.019   3.319  2.1799 -0.3293  0.6348
17187THY    CA425753   8.580   2.051   3.536  0.1327 -0.0618  0.4121
17187THY    HA425754   8.605   1.947   3.551  0.0199 -1.6630  0.1190
17187THY    CA525755   8.560   2.139   3.637  0.5571 -0.2237 -0.3623
17187THY    CM125756   8.578   2.091   3.782 -0.1152 -0.2775 -0.0618
17187THY    HM125757   8.587   1.983   3.797 -2.7235 -0.0580 -0.3144
17187THY    HM225758   8.487   2.110   3.842  0.6109  0.4287  1.3845
17187THY    HM325759   8.656   2.155   3.825  0.8958 -1.8114 -0.2252
17187THY    CA625760   8.531   2.273   3.615  0.3870  0.0270  0.3660
17187THY    HA625761   8.504   2.336   3.700  0.6171  0.9710 -0.7681
17188THY      O25762   4.238   7.936   2.707 -0.0029 -0.0413 -0.1146
17188THY     HO25763   4.194   7.916   2.623  0.8269 -0.8929  1.4343
17188THY    CA125764   4.339   7.838   2.722  0.7026 -0.2568 -0.5997
17188THY    CA225765   4.394   7.811   2.848  0.1011  0.0483 -0.4513
17188THY    CP125766   4.353   7.900   2.976  0.2174 -0.2742  0.3605
17188THY    HP125767   4.314   7.998   2.947  1.5554  0.0336  1.0143
17188THY    CP225768   4.485   7.940   3.054  0.0666 -0.2813  0.7140
17188THY    HP225769   4.472   8.029   3.116 -2.1971  0.5349 -0.1026
17188THY    HP325770   4.570   7.947   2.985  1.1538  0.5890 -2.4721
17188THY    HP425771   4.508   7.862   3.127 -0.4011 -0.6241  0.2452
17188THY    CP325772   4.251   7.844   3.077  0.1562 -0.1509  0.8863
17188THY    HP525773   4.299   7.758   3.127  1.1112 -0.3748  1.2831
17188THY    HP625774   4.155   7.812   3.035 -1.2995  4.2302 -1.4138
17188THY    HP725775   4.227   7.930   3.141 -3.0145  0.7235 -0.4898
17188THY    CA325776   4.488   7.706   2.857 -0.2180 -0.2240 -0.6922
17188THY    HA325777   4.543   7.689   2.949  0.8774  0.0165  3.1854
17188THY    CA425778   4.519   7.638   2.744  0.4366 -0.5371 -0.2325
17188THY    HA425779   4.589   7.555   2.753 -0.9700  1.8519 -1.2590
17188THY    CA525780   4.471   7.674   2.622 -0.7437  0.3667 -0.2943
17188THY    CM125781   4.521   7.608   2.499  0.0073  0.5715 -0.1924
17188THY    HM125782   4.531   7.502   2.525  1.9876 -1.0233 -0.4745
17188THY    HM225783   4.617   7.652   2.469  0.6611  1.7541 -0.7663
17188THY    HM325784   4.450   7.623   2.417 -0.6213  0.8103 -1.7068
17188THY    CA625785   4.375   7.770   2.614 -0.7599  0.3126 -0.2903
17188THY    HA625786   4.333   7.796   2.518 -0.6212  0.3765  0.1697
17189THY      O25787   1.241   0.712   5.649  1.1906 -0.3765 -0.6851
17189THY     HO25788   1.251   0.808   5.639  0.1602  0.0829 -0.5159
17189THY    CA125789   1.346   0.664   5.586 -0.0263 -0.0831  0.4607
17189THY    CA225790   1.422   0.545   5.627  0.6394 -0.6964 -0.0354
17189THY    CP125791   1.388   0.472   5.760  0.3085 -0.7120  0.0411
17189THY    HP125792   1.333   0.537   5.828 -0.6910  0.6236 -2.0717
17189THY    CP225793   1.504   0.413   5.835 -0.0822  0.0154  0.2763
17189THY    HP225794   1.580   0.491   5.824 -0.3605  0.9265  0.6832
17189THY    HP325795   1.545   0.314   5.809  0.2114  0.5209  0.2610
17189THY    HP425796   1.461   0.411   5.936 -2.3987 -0.8978 -1.3884
17189THY    CP325797   1.294   0.357   5.723  0.3686 -0.5823 -0.1247
17189THY    HP525798   1.277   0.298   5.814  2.0984  0.6287  1.1184
17189THY    HP625799   1.331   0.304   5.634 -0.0694 -0.7962 -0.0707
17189THY    HP725800   1.194   0.385   5.689  0.6739 -0.8288  0.6813
17189THY    CA325801   1.518   0.497   5.539 -1.0657  0.0467  0.0583
17189THY    HA325802   1.574   0.408   5.568  0.6430 -0.2220  1.0022
17189THY    CA425803   1.554   0.570   5.430 -0.3268 -0.4716 -0.8257
17189THY    HA425804   1.644   0.544   5.375  0.7025  0.6787  0.1646
17189THY    CA525805   1.479   0.683   5.393 -0.2597  0.2999  0.4495
17189THY    CM125806   1.517   0.759   5.272  0.3277 -0.5792  0.5012
17189THY    HM125807   1.622   0.791   5.268  0.4849  2.0554  0.5438
17189THY    HM225808   1.459   0.851   5.260  0.4467  1.7125  0.9224
17189THY    HM325809   1.495   0.703   5.180 -2.2014 -0.4869  1.2335
17189THY    CA625810   1.380   0.730   5.469  0.2772 -1.2019  0.0226
17189THY    HA625811   1.331   0.820   5.432 -0.1140 -1.0965 -0.1454
17190THY      O25812   9.157   6.061   1.564 -0.9112  0.0572  0.7135
17190THY     HO25813   9.155   6.119   1.485  2.0998 -1.1664 -0.6275
17190THY    CA125814   9.182   6.150   1.667  0.0799 -0.4412 -0.2764
17190THY    CA225815   9.212   6.101   1.797 -0.1368  0.3209 -0.0457
17190THY    CP125816   9.234   5.954   1.837 -0.4492 -0.3549  0.8238
17190THY    HP125817   9.210   5.888   1.753 -2.9994  0.4583  0.5931
17190THY    CP225818   9.123   5.913   1.934 -0.8803 -1.2732 -0.3063
17190THY    HP225819   9.136   5.809   1.967 -0.5756  0.7921  0.3458
17190THY    HP325820   9.024   5.931   1.890 -1.1134 -0.7272 -0.2251
17190THY    HP425821   9.130   5.979   2.021  1.7451 -0.6619 -1.2806
17190THY    CP325822   9.371   5.937   1.896  0.2353 -0.2320  0.1615
17190THY    HP525823   9.371   5.986   1.994 -2.4004 -0.5842  1.0032
17190THY    HP625824   9.443   5.996   1.839 -0.0939 -0.1520  0.6513
17190THY    HP725825   9.392   5.831   1.917  1.2859 -0.5362  0.3004
17190THY    CA325826   9.225   6.201   1.899  0.4125  0.3311 -0.0532
17190THY    HA325827   9.249   6.171   2.001  2.0076 -0.3202 -1.0991
17190THY    CA425828   9.193   6.335   1.868  0.4404  0.7699  0.1038
17190THY    HA425829   9.186   6.406   1.950  3.4574  1.1255  0.1393
17190THY    CA525830   9.177   6.378   1.736 -0.2179  0.6179 -1.0144
17190THY    CM125831   9.162   6.528   1.702 -0.0323 -0.4027  0.2878
17190THY    HM125832   9.176   6.546   1.595  1.8568 -0.2115  0.1923
17190THY    HM225833   9.239   6.587   1.753  2.7071 -2.8158 -0.9584
17190THY    HM325834   9.067   6.562   1.743  0.6003  1.8510 -0.4703
17190THY    CA625835   9.170   6.281   1.635  0.7519 -0.0496 -0.2775
17190THY    HA625836   9.157   6.316   1.533 -1.2050 -0.4714 -2.0035
17191THY      O25837   4.215   4.181   3.885 -0.7212  0.3805  0.0866
17191THY     HO25838   4.162   4.251   3.926 -0.0654  0.1832  0.7149
17191THY    CA125839   4.241   4.095   3.985  0.3183 -0.5415  0.0098
17191THY    CA225840   4.371   4.081   4.033 -0.6771  0.2225 -0.2452
17191THY    CP125841   4.486   4.176   3.991  0.4499  0.3037  0.2013
17191THY    HP125842   4.456   4.232   3.901 -0.4947  0.9408  0.7352
17191THY    CP225843   4.629   4.116   3.958  0.4091  0.0123 -0.2308
17191THY    HP225844   4.694   4.190   3.911  1.5509 -0.5075 -1.5241
17191THY    HP325845   4.609   4.033   3.889 -1.9266 -0.6083  0.7770
17191THY    HP425846   4.670   4.073   4.051 -0.8501  1.6743  1.9455
17191THY    CP325847   4.491   4.296   4.093 -0.4138 -0.3132  1.4100
17191THY    HP525848   4.515   4.257   4.193 -2.0755  0.1645  1.5114
17191THY    HP625849   4.390   4.340   4.094 -0.9242  2.0791  0.3876
17191THY    HP725850   4.556   4.371   4.049 -1.6716 -0.7199  2.2975
17191THY    CA325851   4.388   3.998   4.144 -0.2587  0.1349  0.2381
17191THY    HA325852   4.480   4.002   4.202  0.0164 -0.3503  1.1683
17191THY    CA425853   4.284   3.917   4.190  0.4251 -1.2673 -0.3986
17191THY    HA425854   4.310   3.842   4.264  1.0244  2.4882  3.1712
17191THY    CA525855   4.154   3.936   4.148 -0.7258  0.1193  0.1026
17191THY    CM125856   4.039   3.860   4.211 -0.1620 -0.1001 -0.1680
17191THY    HM125857   4.008   3.775   4.148  2.0646  1.7357 -2.5128
17191THY    HM225858   3.946   3.916   4.224 -1.4582 -1.3570 -1.9307
17191THY    HM325859   4.062   3.824   4.312 -1.3498  0.7565  1.3688
17191THY    CA625860   4.129   4.021   4.037 -0.3304 -0.0195 -0.0735
17191THY    HA625861   4.028   4.038   4.002 -1.0150  1.5514 -0.6947
17192THY      O25862   3.095   0.675   5.520 -0.4856  0.2486  0.5188
17192THY     HO25863   3.031   0.739   5.557 -2.1662 -2.7015  0.7310
17192THY    CA125864   3.063   0.674   5.385 -0.0125 -0.5184  0.3219
17192THY    CA225865   3.113   0.567   5.307  0.5646 -0.2253 -0.8275
17192THY    CP125866   3.203   0.458   5.359  0.2013  0.1066  0.6350
17192THY    HP125867   3.220   0.466   5.467  1.2606 -0.0514  0.6999
17192THY    CP225868   3.348   0.461   5.303  0.2195  0.1991 -0.3008
17192THY    HP225869   3.350   0.416   5.203  0.8345  0.0257  0.1119
17192THY    HP325870   3.414   0.405   5.370  2.8693 -1.3501  0.8089
17192THY    HP425871   3.379   0.565   5.292  0.2570  2.5569 -0.0203
17192THY    CP325872   3.133   0.325   5.321  0.1842  0.7442  0.4657
17192THY    HP525873   3.139   0.319   5.212 -0.0952  0.5914  2.4403
17192THY    HP625874   3.030   0.332   5.357 -0.3274 -0.9372  2.6283
17192THY    HP725875   3.184   0.238   5.364 -2.8831 -1.0391 -2.4485
17192THY    CA325876   3.089   0.567   5.173  0.2647  0.4115 -0.1676
17192THY    HA325877   3.140   0.495   5.108  0.3426  0.1046  0.1648
17192THY    CA425878   2.997   0.663   5.112 -0.1851  0.2563  1.0524
17192THY    HA425879   2.973   0.666   5.006  0.6739  0.0606  1.3475
17192THY    CA525880   2.935   0.756   5.195 -0.4653  0.3735 -0.3892
17192THY    CM125881   2.849   0.862   5.144 -0.5556  0.1560  0.4040
17192THY    HM125882   2.752   0.845   5.193  0.2912  1.1875 -1.8680
17192THY    HM225883   2.844   0.862   5.035 -1.2750  0.1797 -0.3510
17192THY    HM325884   2.892   0.962   5.161 -0.1507 -1.5595  0.5469
17192THY    CA625885   2.972   0.767   5.329  0.2779 -0.4911 -0.1034
17192THY    HA625886   2.929   0.842   5.395  1.8233  0.1138  0.2840
17193THY      O25887   0.421   5.924   6.090 -0.9265  0.4062  0.1181
17193THY     HO25888   0.327   5.909   6.069 -0.8341 -1.3277  1.6890
17193THY    CA125889   0.422   5.975   6.213  0.1364  0.0964 -0.2349
17193THY    CA225890   0.540   6.033   6.267  0.2104 -0.2196  0.5150
17193THY    CP125891   0.658   6.063   6.178 -1.1970  0.7112 -0.1285
17193THY    HP125892   0.664   5.995   6.092  3.2174  0.2585  0.5668
17193THY    CP225893   0.794   6.024   6.234 -0.4034 -0.0252 -1.6865
17193THY    HP225894   0.810   5.916   6.235 -0.9171 -0.3626 -1.7683
17193THY    HP325895   0.815   6.070   6.331  1.7073 -0.3565 -1.8380
17193THY    HP425896   0.874   6.064   6.170 -1.0014  1.1831  1.7575
17193THY    CP325897   0.653   6.211   6.131  0.3975 -0.2465  0.3372
17193THY    HP525898   0.565   6.219   6.066 -2.7691  3.0401 -3.2478
17193THY    HP625899   0.749   6.241   6.089 -0.7096 -1.8758  1.8003
17193THY    HP725900   0.633   6.280   6.214 -0.6225  0.0942 -0.3419
17193THY    CA325901   0.537   6.076   6.396  0.1527 -0.6709  0.3761
17193THY    HA325902   0.619   6.131   6.442  1.9131 -0.2595 -2.3927
17193THY    CA425903   0.425   6.055   6.476  0.1065 -0.5062 -0.3265
17193THY    HA425904   0.428   6.092   6.578  0.8813 -0.5719 -0.1725
17193THY    CA525905   0.315   5.996   6.427  0.0674 -0.1389 -0.5314
17193THY    CM125906   0.188   5.989   6.507  0.0080  0.5280  0.5978
17193THY    HM125907   0.157   5.885   6.515  1.3034 -1.4654  0.0088
17193THY    HM225908   0.108   6.043   6.455 -0.1710 -1.8251 -1.7646
17193THY    HM325909   0.216   6.021   6.608  3.2314 -0.2011  0.5059
17193THY    CA625910   0.317   5.955   6.291 -0.0017 -0.0032 -0.0600
17193THY    HA625911   0.228   5.901   6.260  0.5057 -0.7528 -0.4965
17194THY      O25912   3.557   2.898   4.523  0.4114 -0.2093 -0.3426
17194THY     HO25913   3.503   2.880   4.602 -1.3818 -1.8974 -3.0828
17194THY    CA125914   3.563   2.778   4.459  0.2266  0.1601  0.0694
17194THY    CA225915   3.682   2.735   4.400  0.3560 -0.3146 -0.1625
17194THY    CP125916   3.809   2.824   4.404  0.3553 -0.1427  0.0887
17194THY    HP125917   3.820   2.860   4.507  0.2286  0.1640 -0.7217
17194THY    CP225918   3.795   2.950   4.324 -0.0021  0.7085 -0.4143
17194THY    HP225919   3.897   2.987   4.311  0.3293  2.0538 -0.7810
17194THY    HP325920   3.728   3.022   4.374  0.1137 -1.5870  1.3869
17194THY    HP425921   3.749   2.934   4.226  0.1453  0.8175 -1.5702
17194THY    CP325922   3.935   2.749   4.362  0.7754  0.7469  0.1260
17194THY    HP525923   3.929   2.735   4.253  0.0027  0.8398 -0.3250
17194THY    HP625924   3.932   2.657   4.422 -0.4425  0.1081 -0.2723
17194THY    HP725925   4.030   2.802   4.379  0.5930 -2.4405  1.7235
17194THY    CA325926   3.672   2.613   4.326  0.4918 -0.2443 -0.2691
17194THY    HA325927   3.754   2.578   4.264  2.0471  1.5732 -0.0373
17194THY    CA425928   3.556   2.540   4.324  0.2040  0.1248 -0.2043
17194THY    HA425929   3.546   2.442   4.280 -4.3902  2.4373 -1.0779
17194THY    CA525930   3.443   2.587   4.392 -0.8835 -0.3592  0.5209
17194THY    CM125931   3.316   2.506   4.400 -0.2214  0.1361  0.2762
17194THY    HM125932   3.275   2.509   4.298  2.8418 -1.1882  0.2338
17194THY    HM225933   3.245   2.545   4.474 -0.0294  0.5119 -0.0836
17194THY    HM325934   3.335   2.401   4.424 -0.8278 -1.1769 -0.1565
17194THY    CA625935   3.442   2.713   4.449  0.5768 -0.5116  0.3060
17194THY    HA625936   3.349   2.756   4.485  0.4652 -0.4586  0.0261
17195THY      O25937   1.837   2.726   3.085  0.0720 -0.6177  1.0869
17195THY     HO25938   1.922   2.685   3.061 -0.5010  2.4729 -2.4832
17195THY    CA125939   1.825   2.698   3.220  0.0206 -0.0148 -0.2400
17195THY    CA225940   1.701   2.706   3.284  0.3319 -0.6474  0.7334
17195THY    CP125941   1.565   2.752   3.213 -0.8222 -0.2960  0.3378
17195THY    HP125942   1.594   2.808   3.123  1.3573 -0.5160 -1.0091
17195THY    CP225943   1.483   2.846   3.303 -0.4627 -0.9416  0.4407
17195THY    HP225944   1.408   2.914   3.262 -1.0608  0.9168  0.9754
17195THY    HP325945   1.544   2.911   3.367 -1.8436  1.8508 -0.8203
17195THY    HP425946   1.420   2.784   3.368  0.2090  1.4455  2.1276
17195THY    CP325947   1.475   2.640   3.175  0.6846 -0.7085  0.1521
17195THY    HP525948   1.377   2.663   3.132  0.5305 -0.0988  0.6472
17195THY    HP625949   1.452   2.583   3.266  3.4998 -0.5835 -0.9784
17195THY    HP725950   1.535   2.578   3.107  0.4392  0.7788 -1.8436
17195THY    CA325951   1.699   2.674   3.415  0.5378  0.1171 -0.3375
17195THY    HA325952   1.607   2.676   3.474  1.8303  2.2135  0.5333
17195THY    CA425953   1.806   2.623   3.479  0.6634  0.0242 -0.0156
17195THY    HA425954   1.790   2.580   3.578  0.8007 -0.8874 -2.3478
17195THY    CA525955   1.934   2.612   3.412  0.1939 -0.4841 -0.3073
17195THY    CM125956   2.050   2.564   3.493 -0.3385  0.3818 -0.4865
17195THY    HM125957   2.034   2.558   3.602  2.7438  1.1157  2.0065
17195THY    HM225958   2.127   2.640   3.479  1.4444  1.9719 -1.8777
17195THY    HM325959   2.092   2.472   3.451  1.8826 -0.7288  0.9522
17195THY    CA625960   1.942   2.652   3.277  0.9071 -0.5800  0.2628
17195THY    HA625961   2.034   2.643   3.221  1.8611  1.0595 -0.7482
17196THY      O25962   7.990   6.893   5.455  0.0718  0.1812  0.0670
17196THY     HO25963   8.078   6.853   5.463 -1.1457  0.0908 -2.8398
17196THY    CA125964   7.968   6.958   5.571  0.9765 -0.0486  0.2847
17196THY    CA225965   7.837   6.989   5.607  0.2050 -0.1049  0.0348
17196THY    CP125966   7.715   6.965   5.515 -0.4390 -0.5014 -0.6335
17196THY    HP125967   7.741   6.896   5.434  0.6257  1.2545 -2.3939
17196THY    CP225968   7.679   7.104   5.447  0.0000  0.0645  0.2859
17196THY    HP225969   7.639   7.181   5.514 -2.1309  0.6343 -1.2243
17196THY    HP325970   7.601   7.089   5.372  0.2690  0.2157 -2.3605
17196THY    HP425971   7.772   7.137   5.398 -0.3682 -1.2659 -0.5687
17196THY    CP325972   7.594   6.915   5.601  0.0969  0.3591 -0.1123
17196THY    HP525973   7.632   6.829   5.657  0.5362  0.6357  0.2559
17196THY    HP625974   7.514   6.879   5.536 -1.2249  0.4204  2.4787
17196THY    HP725975   7.550   6.974   5.682 -0.5773  0.0922 -0.2505
17196THY    CA325976   7.816   7.058   5.727  0.6017 -0.1583  0.3590
17196THY    HA325977   7.718   7.095   5.754  0.1348  0.3070 -1.1220
17196THY    CA425978   7.925   7.097   5.806  0.0612  0.7909  0.0879
17196THY    HA425979   7.907   7.147   5.901 -2.7377 -0.5135  1.8675
17196THY    CA525980   8.055   7.061   5.771 -0.3336 -0.5899  0.1515
17196THY    CM125981   8.178   7.103   5.852 -0.5711  0.0984  0.7526
17196THY    HM125982   8.262   7.129   5.786  0.7969  0.6500 -1.9264
17196THY    HM225983   8.223   7.017   5.903 -0.9658 -2.9962 -1.4527
17196THY    HM325984   8.169   7.176   5.933 -1.9986  2.5697 -1.9403
17196THY    CA625985   8.074   6.987   5.652  0.6206  0.6929 -0.2509
17196THY    HA625986   8.173   6.959   5.618  0.9263  1.0652  0.3808
17197THY      O25987   5.248   6.480   2.686 -0.1015  0.3271 -0.1752
17197THY     HO25988   5.225   6.464   2.593  0.4355  0.1772 -0.1029
17197THY    CA125989   5.194   6.600   2.702 -0.6841 -0.8423 -0.3088
17197THY    CA225990   5.256   6.704   2.785  0.4393 -0.0983  0.4320
17197THY    CP125991   5.393   6.681   2.855 -0.3745 -0.2464 -0.9466
17197THY    HP125992   5.422   6.576   2.856  0.2533 -0.1252 -0.7740
17197THY    CP225993   5.383   6.729   3.000 -0.1666 -1.0440  0.8017
17197THY    HP225994   5.381   6.839   3.004 -0.7920 -0.3869  0.7764
17197THY    HP325995   5.473   6.704   3.057 -0.7932 -0.6721 -0.6772
17197THY    HP425996   5.288   6.697   3.044 -1.3469 -2.9682  1.4813
17197THY    CP325997   5.495   6.762   2.783 -0.2235 -0.4723  0.0727
17197THY    HP525998   5.593   6.738   2.827  0.0958 -0.9176  0.5461
17197THY    HP625999   5.473   6.869   2.789 -3.1705  0.1338 -0.4940
17197THY    HP726000   5.502   6.735   2.677  2.4898 -0.7966  1.6263
17197THY    CA326001   5.189   6.827   2.783 -0.2564 -0.2509 -0.3633
17197THY    HA326002   5.231   6.910   2.839  0.9819 -0.7356 -0.6360
17197THY    CA426003   5.074   6.838   2.707  0.0568 -0.2614 -0.0703
17197THY    HA426004   5.011   6.927   2.706 -0.6051 -1.2582 -0.5396
17197THY    CA526005   5.019   6.734   2.643 -0.3824 -0.0393  0.6576
17197THY    CM126006   4.876   6.747   2.591  0.2803  0.2468  0.3432
17197THY    HM126007   4.880   6.777   2.486  1.7611 -0.7675 -2.9062
17197THY    HM226008   4.816   6.819   2.649 -1.2103  1.2249 -1.5936
17197THY    HM326009   4.816   6.656   2.601 -1.4512 -0.5025  1.3396
17197THY    CA626010   5.078   6.610   2.639  0.0668  0.1852  0.2442
17197THY    HA626011   5.045   6.522   2.585  4.6651 -0.9090 -1.0927
17198THY      O26012   8.753   3.542   6.102  0.4068 -0.0156  0.1184
17198THY     HO26013   8.836   3.538   6.051  0.2507 -0.2161 -1.0558
17198THY    CA126014   8.718   3.668   6.114  0.3237  0.5249 -0.5330
17198THY    CA226015   8.591   3.711   6.108  0.1999  0.6671 -0.5548
17198THY    CP126016   8.473   3.621   6.079 -0.2921  0.1148  0.8133
17198THY    HP126017   8.493   3.559   5.991 -2.3689  0.2516 -0.1243
17198THY    CP226018   8.337   3.692   6.036 -0.9307 -0.2012  0.0688
17198THY    HP226019   8.271   3.609   6.008 -1.0050  0.0395  0.0435
17198THY    HP326020   8.356   3.758   5.951 -1.3240 -1.2557 -1.1268
17198THY    HP426021   8.288   3.740   6.121  0.1896  0.6567 -0.2626
17198THY    CP326022   8.437   3.521   6.191  0.7508  0.2549 -0.3886
17198THY    HP526023   8.404   3.582   6.276 -1.6152 -0.4319 -0.6337
17198THY    HP626024   8.525   3.463   6.223  1.8491  0.9510  1.5695
17198THY    HP726025   8.372   3.441   6.153 -0.4045 -1.6816  1.3787
17198THY    CA326026   8.567   3.852   6.110 -0.3281  0.0284  0.6763
17198THY    HA326027   8.468   3.897   6.109 -0.4842  1.1371  0.3969
17198THY    CA426028   8.674   3.945   6.123  0.2791 -0.4513 -0.0184
17198THY    HA426029   8.657   4.051   6.135 -1.8287 -0.8395 -0.2824
17198THY    CA526030   8.809   3.892   6.118 -0.4115 -0.4584 -0.7744
17198THY    CM126031   8.927   3.981   6.163 -0.0171  0.0456 -0.4132
17198THY    HM126032   8.965   4.027   6.072  0.0540  0.7598  1.0061
17198THY    HM226033   9.013   3.942   6.219  1.8040 -1.3366  1.3596
17198THY    HM326034   8.875   4.060   6.219 -0.3247 -1.9144  0.8481
17198THY    CA626035   8.833   3.753   6.120  0.0027 -0.2543  0.0405
17198THY    HA626036   8.927   3.702   6.142  0.0397 -1.3000 -0.3571
17199THY      O26037   3.678   7.926   3.196 -0.1988 -0.2066  0.3967
17199THY     HO26038   3.745   7.924   3.125 -0.1541 -0.2256  1.6602
17199THY    CA126039   3.736   7.972   3.314  0.1515 -0.1141  0.1419
17199THY    CA226040   3.664   7.975   3.435 -1.8475 -0.3815  0.2726
17199THY    CP126041   3.519   7.943   3.433 -0.2051  0.2196 -0.8480
17199THY    HP126042   3.489   7.914   3.332  0.9298 -0.1157 -0.8970
17199THY    CP226043   3.426   8.060   3.470  0.5592 -0.2287 -0.5185
17199THY    HP226044   3.323   8.031   3.444  0.0358 -0.8301  1.7069
17199THY    HP326045   3.442   8.159   3.426 -2.0637 -1.6282 -0.6233
17199THY    HP426046   3.435   8.082   3.577  2.7187 -0.7761  1.7320
17199THY    CP326047   3.485   7.831   3.528 -0.0254  0.3385 -0.0640
17199THY    HP526048   3.380   7.806   3.504  0.1595 -1.5434  0.7624
17199THY    HP626049   3.489   7.846   3.636  0.3313  0.9486 -3.5695
17199THY    HP726050   3.555   7.749   3.509  0.9576 -1.6684  1.1704
17199THY    CA326051   3.733   7.994   3.554 -0.1271  0.6341  0.0821
17199THY    HA326052   3.678   7.990   3.647  2.1987  2.0617 -0.6408
17199THY    CA426053   3.870   8.018   3.560 -0.1447  0.4231 -0.4000
17199THY    HA426054   3.921   8.050   3.650 -1.1602  1.6247 -1.9883
17199THY    CA526055   3.939   8.026   3.437  0.0367  0.4484  0.2067
17199THY    CM126056   4.090   8.058   3.423 -0.6316  0.3889 -0.4807
17199THY    HM126057   4.154   8.041   3.511 -1.2326  0.6618 -1.4507
17199THY    HM226058   4.093   8.167   3.413 -1.9249  0.2860 -0.4386
17199THY    HM326059   4.137   7.999   3.343 -1.9739 -0.0797 -0.9601
17199THY    CA626060   3.875   7.999   3.317  0.0140 -0.7357 -0.8045
17199THY    HA626061   3.927   7.989   3.222  0.6553 -0.6522  1.2188
17200THY      O26062   3.659   8.103   2.344 -0.2170 -0.4021 -0.0268
17200THY     HO26063   3.669   8.126   2.438 -0.6267 -0.6557  1.2563
17200THY    CA126064   3.782   8.128   2.291  0.7209  0.0330 -0.0276
17200THY    CA226065   3.813   8.128   2.151  0.5522 -0.2450  0.1703
17200THY    CP126066   3.700   8.107   2.047  0.1421 -0.1435 -1.0418
17200THY    HP126067   3.607   8.086   2.100 -1.0227 -2.2432 -1.5020
17200THY    CP226068   3.712   7.983   1.963 -0.1564  0.3247 -0.5198
17200THY    HP226069   3.799   7.986   1.897  1.3505  2.2674 -0.2223
17200THY    HP326070   3.628   7.957   1.896 -1.0494  2.2347 -2.9686
17200THY    HP426071   3.716   7.897   2.031  0.4107  3.0507  1.5506
17200THY    CP326072   3.688   8.233   1.952 -0.1990 -0.6339  0.5426
17200THY    HP526073   3.605   8.219   1.882 -2.3185  1.5112  1.5845
17200THY    HP626074   3.783   8.254   1.902  0.8144  1.3841  0.9814
17200THY    HP726075   3.663   8.320   2.013  2.1618 -0.4185  1.1153
17200THY    CA326076   3.943   8.141   2.110 -0.1110 -0.4617  0.2048
17200THY    HA326077   3.968   8.143   2.005 -0.1786 -0.4774  0.2492
17200THY    CA426078   4.034   8.174   2.209 -0.3010  0.6854  0.0331
17200THY    HA426079   4.137   8.190   2.180  0.0946  1.6144 -0.7048
17200THY    CA526080   4.008   8.187   2.343  0.0080  0.5309 -0.3472
17200THY    CM126081   4.114   8.226   2.441  0.4230 -0.3172  0.0716
17200THY    HM126082   4.189   8.285   2.385  0.2411 -1.2675 -0.5700
17200THY    HM226083   4.152   8.132   2.481  2.8390  1.6377  1.7281
17200THY    HM326084   4.069   8.287   2.520  0.8065  0.5640 -0.7828
17200THY    CA626085   3.880   8.162   2.383 -0.0906 -0.5202  0.1200
17200THY    HA626086   3.858   8.168   2.489 -0.2879 -0.4756 -1.0678
17201THY      O26087   9.111   0.914   5.052 -0.2499  0.3609  0.0793
17201THY     HO26088   9.082   0.833   5.007  1.1974 -0.6075  0.0566
17201THY    CA126089   9.190   0.966   4.951  0.7558 -0.6368 -0.0333
17201THY    CA226090   9.299   1.048   4.980 -0.3702 -0.4311 -0.3230
17201THY    CP126091   9.298   1.118   5.117 -0.1853 -0.0113  0.1207
17201THY    HP126092   9.264   1.047   5.194 -1.7887  0.8472  1.7258
17201THY    CP226093   9.197   1.237   5.119 -0.1280 -0.1972  0.1056
17201THY    HP226094   9.114   1.213   5.051 -0.5576 -0.2398  1.6128
17201THY    HP326095   9.230   1.325   5.063  0.4481 -0.2694 -0.1497
17201THY    HP426096   9.163   1.262   5.220 -1.3565 -0.4772 -0.3629
17201THY    CP326097   9.437   1.167   5.163  0.5112 -0.8250  0.2070
17201THY    HP526098   9.518   1.097   5.142  1.1642 -1.6262  1.1760
17201THY    HP626099   9.423   1.190   5.269  0.0379 -0.8518  0.0601
17201THY    HP726100   9.480   1.259   5.122  0.0086 -0.7575  0.4751
17201THY    CA326101   9.371   1.097   4.867  0.6126  0.2549 -0.0569
17201THY    HA326102   9.438   1.182   4.872  1.2144 -0.5400 -0.4679
17201THY    CA426103   9.352   1.037   4.742 -0.0570  0.1650 -0.2678
17201THY    HA426104   9.404   1.088   4.662 -0.0981  0.0049 -0.4783
17201THY    CA526105   9.250   0.954   4.722 -0.1130  0.8772  0.0794
17201THY    CM126106   9.216   0.890   4.588  0.5450 -0.4050  0.7188
17201THY    HM126107   9.235   0.784   4.604 -2.0925 -0.4600  0.1618
17201THY    HM226108   9.268   0.936   4.503 -0.5371 -1.8406 -0.6069
17201THY    HM326109   9.109   0.888   4.565  0.7328 -1.8911  3.0714
17201THY    CA626110   9.171   0.918   4.825 -0.1511  0.5230 -0.0611
17201THY    HA626111   9.105   0.834   4.804 -0.0589  1.0744 -0.2811
17202THY      O26112   3.976   8.926   3.756 -0.3046  0.1356 -0.2809
17202THY     HO26113   3.937   8.843   3.789  0.1261  0.7449 -0.2460
17202THY    CA126114   3.904   8.967   3.645  0.0752 -1.0459  0.8474
17202THY    CA226115   3.957   9.053   3.548 -0.0078  0.4482 -0.0334
17202THY    CP126116   4.095   9.119   3.554 -0.9213 -0.3266 -0.5602
17202THY    HP126117   4.147   9.078   3.641  0.1331 -1.4933 -1.7895
17202THY    CP226118   4.101   9.271   3.574 -0.3159  0.5957  0.0163
17202THY    HP226119   4.058   9.305   3.669  0.3470  0.5653  0.9880
17202THY    HP326120   4.073   9.330   3.486 -0.2343 -0.8368 -1.9920
17202THY    HP426121   4.207   9.296   3.589  0.1779  1.2274 -2.2374
17202THY    CP326122   4.188   9.079   3.440 -0.4500  1.1405 -0.3778
17202THY    HP526123   4.139   9.109   3.346 -1.7776  0.9753 -2.7908
17202THY    HP626124   4.214   8.972   3.437  0.1399 -3.4688 -0.3119
17202THY    HP726125   4.284   9.130   3.448 -0.5134 -2.3669  0.5673
17202THY    CA326126   3.866   9.083   3.443 -0.1491 -0.0354 -0.3165
17202THY    HA326127   3.898   9.157   3.371  1.1099 -0.3505 -1.1566
17202THY    CA426128   3.737   9.030   3.435 -0.8868 -0.3171  0.4931
17202THY    HA426129   3.670   9.044   3.350 -3.0039  0.7449 -2.1384
17202THY    CA526130   3.692   8.948   3.545  0.5889 -0.7329 -0.0890
17202THY    CM126131   3.548   8.897   3.536  0.1340  0.1148 -0.5297
17202THY    HM126132   3.473   8.977   3.524  1.6648 -0.5650  0.8690
17202THY    HM226133   3.521   8.843   3.627 -1.2711 -0.1362 -0.2957
17202THY    HM326134   3.532   8.839   3.445 -0.5704 -0.4449  0.4968
17202THY    CA626135   3.782   8.908   3.640 -0.0032 -0.3462  0.4966
17202THY    HA626136   3.740   8.853   3.724  2.8787  0.1601 -1.1455
17203THY      O26137   4.771   2.452   7.291  0.2570 -0.1896  0.0629
17203THY     HO26138   4.829   2.507   7.346  1.9025 -1.7699  0.0039
17203THY    CA126139   4.846   2.393   7.194 -0.2518  0.0859 -0.0610
17203THY    CA226140   4.800   2.293   7.094 -0.3728  0.0377 -1.1629
17203THY    CP126141   4.651   2.261   7.085  0.7433  0.1171 -0.2483
17203THY    HP126142   4.595   2.297   7.172 -1.0569 -0.4134 -1.6094
17203THY    CP226143   4.625   2.115   7.089 -0.1522 -0.5287  0.0224
17203THY    HP226144   4.704   2.055   7.043  0.0819 -3.2476  2.2266
17203THY    HP326145   4.528   2.086   7.046  1.0708 -1.9808 -2.1178
17203THY    HP426146   4.619   2.075   7.191  1.4196 -1.4049 -2.6524
17203THY    CP326147   4.596   2.333   6.962  0.3176 -0.4147  0.5468
17203THY    HP526148   4.601   2.442   6.978  0.1901 -3.2142  1.0260
17203THY    HP626149   4.491   2.308   6.948  0.5980 -1.3999 -0.1281
17203THY    HP726150   4.651   2.290   6.878 -0.6465  0.2387 -2.1658
17203THY    CA326151   4.901   2.240   7.012 -0.3880  0.8470 -0.2266
17203THY    HA326152   4.873   2.157   6.946 -0.2221  0.0067  0.3700
17203THY    CA426153   5.041   2.273   7.022 -0.7341  0.2997  0.3715
17203THY    HA426154   5.117   2.233   6.955  0.2551 -0.8955  3.9101
17203THY    CA526155   5.076   2.367   7.113  0.0633 -0.8334 -0.1426
17203THY    CM126156   5.222   2.415   7.122 -0.0135  0.2795 -0.9255
17203THY    HM126157   5.264   2.409   7.021 -0.5371 -0.1750  1.7724
17203THY    HM226158   5.284   2.356   7.190  1.4702  1.8682  2.2123
17203THY    HM326159   5.238   2.515   7.165  2.6455 -1.4027 -0.4993
17203THY    CA626160   4.982   2.426   7.194 -0.6195 -0.7008  1.0512
17203THY    HA626161   5.025   2.491   7.270 -0.7285 -1.2086  1.7341
17204THY      O26162   8.289   7.964   2.602  0.4194  0.4543 -0.1338
17204THY     HO26163   8.247   7.878   2.586 -0.2099 -2.5050  0.6089
17204THY    CA126164   8.365   7.956   2.713  0.2742  0.2968 -0.7094
17204THY    CA226165   8.390   8.069   2.793  0.2870 -0.9534 -0.6231
17204THY    CP126166   8.323   8.202   2.758  0.4175  0.0111  0.0476
17204THY    HP126167   8.281   8.200   2.657  1.5524 -0.5330  1.3781
17204THY    CP226168   8.420   8.326   2.770  0.5787 -0.7571  0.4340
17204THY    HP226169   8.358   8.413   2.744 -0.4244  0.6853  0.1893
17204THY    HP326170   8.512   8.320   2.710  1.7673  0.7904  1.9407
17204THY    HP426171   8.444   8.337   2.877 -0.8997 -0.4187  0.5489
17204THY    CP326172   8.206   8.231   2.852  0.4085 -0.0438  0.6173
17204THY    HP526173   8.154   8.322   2.820 -1.9806 -0.7932 -0.9310
17204THY    HP626174   8.230   8.247   2.958  1.1872  0.2452 -2.0482
17204THY    HP726175   8.126   8.158   2.839  0.2671 -0.1837  0.7941
17204THY    CA326176   8.470   8.051   2.911 -0.0436  0.3490 -0.0098
17204THY    HA326177   8.483   8.139   2.973  0.7198 -1.6235  1.3447
17204THY    CA426178   8.515   7.923   2.949 -0.0742  0.0606  0.0592
17204THY    HA426179   8.578   7.908   3.036  1.1581 -1.0011 -1.1639
17204THY    CA526180   8.511   7.828   2.849  0.1202  0.6210  0.2355
17204THY    CM126181   8.590   7.704   2.862 -0.9354  0.2895  0.6153
17204THY    HM126182   8.693   7.711   2.825 -0.1024  1.9503 -1.5301
17204THY    HM226183   8.540   7.628   2.800 -0.9164  0.3995  0.5140
17204THY    HM326184   8.601   7.651   2.957 -0.8814 -0.6480 -1.1411
17204THY    CA626185   8.419   7.838   2.740  0.2692 -0.0829  0.5359
17204THY    HA626186   8.405   7.750   2.678  2.9473 -0.8106  0.5184
17205THY      O26187   5.200   7.002   3.930  0.4740  0.0849  0.1876
17205THY     HO26188   5.200   7.009   4.027  0.8660  0.2371 -1.4039
17205THY    CA126189   5.331   7.023   3.897  0.5169  0.2928  0.2376
17205THY    CA226190   5.389   7.008   3.770  0.5781 -0.3133 -0.3788
17205THY    CP126191   5.301   6.981   3.649  0.4883  0.2276 -0.0389
17205THY    HP126192   5.198   6.959   3.679  0.0058 -1.0887  0.3307
17205THY    CP226193   5.355   6.861   3.564  0.1406  0.8601  0.2498
17205THY    HP226194   5.452   6.881   3.518 -0.7821 -1.7493 -0.8649
17205THY    HP326195   5.293   6.834   3.478  0.0296  0.3869  1.9442
17205THY    HP426196   5.358   6.774   3.631  0.0457  1.3701  0.6366
17205THY    CP326197   5.282   7.103   3.561 -0.9452 -0.1156  0.5739
17205THY    HP526198   5.232   7.182   3.620 -2.4009 -0.3643 -0.1403
17205THY    HP626199   5.225   7.078   3.471 -0.3915 -0.2246 -0.3330
17205THY    HP726200   5.384   7.131   3.532 -1.4227 -2.0392  0.4607
17205THY    CA326201   5.530   7.024   3.762 -0.4582 -0.3199  0.3883
17205THY    HA326202   5.581   7.009   3.668 -1.6522 -1.4450  2.7822
17205THY    CA426203   5.601   7.046   3.876  0.5090 -0.4821  0.4767
17205THY    HA426204   5.708   7.050   3.861  0.5817 -0.9954 -1.8373
17205THY    CA526205   5.538   7.057   4.007 -1.2405  0.4066  0.0437
17205THY    CM126206   5.617   7.072   4.130 -0.6937 -0.0379  0.3632
17205THY    HM126207   5.607   6.981   4.191 -1.3231 -0.3277  0.2330
17205THY    HM226208   5.584   7.149   4.200  0.4822  0.7274  0.2067
17205THY    HM326209   5.725   7.061   4.114 -0.4488 -0.2609  2.6309
17205THY    CA626210   5.399   7.044   4.013 -0.4779 -0.2183  0.2485
17205THY    HA626211   5.351   7.057   4.109 -1.2469 -0.7517  1.5722
17206THY      O26212   1.022   8.189   4.374 -0.1956  0.5897 -0.4760
17206THY     HO26213   1.095   8.133   4.406  2.1940 -0.8733  1.5998
17206THY    CA126214   1.016   8.166   4.242 -0.2392  0.7049  0.0656
17206THY    CA226215   0.938   8.235   4.153  0.3488 -0.3942  0.1636
17206THY    CP126216   0.861   8.361   4.187 -0.2655 -0.2213 -0.4165
17206THY    HP126217   0.893   8.389   4.288  1.5912 -0.1985 -2.3160
17206THY    CP226218   0.715   8.342   4.194  0.0554  0.1789  0.5210
17206THY    HP226219   0.713   8.236   4.221  1.0594  1.2348  0.7652
17206THY    HP326220   0.674   8.363   4.094  0.6435  0.1731  1.7382
17206THY    HP426221   0.669   8.414   4.263 -1.1218 -1.0811  1.0344
17206THY    CP326222   0.886   8.482   4.096  0.0116  1.0561 -0.3845
17206THY    HP526223   0.819   8.566   4.120  0.9119 -0.4112  0.8161
17206THY    HP626224   0.867   8.455   3.991  3.3731  0.4275 -0.7404
17206THY    HP726225   0.989   8.517   4.112 -0.4751  1.3680  0.9772
17206THY    CA326226   0.931   8.197   4.013  0.1504 -0.1548 -0.7988
17206THY    HA326227   0.852   8.244   3.955 -0.1672  0.7935 -0.1260
17206THY    CA426228   1.013   8.086   3.970  0.4522  0.5646  0.4622
17206THY    HA426229   1.009   8.053   3.867  1.4377  0.9372 -0.9202
17206THY    CA526230   1.108   8.027   4.059  0.5026 -0.7159  0.0884
17206THY    CM126231   1.193   7.910   4.011  0.6655 -0.4302  0.0250
17206THY    HM126232   1.249   7.947   3.925  1.1886  0.3552  1.1284
17206THY    HM226233   1.131   7.825   3.978  1.8346  1.4700 -1.6503
17206THY    HM326234   1.257   7.881   4.095  0.9007  0.9032  3.8318
17206THY    CA626235   1.099   8.060   4.193 -0.2411 -0.0835 -0.4802
17206THY    HA626236   1.155   7.997   4.262  1.7160 -1.6359 -0.5378
17207THY      O26237   8.268   5.961   3.454  0.1562 -0.1097  0.1121
17207THY     HO26238   8.330   6.013   3.401  0.2575 -3.3234 -2.8869
17207THY    CA126239   8.225   6.044   3.554  0.9103  0.5228  0.1230
17207THY    CA226240   8.091   6.050   3.603  0.2309  0.1737 -0.3035
17207THY    CP126241   7.986   5.950   3.554 -0.0792  0.7206  0.0461
17207THY    HP126242   8.036   5.870   3.498  0.9875  1.3154  0.2772
17207THY    CP226243   7.872   6.009   3.472 -0.5779 -0.1397  0.2371
17207THY    HP226244   7.825   5.925   3.419  1.5899 -0.5636 -0.7703
17207THY    HP326245   7.906   6.072   3.388 -0.2278 -2.7620 -3.1721
17207THY    HP426246   7.804   6.062   3.540 -0.5833 -0.1385  0.2287
17207THY    CP326247   7.929   5.886   3.674  0.3013  0.6243 -0.0818
17207THY    HP526248   8.007   5.824   3.722  0.5089 -2.7218 -2.6698
17207THY    HP626249   7.845   5.821   3.648 -0.3344 -0.7530  1.2452
17207THY    HP726250   7.884   5.965   3.736 -0.1393  1.5071 -0.9897
17207THY    CA326251   8.059   6.158   3.693 -0.4952 -0.6711  0.2549
17207THY    HA326252   7.961   6.178   3.734 -0.3128 -0.7810  1.4574
17207THY    CA426253   8.159   6.249   3.720  0.6272 -0.3778 -0.4148
17207THY    HA426254   8.133   6.336   3.780  1.6504 -2.7696  1.6593
17207THY    CA526255   8.286   6.239   3.667 -0.6234 -0.0246  0.3085
17207THY    CM126256   8.391   6.329   3.705 -0.4081 -0.3792  0.0072
17207THY    HM126257   8.356   6.391   3.788 -1.1984 -0.3235 -0.5001
17207THY    HM226258   8.413   6.388   3.615 -0.8060 -0.8426 -0.5282
17207THY    HM326259   8.478   6.274   3.744 -1.3795  1.0086 -0.5839
17207THY    CA626260   8.317   6.131   3.588  0.5011  0.3821 -0.2050
17207THY    HA626261   8.421   6.122   3.556  0.8461  0.5240  2.4332
17208THY      O26262   1.946   0.923   4.190  0.2437  0.2847  0.0732
17208THY     HO26263   1.937   0.929   4.093 -1.5077  0.5160  2.1788
17208THY    CA126264   1.826   0.879   4.237  0.0606  0.3322 -0.3450
17208THY    CA226265   1.799   0.863   4.377  0.4142  0.0827 -0.0651
17208THY    CP126266   1.899   0.905   4.490 -0.2573  0.6683  0.5351
17208THY    HP126267   2.004   0.915   4.460 -0.1806  0.6710 -0.1859
17208THY    CP226268   1.905   0.797   4.600 -0.0363 -0.2467  0.4513
17208THY    HP226269   1.990   0.819   4.665 -1.1650  0.7943  1.9455
17208THY    HP326270   1.905   0.701   4.546 -4.7067  2.9395 -1.7849
17208THY    HP426271   1.810   0.802   4.655 -0.8958 -1.6341  0.0206
17208THY    CP326272   1.856   1.038   4.547 -0.1486  0.0334 -0.4400
17208THY    HP526273   1.936   1.081   4.608 -2.8637  0.7597  4.2852
17208THY    HP626274   1.778   1.024   4.623  1.6775  1.8677 -1.1761
17208THY    HP726275   1.837   1.115   4.472 -0.8990  0.0140 -0.6352
17208THY    CA326276   1.669   0.815   4.413 -0.0700  0.1324  0.6123
17208THY    HA326277   1.640   0.810   4.518 -1.0414 -0.1229  0.6473
17208THY    CA426278   1.579   0.773   4.318  0.2190  0.2848 -0.2710
17208THY    HA426279   1.484   0.731   4.349 -0.0502 -0.0834  0.0709
17208THY    CA526280   1.605   0.790   4.182 -0.2520 -0.0977 -0.3393
17208THY    CM126281   1.510   0.735   4.074  0.1259 -0.3219 -0.1824
17208THY    HM126282   1.406   0.749   4.105  0.0084  0.4524 -2.3371
17208THY    HM226283   1.513   0.629   4.046 -4.4338 -1.4376 -0.2227
17208THY    HM326284   1.523   0.784   3.977  0.6445 -0.6728 -0.9890
17208THY    CA626285   1.732   0.841   4.145 -0.8546  0.2033  0.3269
17208THY    HA626286   1.755   0.833   4.039 -1.7121 -0.0340  0.8595
17209THY      O26287   6.695   8.975   2.550 -0.4989 -0.2765 -0.1917
17209THY     HO26288   6.753   8.902   2.520  0.3070  1.8628 -0.4948
17209THY    CA126289   6.604   8.912   2.625  0.1802  0.5309  0.1463
17209THY    CA226290   6.510   8.967   2.709  0.2913  0.7711 -0.1943
17209THY    CP126291   6.505   9.117   2.719 -0.9374 -0.6841 -0.1388
17209THY    HP126292   6.557   9.168   2.638 -1.8784 -0.6063  1.0027
17209THY    CP226293   6.587   9.171   2.846  0.2199 -0.1445 -0.6143
17209THY    HP226294   6.554   9.135   2.944  1.2257  0.2256 -0.5555
17209THY    HP326295   6.589   9.280   2.842 -0.7662 -0.4598 -0.5998
17209THY    HP426296   6.692   9.139   2.841 -0.2897 -1.3747 -2.2411
17209THY    CP326297   6.364   9.185   2.715  0.0286  0.0994 -0.1066
17209THY    HP526298   6.306   9.177   2.622  0.7708 -0.3329 -0.5911
17209THY    HP626299   6.372   9.294   2.728 -0.7593  1.2330 -0.1716
17209THY    HP726300   6.293   9.150   2.790  1.0599 -0.1987 -3.0906
17209THY    CA326301   6.432   8.887   2.795  0.3735  0.1383 -0.2367
17209THY    HA326302   6.366   8.931   2.869 -0.6009  0.5319 -2.2597
17209THY    CA426303   6.443   8.748   2.788  0.1082 -0.2770  0.2730
17209THY    HA426304   6.387   8.680   2.851 -1.3598  0.5723  2.1827
17209THY    CA526305   6.530   8.692   2.705  0.5511  0.1541 -0.2428
17209THY    CM126306   6.537   8.547   2.689 -0.0721 -0.9427  0.8500
17209THY    HM126307   6.487   8.511   2.598  0.0367 -0.2236 -1.2883
17209THY    HM226308   6.491   8.494   2.773  1.1687 -0.2351  0.8610
17209THY    HM326309   6.640   8.510   2.682 -0.8275 -0.1652 -1.6005
17209THY    CA626310   6.611   8.776   2.623 -0.5117 -0.1164  0.3746
17209THY    HA626311   6.685   8.719   2.568 -0.1843  0.6403  0.0449
17210THY      O26312   3.430   0.883   3.331  0.1462 -0.2598 -1.0757
17210THY     HO26313   3.424   0.933   3.248  2.3173 -0.5122 -1.1478
17210THY    CA126314   3.357   0.951   3.433 -0.1736  0.0793 -0.1561
17210THY    CA226315   3.273   0.873   3.518 -0.4005 -0.1192 -0.4704
17210THY    CP126316   3.256   0.722   3.497 -0.0697 -0.6195  0.5896
17210THY    HP126317   3.307   0.688   3.405  1.6803  0.3321  0.5146
17210THY    CP226318   3.105   0.694   3.462  0.0622 -0.2297 -0.0479
17210THY    HP226319   3.092   0.728   3.359 -0.0138 -0.0921  0.3378
17210THY    HP326320   3.031   0.744   3.524  0.7452 -1.1845  2.2549
17210THY    HP426321   3.084   0.586   3.456 -0.3017 -0.6313  0.0430
17210THY    CP326322   3.297   0.616   3.604  0.5658 -0.1542  0.4621
17210THY    HP526323   3.212   0.602   3.672  1.0456  0.5690  1.0070
17210THY    HP626324   3.381   0.653   3.664 -0.8486  0.5544  2.7507
17210THY    HP726325   3.311   0.520   3.554 -0.7930 -1.3903  0.8668
17210THY    CA326326   3.211   0.940   3.622 -0.3207  0.0062  0.2578
17210THY    HA326327   3.164   0.879   3.699  0.2752 -0.1877 -0.4727
17210THY    CA426328   3.214   1.082   3.626  0.5969 -0.5316 -0.4391
17210THY    HA426329   3.170   1.133   3.711  1.1954 -1.1269  1.1457
17210THY    CA526330   3.292   1.156   3.536  0.7811  0.0083  0.4600
17210THY    CM126331   3.311   1.300   3.542 -0.3400 -0.8015  0.2031
17210THY    HM126332   3.219   1.359   3.553  0.5513 -0.3586  1.5681
17210THY    HM226333   3.351   1.344   3.450  2.3014  0.3174  0.2841
17210THY    HM326334   3.382   1.328   3.620 -0.2012  0.0404 -2.2439
17210THY    CA626335   3.366   1.089   3.439  0.0785 -0.4349  0.0765
17210THY    HA626336   3.431   1.144   3.371  1.9391  1.1049 -0.0912
17211THY      O26337   6.142   8.860   2.644  0.4206 -0.6271 -0.1276
17211THY     HO26338   6.228   8.903   2.630 -0.8310  0.8957  3.2497
17211THY    CA126339   6.154   8.755   2.558 -0.5819  0.6265  0.4646
17211THY    CA226340   6.052   8.660   2.527 -0.0683 -0.1774  0.1208
17211THY    CP126341   5.928   8.665   2.614 -0.1503  0.5094 -0.1867
17211THY    HP126342   5.890   8.767   2.626 -2.2131 -0.2520 -0.8212
17211THY    CP226343   5.952   8.603   2.752  0.1670  0.2963  0.1330
17211THY    HP226344   6.041   8.646   2.799 -0.4413 -0.0764  1.8799
17211THY    HP326345   5.970   8.496   2.739  0.2047  0.6262  0.0994
17211THY    HP426346   5.871   8.617   2.824 -0.5013 -0.4428  0.1192
17211THY    CP326347   5.814   8.593   2.552  0.2658 -0.0026 -0.7835
17211THY    HP526348   5.831   8.488   2.525 -2.1732  1.9155 -1.7901
17211THY    HP626349   5.796   8.641   2.456  0.3815  1.0295  1.4505
17211THY    HP726350   5.724   8.591   2.616  1.4530  1.7848 -3.8531
17211THY    CA326351   6.077   8.573   2.420 -0.4127  0.6269  1.1440
17211THY    HA326352   5.996   8.511   2.382  0.5517  0.2489  0.0618
17211THY    CA426353   6.206   8.571   2.353  0.5594 -0.4252 -0.1436
17211THY    HA426354   6.217   8.503   2.269  1.5439 -0.9412  0.6212
17211THY    CA526355   6.309   8.650   2.398 -0.2841  0.0444  0.2709
17211THY    CM126356   6.446   8.652   2.326  0.3253  0.3565  0.1168
17211THY    HM126357   6.489   8.752   2.320 -1.2268 -1.8789  0.7426
17211THY    HM226358   6.425   8.605   2.228 -0.2943  1.9099 -3.1511
17211THY    HM326359   6.506   8.575   2.376  1.2320 -0.2495  0.4012
17211THY    CA626360   6.278   8.751   2.487 -0.6900 -0.3438  0.5440
17211THY    HA626361   6.363   8.816   2.508  1.4139  0.0844 -2.1556
17212THY      O26362   5.275   0.394   5.198 -0.0533  0.3655 -0.3110
17212THY     HO26363   5.259   0.482   5.159  0.6499  0.3864 -0.1670
17212THY    CA126364   5.188   0.312   5.134 -0.0486  0.2897 -0.1872
17212THY    CA226365   5.234   0.216   5.042  0.0035  0.4292  0.4745
17212THY    CP126366   5.385   0.218   5.008  0.5694  0.3627 -0.5269
17212THY    HP126367   5.447   0.250   5.092 -2.2521  1.7383  1.8464
17212THY    CP226368   5.395   0.319   4.895  0.4696  0.2667  0.7770
17212THY    HP226369   5.502   0.338   4.881  0.9894  1.3010 -1.1319
17212THY    HP326370   5.361   0.412   4.943  2.6910  3.7504 -0.0043
17212THY    HP426371   5.326   0.308   4.811 -1.5618  2.0640 -1.4560
17212THY    CP326372   5.427   0.085   4.951 -0.4383  0.3637  0.4480
17212THY    HP526373   5.397   0.003   5.018  0.1065 -0.8354 -0.7789
17212THY    HP626374   5.537   0.079   4.947 -0.5039 -1.4380 -0.1800
17212THY    HP726375   5.394   0.063   4.849  1.1827  0.2849 -2.0893
17212THY    CA326376   5.136   0.125   4.986 -0.1469 -0.3435  0.0937
17212THY    HA326377   5.161   0.047   4.916  0.6632 -0.2472  0.2597
17212THY    CA426378   5.001   0.138   5.024  0.2578 -0.4082  0.6104
17212THY    HA426379   4.929   0.066   4.986 -0.7244  1.4141  0.5551
17212THY    CA526380   4.962   0.243   5.108 -0.1403  0.3067  1.0983
17212THY    CM126381   4.816   0.262   5.137 -0.0448  0.0810  0.0536
17212THY    HM126382   4.806   0.322   5.228 -0.7487  0.4284 -0.5741
17212THY    HM226383   4.766   0.168   5.161  0.2301 -0.3356 -0.2037
17212THY    HM326384   4.762   0.307   5.053 -1.3027 -0.5345 -2.3969
17212THY    CA626385   5.057   0.325   5.171 -0.2670  0.3085  0.0597
17212THY    HA626386   5.022   0.404   5.237  1.1828  0.5050  0.5775
17213THY      O26387   4.695   8.630   3.176 -0.1839  0.4441 -0.1606
17213THY     HO26388   4.631   8.652   3.106 -0.5188  0.4288 -1.1152
17213THY    CA126389   4.820   8.633   3.120  0.3537  0.0228  0.1831
17213THY    CA226390   4.935   8.638   3.198 -0.3496 -0.3422  0.6633
17213THY    CP126391   4.927   8.654   3.353 -0.1769  0.0146 -0.1040
17213THY    HP126392   4.822   8.679   3.372 -0.4942  0.0845 -1.3782
17213THY    CP226393   5.032   8.748   3.407  0.1505 -0.4275 -0.4888
17213THY    HP226394   5.022   8.841   3.351 -1.0023  1.2984  0.4747
17213THY    HP326395   5.133   8.713   3.384  1.6321  0.0832  3.0778
17213THY    HP426396   5.017   8.772   3.513 -0.0627 -0.6909  0.5638
17213THY    CP326397   4.946   8.520   3.423  0.5852 -0.3835  0.8097
17213THY    HP526398   4.871   8.445   3.394  2.4355  1.1261 -1.8003
17213THY    HP626399   4.933   8.539   3.530 -0.6497 -0.2528 -0.5714
17213THY    HP726400   5.046   8.481   3.400  0.7746  1.3063  0.2285
17213THY    CA326401   5.056   8.641   3.131  0.3601  0.2967 -0.1638
17213THY    HA326402   5.152   8.638   3.183  0.8704 -0.6231 -0.1682
17213THY    CA426403   5.057   8.636   2.993 -0.0646 -0.6283 -0.4601
17213THY    HA426404   5.153   8.646   2.943  0.0175 -0.0176  3.2710
17213THY    CA526405   4.939   8.642   2.915 -0.5163 -0.3195 -0.5760
17213THY    CM126406   4.940   8.645   2.761  0.3228  0.2024 -0.2684
17213THY    HM126407   4.847   8.604   2.722 -0.9667  0.9376  1.7821
17213THY    HM226408   5.028   8.581   2.744  0.3324  1.4606 -0.6254
17213THY    HM326409   4.947   8.748   2.724 -3.3209 -0.5390 -0.1507
17213THY    CA626410   4.823   8.633   2.985 -0.5128 -0.1672  0.3045
17213THY    HA626411   4.728   8.626   2.933 -0.2164 -0.5011 -3.3909
17214THY      O26412   5.207   4.233   5.996  0.3865  0.0127  0.0729
17214THY     HO26413   5.217   4.329   5.988  2.7422  1.4296  0.0260
17214THY    CA126414   5.283   4.189   5.891  0.2632  0.5774  0.4757
17214THY    CA226415   5.291   4.052   5.855 -0.1131  1.0402 -0.5154
17214THY    CP126416   5.226   3.942   5.939 -0.1790 -0.0912 -0.0724
17214THY    HP126417   5.160   3.988   6.013 -1.9188  0.2629 -2.8963
17214THY    CP226418   5.330   3.877   6.033 -0.8440  0.0530 -0.1439
17214THY    HP226419   5.399   3.819   5.970  1.5287  0.4306  2.1045
17214THY    HP326420   5.282   3.812   6.108 -1.4115 -1.4744 -1.5599
17214THY    HP426421   5.389   3.956   6.079  0.0191 -0.7658 -0.2957
17214THY    CP326422   5.154   3.849   5.841  0.4740 -0.2013 -0.1208
17214THY    HP526423   5.226   3.774   5.807 -1.1666 -2.7398 -0.6808
17214THY    HP626424   5.121   3.911   5.757 -1.8329  1.2755  0.7860
17214THY    HP726425   5.072   3.791   5.886  0.1213  0.8461  1.1523
17214THY    CA326426   5.381   4.018   5.749 -0.6079  0.7785 -0.1644
17214THY    HA326427   5.387   3.914   5.718 -2.5169  1.0225 -0.3876
17214THY    CA426428   5.438   4.115   5.667  0.4143  0.6387 -0.3813
17214THY    HA426429   5.487   4.098   5.572 -0.7903 -0.4328  1.6940
17214THY    CA526430   5.430   4.248   5.714 -0.3192 -0.9523  0.1940
17214THY    CM126431   5.471   4.359   5.622  0.5245 -0.2766  0.3317
17214THY    HM126432   5.561   4.407   5.663  0.0720  0.6911  0.3765
17214THY    HM226433   5.392   4.435   5.610  0.7270 -1.9735  0.3042
17214THY    HM326434   5.497   4.314   5.526 -1.7087 -0.7249 -0.1140
17214THY    CA626435   5.348   4.288   5.821 -0.4018  0.2407 -0.6499
17214THY    HA626436   5.331   4.392   5.846  2.3320  1.2273 -0.3541
17215THY      O26437   6.374   6.992   3.997 -0.5408  0.6316 -0.1219
17215THY     HO26438   6.428   6.990   3.917 -1.5027 -0.0472  0.1625
17215THY    CA126439   6.366   6.862   4.038 -0.0174 -0.2812 -0.3869
17215THY    CA226440   6.319   6.831   4.167  0.4370 -0.4566 -0.4720
17215THY    CP126441   6.289   6.942   4.263 -0.3648  0.5266 -0.5278
17215THY    HP126442   6.319   7.040   4.223  2.5366 -0.1627 -1.5852
17215THY    CP226443   6.349   6.932   4.407  0.3716  0.0882 -0.2052
17215THY    HP226444   6.370   6.827   4.429 -2.2918 -0.1798 -0.8451
17215THY    HP326445   6.279   6.981   4.475 -3.5008 -2.0646 -2.2988
17215THY    HP426446   6.446   6.984   4.409  0.2260 -0.4529  0.1036
17215THY    CP326447   6.139   6.950   4.276 -0.6417 -0.1437 -0.1108
17215THY    HP526448   6.091   6.949   4.177  1.4085 -1.3081 -4.2591
17215THY    HP626449   6.124   7.041   4.335  0.9057  0.9968 -0.5475
17215THY    HP726450   6.099   6.864   4.331 -0.0842 -1.0836 -1.0025
17215THY    CA326451   6.303   6.694   4.210  0.1272  0.6922 -0.1239
17215THY    HA326452   6.266   6.666   4.308 -0.3319  0.3045 -0.9202
17215THY    CA426453   6.349   6.598   4.115 -0.3665 -0.4449  0.4552
17215THY    HA426454   6.329   6.494   4.139  3.4553  1.2173 -0.0596
17215THY    CA526455   6.386   6.635   3.986 -0.3388 -0.3198 -0.0062
17215THY    CM126456   6.406   6.525   3.886  0.0398 -0.6160 -0.0166
17215THY    HM126457   6.513   6.508   3.868  0.1716 -0.0104  0.1249
17215THY    HM226458   6.368   6.556   3.788  0.5312 -0.2643  1.8140
17215THY    HM326459   6.353   6.434   3.917 -0.7616 -4.4179 -0.9910
17215THY    CA626460   6.395   6.764   3.950  0.0946  0.2213 -0.6774
17215THY    HA626461   6.425   6.790   3.848  3.4180  1.2526 -0.0203
17216THY      O26462   4.733   6.769   4.602 -0.4476  0.1245  0.0268
17216THY     HO26463   4.770   6.833   4.666 -0.1017  2.3444 -2.2278
17216THY    CA126464   4.828   6.671   4.593  0.2793 -0.4178  0.1535
17216THY    CA226465   4.793   6.542   4.572  0.4598  0.0452 -0.2291
17216THY    CP126466   4.647   6.501   4.559  1.4243 -0.8206  0.3067
17216THY    HP126467   4.590   6.586   4.598 -0.2202 -1.5470 -0.4156
17216THY    CP226468   4.613   6.369   4.627 -0.0095  0.5530 -0.6837
17216THY    HP226469   4.504   6.363   4.631 -0.0965  0.5637  0.5843
17216THY    HP326470   4.649   6.374   4.730  0.7764  0.2821 -0.5668
17216THY    HP426471   4.666   6.282   4.586  3.4296  1.7985  0.6676
17216THY    CP326472   4.616   6.502   4.407  0.0681  0.1286 -0.3067
17216THY    HP526473   4.687   6.436   4.356 -0.4055 -0.6285 -0.2475
17216THY    HP626474   4.629   6.601   4.361  1.8104 -0.5156 -0.7936
17216THY    HP726475   4.513   6.466   4.396 -1.5064  4.2368  2.1922
17216THY    CA326476   4.899   6.444   4.574  0.0371 -0.4736  0.0242
17216THY    HA326477   4.880   6.338   4.557  0.2012 -0.3071 -0.0323
17216THY    CA426478   5.035   6.477   4.598  0.5818 -0.1422  0.7474
17216THY    HA426479   5.118   6.407   4.591  0.7645 -0.6945  1.0085
17216THY    CA526480   5.065   6.615   4.616  0.4924 -0.2899  0.4456
17216THY    CM126481   5.204   6.668   4.632  0.5047  0.5391  0.1109
17216THY    HM126482   5.216   6.766   4.585  1.2580  0.3575 -0.0620
17216THY    HM226483   5.270   6.600   4.576 -2.2313  0.0401 -2.3163
17216THY    HM326484   5.243   6.678   4.734 -0.9186  0.8749  3.7138
17216THY    CA626485   4.965   6.708   4.605  0.2588 -0.4440  0.7981
17216THY    HA626486   4.998   6.811   4.619  3.1427  2.0109 -0.3211
17217THY      O26487   2.211   8.422   2.364  0.0550  0.0241 -0.7254
17217THY     HO26488   2.216   8.371   2.282 -0.1421  0.7898 -2.0215
17217THY    CA126489   2.332   8.476   2.390  0.0082 -0.3600  0.9476
17217THY    CA226490   2.368   8.514   2.519  0.8546  0.2805 -0.0368
17217THY    CP126491   2.265   8.488   2.632 -0.2538 -0.4834 -0.0598
17217THY    HP126492   2.166   8.457   2.594  0.4949 -0.8102 -2.2573
17217THY    CP226493   2.260   8.607   2.737  0.3736 -0.1194  0.2652
17217THY    HP226494   2.340   8.601   2.812 -1.4169  1.9448  0.7645
17217THY    HP326495   2.165   8.603   2.791 -1.5180 -3.2019  0.1133
17217THY    HP426496   2.269   8.701   2.682 -0.1512 -0.4925  0.0998
17217THY    CP326497   2.303   8.371   2.726 -0.4365  0.1380  0.3059
17217THY    HP526498   2.286   8.272   2.683  1.8957  1.1982 -0.6260
17217THY    HP626499   2.242   8.358   2.816 -0.9237  0.1129  2.0869
17217THY    HP726500   2.410   8.368   2.753 -0.5041  0.3306 -1.7677
17217THY    CA326501   2.492   8.585   2.534  0.1338  0.0228  0.1284
17217THY    HA326502   2.530   8.617   2.631  2.4858 -0.4662 -0.9749
17217THY    CA426503   2.579   8.594   2.423 -0.3517  0.3690  0.4162
17217THY    HA426504   2.683   8.619   2.442 -0.1513  1.8203 -1.3641
17217THY    CA526505   2.545   8.542   2.299 -0.0476 -0.1994 -0.0999
17217THY    CM126506   2.653   8.535   2.189 -1.0043 -0.1173  0.5889
17217THY    HM126507   2.670   8.639   2.159  1.5959  0.6964  0.4588
17217THY    HM226508   2.619   8.458   2.118 -3.0548  1.3142  0.0904
17217THY    HM326509   2.751   8.509   2.230 -0.5847  0.5447  2.9665
17217THY    CA626510   2.418   8.485   2.276  0.0720  0.0729 -0.6384
17217THY    HA626511   2.386   8.444   2.181 -0.7865  0.1315 -0.1267
17218THY      O26512   3.628   7.018   4.994  0.4584 -0.2833  0.1374
17218THY     HO26513   3.555   6.976   4.945 -0.3492 -0.4107  1.6125
17218THY    CA126514   3.741   6.951   4.986 -0.5097 -0.4957 -0.8116
17218THY    CA226515   3.851   6.991   5.056 -0.3168 -0.7214  0.0729
17218THY    CP126516   3.840   7.097   5.161 -0.2594 -0.3654 -0.6861
17218THY    HP126517   3.742   7.146   5.157  0.8314 -1.7656  1.5175
17218THY    CP226518   3.930   7.218   5.126  0.8980  0.2710 -0.5265
17218THY    HP226519   3.926   7.243   5.019  0.9319  0.3299 -0.2686
17218THY    HP326520   4.038   7.215   5.145  0.7069  1.6622  0.3999
17218THY    HP426521   3.883   7.308   5.168 -0.4329 -1.6324 -0.2602
17218THY    CP326522   3.867   7.046   5.307 -0.2066 -0.7954 -0.0180
17218THY    HP526523   3.970   7.012   5.323 -0.0240 -1.7392  0.0590
17218THY    HP626524   3.796   6.962   5.314  0.0545  0.8070 -0.1488
17218THY    HP726525   3.826   7.115   5.381  1.3066  0.5222 -0.4615
17218THY    CA326526   3.967   6.922   5.046  0.4272 -0.3339  0.3717
17218THY    HA326527   4.053   6.953   5.105  1.6643 -1.3479 -0.9892
17218THY    CA426528   3.972   6.812   4.963  0.0107  0.2038 -0.5631
17218THY    HA426529   4.066   6.756   4.960  0.5204 -2.2990  0.2929
17218THY    CA526530   3.865   6.778   4.889 -0.2056  0.5423  0.9978
17218THY    CM126531   3.878   6.644   4.816  0.2807  0.2687  0.1805
17218THY    HM126532   3.957   6.578   4.855 -1.0856  1.7238 -0.6721
17218THY    HM226533   3.899   6.664   4.711 -0.4715  0.3912  1.7423
17218THY    HM326534   3.780   6.594   4.820  1.1108  1.7812 -1.4400
17218THY    CA626535   3.744   6.840   4.905 -0.0038 -0.0076 -0.4444
17218THY    HA626536   3.656   6.811   4.849  0.0876  0.2741 -1.2948
17219THY      O26537   2.060   2.119   4.590  0.6629 -0.3504 -0.1936
17219THY     HO26538   2.033   2.058   4.520  0.7069 -0.8493  0.3571
17219THY    CA126539   2.125   2.224   4.541 -0.7859  0.4393  0.5921
17219THY    CA226540   2.223   2.288   4.615  0.1720  0.0014 -0.0194
17219THY    CP126541   2.246   2.276   4.769  0.1936 -0.6371  0.1428
17219THY    HP126542   2.187   2.195   4.814  0.0438  1.3772  1.3021
17219THY    CP226543   2.195   2.388   4.859 -1.1832 -0.1923 -0.0025
17219THY    HP226544   2.234   2.487   4.832 -0.8572 -2.1829 -0.6275
17219THY    HP326545   2.217   2.366   4.964  0.5972 -0.7685 -1.2135
17219THY    HP426546   2.088   2.409   4.847 -0.4874 -3.7727  2.4549
17219THY    CP326547   2.400   2.254   4.803  0.3879 -0.4733 -0.2674
17219THY    HP526548   2.447   2.187   4.730 -0.3521 -1.1369 -0.0758
17219THY    HP626549   2.414   2.216   4.905  0.6269 -0.6119 -0.5497
17219THY    HP726550   2.458   2.347   4.795  0.8368  0.9214 -0.4029
17219THY    CA326551   2.295   2.390   4.550 -0.4813  0.7870  0.5510
17219THY    HA326552   2.376   2.440   4.604  2.3271 -2.8832  0.3537
17219THY    CA426553   2.259   2.429   4.414 -0.5512 -0.3379  0.1940
17219THY    HA426554   2.297   2.519   4.367 -2.7827  2.2706  2.7105
17219THY    CA526555   2.166   2.353   4.347  0.1513 -0.0841  0.1064
17219THY    CM126556   2.115   2.396   4.210 -0.1062  0.3116 -0.4524
17219THY    HM126557   2.052   2.315   4.170 -0.3239  0.4889 -0.3736
17219THY    HM226558   2.197   2.418   4.140  2.1913  1.9414 -3.1878
17219THY    HM326559   2.045   2.480   4.219 -0.8143  1.8819 -1.1697
17219THY    CA626560   2.099   2.253   4.410  0.0450  0.1587 -0.2353
17219THY    HA626561   2.016   2.200   4.364 -0.6618  0.4504  0.5946
17220THY      O26562   2.548   5.260   5.788  0.0563 -0.1598  0.1006
17220THY     HO26563   2.482   5.189   5.796 -1.2361 -0.1234  1.2517
17220THY    CA126564   2.473   5.373   5.776 -0.8898 -0.8117 -0.2508
17220THY    CA226565   2.542   5.492   5.794 -0.3189  0.9451 -0.0930
17220THY    CP126566   2.694   5.490   5.807  0.2895 -0.5398  0.9184
17220THY    HP126567   2.731   5.387   5.822 -0.9208 -0.2093  0.5187
17220THY    CP226568   2.738   5.573   5.933  0.2681  0.0233 -0.0818
17220THY    HP226569   2.678   5.551   6.022 -1.7273 -1.0485  0.6993
17220THY    HP326570   2.737   5.679   5.904  1.0642  1.4202  0.3316
17220THY    HP426571   2.842   5.551   5.958  0.5138  0.3339  1.3296
17220THY    CP326572   2.769   5.539   5.682  0.4210  0.2067 -0.4298
17220THY    HP526573   2.873   5.570   5.697  0.2796 -0.6321  0.4832
17220THY    HP626574   2.723   5.632   5.647  0.1231 -2.4156 -1.4703
17220THY    HP726575   2.761   5.469   5.598  0.9127  0.3049 -0.6013
17220THY    CA326576   2.469   5.609   5.775  0.1559 -0.5078  0.0545
17220THY    HA326577   2.519   5.705   5.779 -1.7815 -2.5302  1.2505
17220THY    CA426578   2.329   5.597   5.758  0.1173 -0.3119  0.0933
17220THY    HA426579   2.277   5.692   5.759  0.9855  0.3685  0.5749
17220THY    CA526580   2.261   5.476   5.753 -0.0300 -0.5380  0.3595
17220THY    CM126581   2.112   5.472   5.758 -0.4633 -0.4493 -0.2273
17220THY    HM126582   2.072   5.569   5.727  0.4566  0.1061  0.3461
17220THY    HM226583   2.080   5.437   5.857  1.1778 -0.5868 -2.3235
17220THY    HM326584   2.075   5.393   5.692 -0.9686  0.8088 -1.0862
17220THY    CA626585   2.336   5.361   5.762  0.1530 -1.2237  0.1883
17220THY    HA626586   2.290   5.263   5.754 -0.9368 -1.2249  0.6783
17221THY      O26587   1.972   8.274   2.599  0.1277  0.3929 -0.4227
17221THY     HO26588   1.940   8.333   2.528  3.3128 -0.1630  0.8451
17221THY    CA126589   1.952   8.331   2.716  0.0625  0.1878  0.8498
17221THY    CA226590   1.949   8.254   2.835  0.1352 -0.2014  0.5371
17221THY    CP126591   1.998   8.115   2.836  0.4308  0.0210  0.3280
17221THY    HP126592   2.074   8.094   2.760  1.5552  2.2187 -5.1323
17221THY    CP226593   1.880   8.023   2.802 -0.1365  0.1230 -0.1875
17221THY    HP226594   1.837   8.048   2.704  0.5909 -0.5789 -1.5770
17221THY    HP326595   1.798   8.046   2.872 -0.5618 -1.0344  2.1325
17221THY    HP426596   1.910   7.918   2.806  0.4044  0.6424 -0.0169
17221THY    CP326597   2.054   8.066   2.970  0.6182  0.2549  0.1933
17221THY    HP526598   2.154   8.107   2.991  0.4684  1.3840 -0.0122
17221THY    HP626599   2.062   7.957   2.957  1.3854  0.6951  0.1872
17221THY    HP726600   1.994   8.085   3.059  2.0192  1.2448  0.1017
17221THY    CA326601   1.907   8.318   2.956 -1.1720  0.5587  0.3846
17221THY    HA326602   1.907   8.267   3.052 -2.7721  1.4430  1.9778
17221THY    CA426603   1.883   8.450   2.954 -0.5696 -0.1307 -1.2352
17221THY    HA426604   1.849   8.505   3.041 -1.1847 -1.6590  0.9868
17221THY    CA526605   1.884   8.527   2.838 -1.0370  0.3086 -0.3096
17221THY    CM126606   1.853   8.676   2.837 -0.2129 -0.1301 -0.1282
17221THY    HM126607   1.884   8.731   2.747  0.9134  0.8134  0.8221
17221THY    HM226608   1.915   8.727   2.912 -0.2394 -0.5534  0.5307
17221THY    HM326609   1.749   8.680   2.869  0.1113  1.0368 -0.7593
17221THY    CA626610   1.916   8.465   2.719  0.4092 -0.3581  0.1066
17221THY    HA626611   1.922   8.519   2.625  0.3977 -1.0978 -1.1312
17222THY      O26612   4.892   4.808   6.681  0.0900  0.3925 -0.2669
17222THY     HO26613   4.943   4.783   6.602 -0.6374  0.4518 -2.1740
17222THY    CA126614   4.845   4.695   6.725 -0.8958  0.2894  0.3358
17222THY    CA226615   4.845   4.662   6.863 -0.4170  0.7598 -0.4542
17222THY    CP126616   4.908   4.761   6.961 -0.4155 -0.3138  0.1900
17222THY    HP126617   4.893   4.868   6.940  1.3002  0.1783  0.5589
17222THY    CP226618   5.061   4.746   6.951 -0.0856  0.2069 -0.2097
17222THY    HP226619   5.116   4.827   7.002 -0.8237 -0.6764  0.8860
17222THY    HP326620   5.099   4.739   6.848  3.2245  1.3848 -1.6308
17222THY    HP426621   5.090   4.650   6.994  0.3574  0.3555 -0.0149
17222THY    CP326622   4.854   4.745   7.106 -0.6399  0.1464  0.0028
17222THY    HP526623   4.745   4.746   7.118 -0.6524  0.0109  0.4150
17222THY    HP626624   4.893   4.820   7.175  0.4998  2.1225 -2.2571
17222THY    HP726625   4.877   4.650   7.156  1.2682 -0.3287  0.1779
17222THY    CA326626   4.811   4.528   6.895  0.5666  0.2096 -0.4630
17222THY    HA326627   4.811   4.494   6.998 -1.7937  0.5070  0.2651
17222THY    CA426628   4.771   4.433   6.790  0.1296 -0.3694 -0.4607
17222THY    HA426629   4.762   4.328   6.814 -0.8099  3.3019  0.3363
17222THY    CA526630   4.776   4.472   6.659 -0.4270  0.1400  0.1739
17222THY    CM126631   4.739   4.382   6.546  0.4613  0.2788  0.6701
17222THY    HM126632   4.826   4.381   6.479  0.4813  0.3085 -0.3064
17222THY    HM226633   4.655   4.424   6.490 -0.3457  0.4990 -0.6215
17222THY    HM326634   4.722   4.277   6.573  2.1362 -0.7201  0.0961
17222THY    CA626635   4.809   4.602   6.633 -0.0798  0.3363 -0.1549
17222THY    HA626636   4.818   4.630   6.529 -1.6215  0.4913  1.0137
17223THY      O26637   4.661   7.344   3.410  0.0923 -0.6716  0.0876
17223THY     HO26638   4.598   7.393   3.354 -1.3415  1.0039  0.2928
17223THY    CA126639   4.590   7.305   3.522  0.2703 -0.4101  0.6407
17223THY    CA226640   4.651   7.264   3.644 -0.0494  0.1135  0.4770
17223THY    CP126641   4.798   7.294   3.674  0.0065 -0.0518 -0.5691
17223THY    HP126642   4.852   7.340   3.591 -0.3187  0.4776  0.8531
17223THY    CP226643   4.879   7.164   3.718  0.2823  0.3235 -0.2251
17223THY    HP226644   4.981   7.192   3.744  0.5651 -1.9956  1.2094
17223THY    HP326645   4.899   7.105   3.628  2.0535 -0.1384  0.9979
17223THY    HP426646   4.816   7.098   3.779 -2.3678 -2.7919 -0.8713
17223THY    CP326647   4.811   7.409   3.785  0.1354  0.1098  0.0469
17223THY    HP526648   4.915   7.414   3.820 -0.2480  1.5074 -1.1024
17223THY    HP626649   4.740   7.375   3.862  1.4880  0.8500 -1.2378
17223THY    HP726650   4.787   7.507   3.741  3.0977  0.1777  0.9163
17223THY    CA326651   4.569   7.222   3.754  0.3259  0.7510  0.2426
17223THY    HA326652   4.610   7.207   3.853 -2.4105  2.2146  1.7881
17223THY    CA426653   4.431   7.205   3.738 -0.5409  0.6112 -0.7098
17223THY    HA426654   4.370   7.180   3.824 -1.0933  0.7456  0.9211
17223THY    CA526655   4.373   7.257   3.618  0.3194 -0.2047  0.3754
17223THY    CM126656   4.218   7.236   3.590 -0.3253 -0.7916 -0.2151
17223THY    HM126657   4.177   7.320   3.532 -1.2087 -0.2157 -0.2367
17223THY    HM226658   4.153   7.218   3.676 -1.3653 -1.7910 -1.4029
17223THY    HM326659   4.206   7.154   3.519  0.2079 -1.3231  0.1523
17223THY    CA626660   4.453   7.302   3.513 -0.0650 -0.0708 -0.2247
17223THY    HA626661   4.412   7.326   3.415  2.1595 -0.9040  0.4499
17224THY      O26662   0.308   1.822   6.090 -0.7348  0.2778  0.1901
17224THY     HO26663   0.257   1.866   6.021 -0.8708  0.1994 -0.0860
17224THY    CA126664   0.332   1.903   6.200 -0.1998 -0.4731  0.8518
17224THY    CA226665   0.410   1.857   6.313 -0.5381  0.8616  0.2430
17224THY    CP126666   0.484   1.723   6.301 -0.4736 -0.1729 -0.5306
17224THY    HP126667   0.484   1.677   6.202 -1.1039 -0.2306 -0.4138
17224THY    CP226668   0.410   1.622   6.394  0.1654 -0.4677  0.8146
17224THY    HP226669   0.304   1.623   6.366 -0.2244  0.9186  0.3894
17224THY    HP326670   0.413   1.646   6.501 -2.3193 -0.2090  0.2425
17224THY    HP426671   0.445   1.519   6.384  0.1886  2.2138  0.4941
17224THY    CP326672   0.629   1.726   6.339  0.1472  0.5592  1.6373
17224THY    HP526673   0.636   1.750   6.446 -1.4209  0.9379  0.6227
17224THY    HP626674   0.684   1.799   6.280  0.5691  0.4599  1.2461
17224THY    HP726675   0.672   1.626   6.323 -0.2947 -1.4040  1.7391
17224THY    CA326676   0.419   1.936   6.422 -0.7369 -0.0638 -0.2833
17224THY    HA326677   0.486   1.906   6.502 -2.8315  2.1687  0.6570
17224THY    CA426678   0.374   2.070   6.415  0.8108  0.7388  0.2047
17224THY    HA426679   0.401   2.137   6.497  1.1813 -0.6786  1.8442
17224THY    CA526680   0.299   2.114   6.301  0.3400 -0.5177 -0.1078
17224THY    CM126681   0.248   2.254   6.308 -1.1275  1.2234 -0.2149
17224THY    HM126682   0.316   2.325   6.259  0.6980 -0.7446 -3.1056
17224THY    HM226683   0.219   2.275   6.412 -1.8578  0.5778  2.2896
17224THY    HM326684   0.156   2.257   6.248 -0.3992 -0.0378 -1.8342
17224THY    CA626685   0.283   2.031   6.194  0.0838 -0.0299 -0.0524
17224THY    HA626686   0.226   2.064   6.108  1.0170 -0.2151  1.1479
17225THY      O26687   1.474   4.106   4.844 -0.3897 -0.4539  0.2926
17225THY     HO26688   1.531   4.135   4.770 -1.3035 -1.4802 -0.4357
17225THY    CA126689   1.355   4.140   4.796  0.0692 -0.5974  0.0892
17225THY    CA226690   1.239   4.099   4.860  0.2834  0.3733  0.6452
17225THY    CP126691   1.244   4.015   4.981  0.2218  0.3691 -0.5175
17225THY    HP126692   1.331   3.949   4.989 -0.1945 -1.6722 -1.3923
17225THY    CP226693   1.135   3.903   4.976 -0.1744  0.2186 -0.3555
17225THY    HP226694   1.035   3.944   4.996 -1.1300  1.5203 -3.0794
17225THY    HP326695   1.161   3.831   5.055  0.6048  0.6913  0.4160
17225THY    HP426696   1.136   3.859   4.876 -2.9514 -0.8692  1.7774
17225THY    CP326697   1.218   4.094   5.109 -0.0728  0.0821 -0.1281
17225THY    HP526698   1.292   4.172   5.126 -0.9921  2.8068  0.2603
17225THY    HP626699   1.232   4.029   5.196 -2.4285 -0.4158 -1.4212
17225THY    HP726700   1.119   4.141   5.103  0.3777 -4.1372  0.6695
17225THY    CA326701   1.114   4.147   4.815 -0.2113  0.0603  0.5713
17225THY    HA326702   1.025   4.132   4.875  0.2639  0.6504  0.0473
17225THY    CA426703   1.120   4.239   4.717  0.4805  0.4406 -0.5002
17225THY    HA426704   1.031   4.292   4.685  1.3246  0.4033  0.9484
17225THY    CA526705   1.234   4.282   4.651  0.6931 -0.5263  0.0942
17225THY    CM126706   1.227   4.387   4.547 -1.0155  0.4510 -0.0047
17225THY    HM126707   1.225   4.339   4.448  3.1065  1.3046 -2.4070
17225THY    HM226708   1.308   4.461   4.555 -0.5345 -0.5519 -0.3983
17225THY    HM326709   1.138   4.450   4.557  0.6953  2.0030  2.3457
17225THY    CA626710   1.350   4.225   4.686 -0.1053 -0.0236 -0.5801
17225THY    HA626711   1.441   4.261   4.641 -0.6696  1.8901  3.9486
17226THY      O26712   9.209   3.319   3.162  0.1580  0.0779  0.3473
17226THY     HO26713   9.153   3.398   3.153 -1.0672 -0.0189 -0.4935
17226THY    CA126714   9.121   3.216   3.151 -0.1983  0.4021 -0.7519
17226THY    CA226715   9.171   3.091   3.105  0.0853  0.5380 -0.0512
17226THY    CP126716   9.328   3.074   3.075 -0.4412 -0.5129  0.3410
17226THY    HP126717   9.365   3.165   3.027  2.1006 -0.2247 -0.4577
17226THY    CP226718   9.356   2.959   2.970  0.2276 -0.3569 -0.7125
17226THY    HP226719   9.334   2.866   3.025 -1.4571  2.0499  0.9704
17226THY    HP326720   9.464   2.959   2.953  0.5745  1.5928  0.0688
17226THY    HP426721   9.297   2.956   2.878 -0.3732  0.0271 -2.2829
17226THY    CP326722   9.424   3.060   3.203  0.0806  0.0671 -0.7040
17226THY    HP526723   9.528   3.064   3.169  0.1038  0.1220  2.7104
17226THY    HP626724   9.395   2.983   3.275 -2.7521 -0.6238 -0.4226
17226THY    HP726725   9.419   3.152   3.263  1.2325  1.8710 -1.7751
17226THY    CA326726   9.083   2.979   3.107 -0.0116  0.2333  0.2247
17226THY    HA326727   9.123   2.882   3.079 -1.3341  0.5322 -0.4266
17226THY    CA426728   8.954   2.996   3.159  0.4429 -0.0924 -0.2989
17226THY    HA426729   8.887   2.910   3.163 -2.0634  0.8133  1.5614
17226THY    CA526730   8.900   3.124   3.177  0.0420 -0.7133  0.0570
17226THY    CM126731   8.753   3.139   3.203  0.9506 -0.0029  0.3351
17226THY    HM126732   8.693   3.128   3.112 -1.6049  1.7500 -1.3997
17226THY    HM226733   8.713   3.229   3.252  0.7512  0.4223  0.0154
17226THY    HM326734   8.736   3.061   3.278 -0.1149  1.5908  1.9935
17226THY    CA626735   8.983   3.236   3.171  0.6013  1.0562 -0.3360
17226THY    HA626736   8.936   3.333   3.185  0.4166 -1.2491 -0.0366
17227THY      O26737   3.030   2.851   5.935 -0.5055 -0.4239 -0.2793
17227THY     HO26738   2.999   2.773   5.983 -3.4436 -0.9750  0.4291
17227THY    CA126739   3.143   2.899   6.003  0.7683  0.0451  0.2648
17227THY    CA226740   3.191   3.033   5.981  0.0708  0.1321  0.4941
17227THY    CP126741   3.109   3.123   5.893 -0.0481 -0.3144  0.0220
17227THY    HP126742   3.006   3.088   5.877 -0.5870 -0.2706  1.5104
17227THY    CP226743   3.174   3.121   5.753  0.3795  0.1959 -0.4790
17227THY    HP226744   3.107   3.174   5.685 -0.6493  0.0417 -1.9403
17227THY    HP326745   3.195   3.020   5.717  0.1808  0.4884 -0.6271
17227THY    HP426746   3.271   3.172   5.750  0.0325  0.3896  0.2108
17227THY    CP326747   3.102   3.275   5.939 -0.1394  0.1302  0.2844
17227THY    HP526748   3.039   3.327   5.865  3.4896 -1.8245  2.2810
17227THY    HP626749   3.204   3.312   5.953  0.6903 -2.4538 -0.7697
17227THY    HP726750   3.062   3.286   6.040 -1.4438 -0.4598  1.2641
17227THY    CA326751   3.316   3.061   6.035  0.1201 -0.0301  0.0399
17227THY    HA326752   3.360   3.158   6.012 -0.7566 -0.3131  0.3790
17227THY    CA426753   3.384   2.968   6.116  0.0146  0.2645  0.1146
17227THY    HA426754   3.476   2.989   6.168  1.1009 -0.8250 -1.6901
17227THY    CA526755   3.319   2.842   6.146  0.1999  0.0714 -0.2925
17227THY    CM126756   3.392   2.741   6.231 -0.0531  0.1899 -0.0958
17227THY    HM126757   3.331   2.718   6.319 -1.1161 -0.4102  0.3010
17227THY    HM226758   3.493   2.777   6.250 -0.2184  1.9617 -0.4891
17227THY    HM326759   3.392   2.648   6.172  0.0155 -2.2967  1.3748
17227THY    CA626760   3.203   2.813   6.087 -0.9777  0.7461  0.9869
17227THY    HA626761   3.177   2.708   6.096 -0.6673  1.5475  0.9723
17228THY      O26762   5.100   6.355   6.626 -0.0787  0.0375 -0.0505
17228THY     HO26763   5.030   6.331   6.689 -0.7653 -1.0017 -0.8862
17228THY    CA126764   5.022   6.378   6.509 -0.5395  0.3829 -0.4920
17228THY    CA226765   5.088   6.390   6.383 -0.6548  0.2730 -0.0002
17228THY    CP126766   5.243   6.378   6.376 -0.0484 -0.1534  0.5526
17228THY    HP126767   5.276   6.324   6.465  0.7473 -0.5087  0.4277
17228THY    CP226768   5.310   6.510   6.366  0.2650 -0.9513  0.2658
17228THY    HP226769   5.280   6.571   6.451  0.4625 -0.8618  0.2388
17228THY    HP326770   5.267   6.571   6.286  0.4754 -1.1010  0.2177
17228THY    HP426771   5.419   6.517   6.363  0.2213 -1.7806  0.7045
17228THY    CP326772   5.280   6.285   6.263 -0.5494 -0.4192  0.8732
17228THY    HP526773   5.263   6.331   6.165  1.9503 -0.9573  0.8065
17228THY    HP626774   5.223   6.191   6.269 -2.5031 -1.0015  1.9674
17228THY    HP726775   5.385   6.254   6.265 -0.8625  0.3948 -0.2404
17228THY    CA326776   5.014   6.403   6.265 -0.0397 -0.0713 -0.3550
17228THY    HA326777   5.057   6.422   6.167 -1.6305 -0.4197  1.8061
17228THY    CA426778   4.880   6.397   6.276 -0.3175  0.1491  0.1930
17228THY    HA426779   4.823   6.405   6.183 -0.4943 -0.3287 -4.2870
17228THY    CA526780   4.815   6.378   6.396 -0.0373  0.2143  0.0226
17228THY    CM126781   4.662   6.356   6.400 -0.1709 -0.0575  0.6602
17228THY    HM126782   4.634   6.275   6.332  1.1985 -0.8917  0.8486
17228THY    HM226783   4.601   6.444   6.382 -0.8058  0.6676  0.3815
17228THY    HM326784   4.641   6.338   6.507  0.2466 -0.3666 -2.1887
17228THY    CA626785   4.886   6.359   6.514  0.3811  0.1372 -0.5318
17228THY    HA626786   4.833   6.325   6.603 -3.3217 -1.8252 -0.3817
17229THY      O26787   8.595   8.268   3.613 -0.2509  1.0790 -0.4360
17229THY     HO26788   8.582   8.360   3.642 -3.0748 -4.4807  1.4069
17229THY    CA126789   8.505   8.252   3.509 -0.0796 -0.3237 -0.3184
17229THY    CA226790   8.472   8.123   3.466  0.0119  0.6095 -1.4346
17229THY    CP126791   8.535   8.008   3.538 -0.1957  0.0430  0.7781
17229THY    HP126792   8.622   8.036   3.599 -0.7603  1.6038 -0.6861
17229THY    CP226793   8.581   7.898   3.429 -0.6721 -0.0970 -0.0453
17229THY    HP226794   8.504   7.878   3.354  0.0203 -0.9498  0.4127
17229THY    HP326795   8.622   7.810   3.480 -1.9616  1.5933  0.2600
17229THY    HP426796   8.671   7.936   3.380 -1.0263 -3.2473 -2.8724
17229THY    CP326797   8.432   7.945   3.627  0.6597  0.5440 -0.4404
17229THY    HP526798   8.330   7.970   3.596  0.8861  0.3589  0.2738
17229THY    HP626799   8.442   7.991   3.726 -0.1781  1.0120 -1.2264
17229THY    HP726800   8.439   7.836   3.634  1.7703 -0.0864 -0.4211
17229THY    CA326801   8.370   8.116   3.372 -0.2764  0.3255 -0.3613
17229THY    HA326802   8.342   8.020   3.329  2.8902  0.3758 -1.4115
17229THY    CA426803   8.324   8.227   3.311  0.0948  0.6198 -0.9110
17229THY    HA426804   8.245   8.214   3.238  1.4734 -0.7908 -1.6183
17229THY    CA526805   8.366   8.356   3.341 -0.8398  0.2500 -0.2685
17229THY    CM126806   8.308   8.471   3.268  0.0589  0.3200  0.2259
17229THY    HM126807   8.300   8.554   3.338  0.5819 -0.6993  1.1534
17229THY    HM226808   8.208   8.451   3.227  0.4723 -0.6968  0.1460
17229THY    HM326809   8.375   8.498   3.186 -0.0403 -0.1198 -0.7946
17229THY    CA626810   8.454   8.373   3.449  0.2879 -1.4638  0.1682
17229THY    HA626811   8.496   8.464   3.490  0.4121  1.2001 -0.9884
17230THY      O26812   0.947   2.327   3.429  0.5310  0.2649 -0.3918
17230THY     HO26813   0.896   2.246   3.447 -0.8794 -0.6417  0.2418
17230THY    CA126814   0.931   2.413   3.539  0.0391  0.1460 -0.0906
17230THY    CA226815   0.948   2.555   3.539 -0.9350  0.3816 -0.6394
17230THY    CP126816   0.984   2.622   3.402  0.0654  0.2083  0.0754
17230THY    HP126817   0.932   2.574   3.318  0.6249 -0.8983  1.3521
17230THY    CP226818   1.125   2.594   3.363 -0.1106  0.8315 -0.1602
17230THY    HP226819   1.195   2.625   3.441  0.6676 -0.0634  0.3917
17230THY    HP326820   1.160   2.660   3.283 -1.4431 -0.3158 -0.8010
17230THY    HP426821   1.149   2.489   3.344  2.9908  0.1796  0.5579
17230THY    CP326822   0.948   2.774   3.395 -0.6251 -0.4657  0.0378
17230THY    HP526823   0.954   2.812   3.292  0.1649 -0.0002  1.2407
17230THY    HP626824   1.026   2.828   3.451  2.7328 -1.7203 -3.0684
17230THY    HP726825   0.847   2.800   3.426  0.0110  3.3423 -1.4357
17230THY    CA326826   0.955   2.629   3.659  0.1771  0.0664  0.5643
17230THY    HA326827   0.995   2.730   3.660  1.4039  2.7701  0.1600
17230THY    CA426828   0.929   2.561   3.781  0.3460  0.1561 -0.3211
17230THY    HA426829   0.935   2.611   3.877  0.8267  0.1282 -0.3269
17230THY    CA526830   0.902   2.422   3.781  0.1739  0.4314 -0.4502
17230THY    CM126831   0.883   2.359   3.915 -0.0949 -0.3091  0.2122
17230THY    HM126832   0.787   2.309   3.931  0.2414 -0.6626 -0.5633
17230THY    HM226833   0.894   2.431   3.996 -0.8740  0.9737 -1.0643
17230THY    HM326834   0.957   2.281   3.936 -2.2496  0.4756 -1.7646
17230THY    CA626835   0.911   2.350   3.662 -0.0315  0.5509  0.8359
17230THY    HA626836   0.918   2.242   3.667 -0.3290 -1.2706  0.7027
17231THY      O26837   8.156   6.950   3.178  0.0983 -0.4483  0.6638
17231THY     HO26838   8.105   6.975   3.100  0.9192 -1.1532  0.1895
17231THY    CA126839   8.108   6.831   3.219 -1.2373 -0.2651  0.6328
17231THY    CA226840   8.144   6.779   3.343 -0.4038  0.2401 -0.0122
17231THY    CP126841   8.263   6.853   3.418  0.8471  0.2665 -0.1382
17231THY    HP126842   8.320   6.904   3.340 -0.7070 -1.1836 -0.5311
17231THY    CP226843   8.366   6.766   3.473  0.3081 -0.1641  1.0463
17231THY    HP226844   8.433   6.729   3.395  0.6842  0.8545 -0.5295
17231THY    HP326845   8.322   6.681   3.527  0.2442  0.1310  1.2662
17231THY    HP426846   8.421   6.809   3.558  0.3879 -0.4432  1.4986
17231THY    CP326847   8.202   6.950   3.523 -0.1747 -0.1033  0.5759
17231THY    HP526848   8.282   7.012   3.566 -1.1224  0.7365  1.2473
17231THY    HP626849   8.132   6.907   3.595 -0.1436 -0.6065 -0.3305
17231THY    HP726850   8.131   7.018   3.474 -2.1922  1.3038 -0.4207
17231THY    CA326851   8.089   6.664   3.387 -0.0061  0.1587  0.2330
17231THY    HA326852   8.123   6.624   3.482  1.4486  1.2998  3.7942
17231THY    CA426853   7.980   6.607   3.317 -0.9662  0.3256  0.4657
17231THY    HA426854   7.938   6.516   3.360  1.3213  0.8816 -0.4095
17231THY    CA526855   7.940   6.658   3.196 -0.6883 -0.1572 -0.8405
17231THY    CM126856   7.840   6.594   3.111  0.7814  0.3336  0.0907
17231THY    HM126857   7.773   6.665   3.062  1.0227  0.5529  0.4718
17231THY    HM226858   7.786   6.522   3.173  0.5731 -0.6387 -0.6103
17231THY    HM326859   7.893   6.521   3.048 -0.0387  0.7661 -0.8855
17231THY    CA626860   8.009   6.770   3.148 -0.3176  0.3187  0.5500
17231THY    HA626861   7.971   6.807   3.053 -0.2498  0.1814  0.2702
17232THY      O26862   6.157   3.753   5.557  0.9538  0.3104  0.6147
17232THY     HO26863   6.169   3.829   5.498  0.1533 -2.4594 -1.2540
17232THY    CA126864   6.027   3.711   5.547 -0.0106 -0.0150 -0.3856
17232THY    CA226865   5.998   3.585   5.487  0.4830  0.5000 -0.7533
17232THY    CP126866   6.104   3.478   5.464 -0.7270  0.1310 -0.1846
17232THY    HP126867   6.203   3.496   5.508 -1.4483  1.5621  0.4953
17232THY    CP226868   6.114   3.472   5.314  0.0700  0.5819 -0.4620
17232THY    HP226869   6.146   3.572   5.281 -2.1967 -1.9242 -0.4539
17232THY    HP326870   6.013   3.461   5.274  0.3920 -0.1957 -0.6477
17232THY    HP426871   6.178   3.388   5.285  3.7080  1.1798  1.8720
17232THY    CP326872   6.066   3.340   5.528 -0.6543 -0.8781  0.3924
17232THY    HP526873   5.998   3.282   5.465  3.2730 -2.3513 -3.1630
17232THY    HP626874   6.033   3.342   5.633  0.6545 -0.4289  3.1696
17232THY    HP726875   6.156   3.278   5.534  0.8618  0.4188  2.5779
17232THY    CA326876   5.857   3.566   5.457  0.1557  0.4617  0.3287
17232THY    HA326877   5.820   3.477   5.405 -1.5072  1.0540  0.6344
17232THY    CA426878   5.762   3.662   5.491 -0.0187 -0.4437 -0.0112
17232THY    HA426879   5.657   3.649   5.465 -0.8940  3.1244 -1.1389
17232THY    CA526880   5.797   3.786   5.545  0.6161  0.1458  0.1110
17232THY    CM126881   5.689   3.889   5.575 -0.6733 -0.3200 -0.3996
17232THY    HM126882   5.624   3.914   5.490  0.0070 -1.0587 -1.0667
17232THY    HM226883   5.730   3.985   5.608 -0.0540 -2.0573 -0.0214
17232THY    HM326884   5.633   3.837   5.653  1.2498  2.0024  0.7883
17232THY    CA626885   5.929   3.805   5.579 -0.3916  0.6419  0.3031
17232THY    HA626886   5.958   3.902   5.620  1.2482  2.0047 -0.7157
17233THY      O26887   1.149   7.286   4.331 -0.4554  0.1958 -0.1367
17233THY     HO26888   1.193   7.208   4.295  1.5073 -0.3777  1.1542
17233THY    CA126889   1.046   7.307   4.249 -0.3382 -0.9801  0.4566
17233THY    CA226890   1.016   7.432   4.202  0.0620  0.6021 -0.6941
17233THY    CP126891   1.099   7.558   4.234  0.3124 -0.4622 -0.3585
17233THY    HP126892   1.091   7.631   4.152  1.7080 -0.6908 -0.4289
17233THY    CP226893   1.249   7.535   4.225 -0.0598  0.0863 -0.9063
17233THY    HP226894   1.301   7.631   4.212  0.2062  0.2042 -1.0346
17233THY    HP326895   1.274   7.476   4.136 -0.2283 -0.8312  0.3402
17233THY    HP426896   1.282   7.484   4.316 -1.5943  0.3037 -1.5739
17233THY    CP326897   1.055   7.631   4.360  0.1082 -0.0491  0.0194
17233THY    HP526898   0.947   7.645   4.355 -0.4581 -1.3162 -3.6322
17233THY    HP626899   1.101   7.730   4.369 -0.5685  0.7593  0.2669
17233THY    HP726900   1.071   7.574   4.453 -0.2674  1.0701  1.6686
17233THY    CA326901   0.895   7.453   4.131 -0.0171 -0.3359 -0.1194
17233THY    HA326902   0.871   7.556   4.105  2.4546  1.7250  1.0932
17233THY    CA426903   0.818   7.345   4.103  0.3389  0.2416 -0.1566
17233THY    HA426904   0.727   7.353   4.045  1.1510 -0.9284  1.0560
17233THY    CA526905   0.851   7.220   4.151 -0.2379  0.8226 -0.0342
17233THY    CM126906   0.759   7.107   4.115 -0.6971  0.0641  0.1937
17233THY    HM126907   0.777   7.016   4.174 -0.9875  0.2411  0.2503
17233THY    HM226908   0.743   7.079   4.010  0.3146  0.4061 -1.8347
17233THY    HM326909   0.655   7.122   4.144 -0.3823  1.4442 -0.2103
17233THY    CA626910   0.962   7.199   4.224  0.7524 -0.0114  0.4299
17233THY    HA626911   0.984   7.097   4.255  2.0048 -1.5683  0.1884
17234THY      O26912   0.744   2.452   1.856  0.4193  0.7932  0.0047
17234THY     HO26913   0.675   2.507   1.816  1.4747  2.0435  2.4096
17234THY    CA126914   0.735   2.455   1.995  0.1239 -0.3054 -0.5536
17234THY    CA226915   0.851   2.468   2.074 -0.4563 -0.1640  0.0922
17234THY    CP126916   0.995   2.462   2.012 -0.1759  0.3045 -0.0156
17234THY    HP126917   1.005   2.378   1.942  0.4311  0.9573 -0.4992
17234THY    CP226918   1.105   2.431   2.112 -0.7781  0.3148 -0.6990
17234THY    HP226919   1.196   2.405   2.057 -0.0961 -1.0695  3.7221
17234THY    HP326920   1.067   2.362   2.189  0.9032  2.9361  1.1199
17234THY    HP426921   1.131   2.522   2.167  1.3928 -0.5284 -0.7515
17234THY    CP326922   1.033   2.596   1.939 -0.1401 -0.5213 -0.5132
17234THY    HP526923   0.960   2.623   1.862  0.6732 -0.9936  0.4000
17234THY    HP626924   1.130   2.596   1.888  0.6471  0.7668  2.5489
17234THY    HP726925   1.040   2.681   2.008  0.4014 -4.1088  2.6082
17234THY    CA326926   0.832   2.491   2.212 -0.1737 -0.0330  0.0284
17234THY    HA326927   0.920   2.493   2.276 -0.6235  0.5806  0.7898
17234THY    CA426928   0.703   2.502   2.271  0.6167  0.3405  0.5543
17234THY    HA426929   0.688   2.497   2.378 -0.5278  0.1237 -2.1239
17234THY    CA526930   0.595   2.500   2.187 -0.4794 -0.4589  0.2115
17234THY    CM126931   0.458   2.508   2.250 -0.0540  0.1266  0.2529
17234THY    HM126932   0.466   2.577   2.335 -2.5839  0.0215  0.7982
17234THY    HM226933   0.439   2.408   2.289  2.8699 -1.9045 -1.2339
17234THY    HM326934   0.380   2.539   2.179  0.4598 -0.2523  0.7051
17234THY    CA626935   0.610   2.478   2.049  0.0867 -0.1226  0.4740
17234THY    HA626936   0.519   2.472   1.991  0.6380 -0.9568  0.0076
17235THY      O26937   1.903   1.596   2.093 -0.3521 -0.2844  0.2936
17235THY     HO26938   1.923   1.540   2.017  2.2852  0.0073  0.7259
17235THY    CA126939   2.007   1.564   2.176  0.2995 -0.0813 -0.1086
17235THY    CA226940   2.038   1.629   2.296  1.0668  0.3415  0.0194
17235THY    CP126941   1.941   1.753   2.337 -0.3416  0.5975 -0.2805
17235THY    HP126942   1.920   1.809   2.245  1.1216  0.1954 -0.3391
17235THY    CP226943   2.014   1.849   2.434  0.1446 -0.0002 -0.2355
17235THY    HP226944   1.948   1.933   2.456  1.6743 -2.9901  1.9152
17235THY    HP326945   2.101   1.891   2.382  0.9518  0.9364 -0.7076
17235THY    HP426946   2.052   1.790   2.518 -0.2299  0.6888  0.4857
17235THY    CP326947   1.816   1.694   2.405 -0.1431 -0.8299 -0.4613
17235THY    HP526948   1.846   1.625   2.485  1.0677 -2.3122 -1.7469
17235THY    HP626949   1.760   1.627   2.338 -0.3541 -0.5117 -0.6050
17235THY    HP726950   1.741   1.768   2.436 -2.9603  0.4426 -3.5589
17235THY    CA326951   2.151   1.590   2.371  0.3406  0.3117 -0.3413
17235THY    HA326952   2.194   1.640   2.458  2.8136 -1.0826  0.0994
17235THY    CA426953   2.223   1.483   2.325 -0.3949  0.3282  0.0607
17235THY    HA426954   2.319   1.457   2.369  0.9200 -2.0921  0.5026
17235THY    CA526955   2.194   1.418   2.205  0.4877 -0.2239  0.3673
17235THY    CM126956   2.284   1.305   2.147 -0.1730 -0.2614 -0.3331
17235THY    HM126957   2.359   1.273   2.221 -1.1670  0.4548 -1.0609
17235THY    HM226958   2.330   1.341   2.054  2.3525  1.2115  0.5469
17235THY    HM326959   2.228   1.215   2.121  0.3782 -2.8036 -0.0058
17235THY    CA626960   2.077   1.449   2.139 -0.8428  0.5706  0.4825
17235THY    HA626961   2.064   1.404   2.041  0.3435  1.1622 -1.2228
17236THY      O26962   1.580   1.711   5.331 -0.2576 -0.0222  0.6088
17236THY     HO26963   1.586   1.780   5.264 -0.8768 -0.5257  0.1833
17236THY    CA126964   1.537   1.768   5.443 -0.0147 -0.0322 -0.7840
17236THY    CA226965   1.523   1.913   5.452  0.3334 -0.5872 -0.0847
17236THY    CP126966   1.583   2.001   5.350 -0.5123 -1.0922 -0.6203
17236THY    HP126967   1.647   1.945   5.281  0.7924  1.0835 -1.9626
17236THY    CP226968   1.672   2.109   5.404 -0.7646  0.3979  0.0188
17236THY    HP226969   1.750   2.058   5.462 -0.6022 -0.1617 -0.3754
17236THY    HP326970   1.624   2.183   5.469 -1.8121  0.4578 -0.6903
17236THY    HP426971   1.704   2.173   5.321 -1.1503  0.9283  0.9243
17236THY    CP326972   1.470   2.062   5.261  0.4726 -0.3585  0.8962
17236THY    HP526973   1.407   1.975   5.236  1.4022 -3.4488  0.9736
17236THY    HP626974   1.508   2.115   5.173 -2.1803 -0.7031  2.4409
17236THY    HP726975   1.408   2.122   5.329 -0.3668  0.3377 -0.7142
17236THY    CA326976   1.455   1.974   5.565 -0.2634  0.6566  0.2137
17236THY    HA326977   1.443   2.082   5.565  2.0306 -2.3039  0.5832
17236THY    CA426978   1.405   1.891   5.665  0.8570  0.3548 -0.0831
17236THY    HA426979   1.342   1.938   5.741  0.6878 -1.3955  2.7234
17236THY    CA526980   1.420   1.752   5.653 -0.0705  0.2275 -0.5157
17236THY    CM126981   1.352   1.667   5.753  0.1202  0.5420 -0.1857
17236THY    HM126982   1.385   1.691   5.855  1.6192  0.3181 -1.1239
17236THY    HM226983   1.377   1.560   5.747  1.3271  0.4817  0.0862
17236THY    HM326984   1.247   1.697   5.750  0.2495 -3.1352  0.3144
17236THY    CA626985   1.483   1.693   5.543  0.3817  0.4173  0.0622
17236THY    HA626986   1.472   1.586   5.537  0.6041 -1.4091  0.1118
17237THY      O26987   2.346   1.594   5.365  0.0227 -0.5257 -0.1626
17237THY     HO26988   2.396   1.655   5.308 -1.4864 -1.7918 -0.0309
17237THY    CA126989   2.214   1.616   5.347 -0.2072  0.3720 -0.2207
17237THY    CA226990   2.111   1.534   5.393  0.9278 -0.4413  0.1283
17237THY    CP126991   2.140   1.394   5.443 -0.1185 -0.6726  0.1898
17237THY    HP126992   2.208   1.344   5.373  1.7183  1.3619 -0.2870
17237THY    CP226993   2.017   1.299   5.455  0.0448 -0.2456  0.6320
17237THY    HP226994   2.049   1.197   5.480 -0.4542  0.0792  0.5501
17237THY    HP326995   1.961   1.283   5.362 -1.1683  0.6876 -0.8343
17237THY    HP426996   1.957   1.324   5.543 -2.1036 -1.5100  0.1688
17237THY    CP326997   2.214   1.392   5.576  0.7336 -0.0608  0.1550
17237THY    HP526998   2.152   1.436   5.655  0.7002 -0.1958  0.3537
17237THY    HP626999   2.304   1.454   5.578  0.1251  0.3201  1.0569
17237THY    HP727000   2.236   1.291   5.611  0.6341  0.6508  0.3740
17237THY    CA327001   1.978   1.587   5.400  0.0433  0.8178 -0.6447
17237THY    HA327002   1.899   1.523   5.437 -2.1143 -1.6948  0.3555
17237THY    CA427003   1.959   1.726   5.365 -0.2897 -0.6007  0.0262
17237THY    HA427004   1.857   1.764   5.361  0.2049 -1.3192  1.3669
17237THY    CA527005   2.061   1.801   5.308  0.8252 -0.2613  0.3325
17237THY    CM127006   2.024   1.943   5.274  0.4527  0.5683  0.5474
17237THY    HM127007   2.062   2.014   5.348  2.3203 -0.1904  0.3933
17237THY    HM227008   1.917   1.954   5.254  0.5410 -0.7635 -0.7312
17237THY    HM327009   2.061   1.966   5.174 -0.7795  0.1677  0.8645
17237THY    CA627010   2.191   1.752   5.301  0.0261 -0.4784 -0.1060
17237THY    HA627011   2.264   1.816   5.253  1.4232  1.7358  0.0618
17238THY      O27012   8.992   2.042   6.465 -0.1652  0.2936  0.2450
17238THY     HO27013   8.984   1.990   6.383  2.2517  1.0630 -1.5169
17238THY    CA127014   8.870   2.033   6.530 -0.1582 -0.0534 -0.4579
17238THY    CA227015   8.852   2.038   6.670 -0.5299 -0.1686 -0.2854
17238THY    CP127016   8.973   2.058   6.762  0.8426 -0.7418 -0.1272
17238THY    HP127017   9.042   2.125   6.708 -2.7597 -4.8312  0.7732
17238THY    CP227018   9.048   1.924   6.775  0.4537 -0.1345 -0.0294
17238THY    HP227019   9.141   1.930   6.831  1.8192 -2.3913  1.9123
17238THY    HP327020   9.089   1.899   6.677  2.8075  0.7371  0.2323
17238THY    HP427021   8.986   1.844   6.816  0.2439 -0.9173 -0.2830
17238THY    CP327022   8.942   2.110   6.907 -0.0349 -0.2385 -0.4282
17238THY    HP527023   8.914   2.023   6.969  1.0098  3.2904  1.5410
17238THY    HP627024   8.853   2.173   6.897 -0.2450  0.7979 -0.5307
17238THY    HP727025   9.033   2.145   6.957  1.5871 -2.5115 -1.2033
17238THY    CA327026   8.720   2.021   6.723 -0.3357 -0.1972  0.2970
17238THY    HA327027   8.716   1.996   6.829  0.4867  0.5359  2.9772
17238THY    CA427028   8.608   2.000   6.638  0.1265  0.6313  1.2841
17238THY    HA427029   8.515   1.974   6.685  0.6411  0.5897 -0.7577
17238THY    CA527030   8.624   1.981   6.499 -0.0894 -0.0395 -0.6556
17238THY    CM127031   8.511   1.944   6.406 -0.8217  0.2952  0.3446
17238THY    HM127032   8.478   2.031   6.348 -1.2335 -0.8787 -0.5692
17238THY    HM227033   8.422   1.911   6.459 -0.9790  0.8520  1.5866
17238THY    HM327034   8.554   1.872   6.335 -2.0648  0.9402 -1.0872
17238THY    CA627035   8.754   2.010   6.451 -0.1258  0.1835 -0.4146
17238THY    HA627036   8.764   2.009   6.342 -2.2740 -0.0565 -1.3189
17239THY      O27037   3.789   4.610   1.780 -0.3116  0.2265  0.2148
17239THY     HO27038   3.805   4.637   1.688  0.5362  0.1229 -0.5877
17239THY    CA127039   3.674   4.671   1.817  0.5174 -0.0533  0.3129
17239THY    CA227040   3.679   4.780   1.899  0.2794 -0.7504 -0.4372
17239THY    CP127041   3.821   4.830   1.945 -0.5914 -0.0692  0.5555
17239THY    HP127042   3.895   4.751   1.960  0.4120 -2.0501  1.0457
17239THY    CP227043   3.820   4.893   2.079  0.3378  0.2041 -0.1050
17239THY    HP227044   3.764   4.837   2.154  0.6993  0.5713  0.0215
17239THY    HP327045   3.761   4.984   2.067  0.7350 -0.6605  0.0523
17239THY    HP427046   3.920   4.923   2.113  2.6770 -2.1395 -4.3174
17239THY    CP327047   3.872   4.929   1.830  0.1126 -0.5507 -0.2278
17239THY    HP527048   3.783   4.980   1.791  0.1597  2.3572  2.3526
17239THY    HP627049   3.923   4.873   1.751  0.0159 -0.5632 -0.2986
17239THY    HP727050   3.930   5.013   1.872 -0.9366 -1.4767  1.0086
17239THY    CA327051   3.558   4.838   1.940 -0.0675 -0.4309  0.2092
17239THY    HA327052   3.549   4.927   2.001 -0.1789  0.6649 -0.5410
17239THY    CA427053   3.443   4.784   1.894 -0.3321 -0.3426  0.0869
17239THY    HA427054   3.347   4.831   1.911 -0.4385 -0.3033 -0.1403
17239THY    CA527055   3.442   4.667   1.814 -0.3821 -0.5995  0.3018
17239THY    CM127056   3.311   4.605   1.775 -0.1323  1.1955  0.3978
17239THY    HM127057   3.265   4.652   1.687  0.3365  0.7106 -0.0300
17239THY    HM227058   3.232   4.612   1.851 -1.9059 -0.3967 -1.0441
17239THY    HM327059   3.315   4.499   1.747  1.3626 -1.2485  1.0126
17239THY    CA627060   3.558   4.615   1.769 -0.3429 -0.1021 -0.4950
17239THY    HA627061   3.561   4.525   1.708 -2.9415 -1.3265  0.1701
17240THY      O27062   6.783   1.304   6.504  0.1052  0.0972  0.2266
17240THY     HO27063   6.788   1.320   6.600  2.7030 -0.0043  0.4718
17240THY    CA127064   6.652   1.275   6.479 -0.0710 -0.5124  0.7305
17240THY    CA227065   6.583   1.316   6.358 -0.2112 -0.3278  0.5779
17240THY    CP127066   6.661   1.396   6.248 -0.0905  0.1707 -0.0088
17240THY    HP127067   6.765   1.419   6.275  0.9408 -2.4422 -1.2933
17240THY    CP227068   6.587   1.523   6.220  0.5332 -0.1136 -0.2829
17240THY    HP227069   6.484   1.510   6.185 -0.6591  2.5831  0.9342
17240THY    HP327070   6.646   1.589   6.155  0.1434 -2.0775 -1.7930
17240THY    HP427071   6.568   1.572   6.317 -0.1740 -0.1037 -0.5574
17240THY    CP327072   6.682   1.321   6.116 -0.4238  0.3868 -0.0857
17240THY    HP527073   6.587   1.273   6.087 -0.2921 -0.1267 -0.0318
17240THY    HP627074   6.760   1.246   6.133 -1.1934 -0.7060 -1.1681
17240THY    HP727075   6.713   1.390   6.037  2.0042  2.6270  1.5869
17240THY    CA327076   6.443   1.283   6.349 -0.3784 -0.3184  0.2213
17240THY    HA327077   6.387   1.296   6.257 -0.9928 -0.1056 -0.8179
17240THY    CA427078   6.378   1.216   6.451  0.3708 -0.4858 -0.0196
17240THY    HA427079   6.271   1.199   6.438 -0.1909  1.8908  1.2237
17240THY    CA527080   6.449   1.174   6.566  1.3150 -0.2976  0.2759
17240THY    CM127081   6.377   1.092   6.682  0.3928 -0.0401 -0.4748
17240THY    HM127082   6.425   1.114   6.778 -1.3608  0.4075  1.7898
17240THY    HM227083   6.382   0.986   6.655 -0.9388 -2.4593  0.0105
17240THY    HM327084   6.274   1.127   6.672  0.6598 -2.6031 -0.1926
17240THY    CA627085   6.579   1.213   6.582  0.0711 -0.6782  0.0761
17240THY    HA627086   6.624   1.178   6.675 -0.1781 -0.4562  0.3305
17241THY      O27087   6.393   1.746   5.620  0.6279 -0.5565  0.0188
17241THY     HO27088   6.484   1.728   5.649 -0.0584  1.6040 -0.2543
17241THY    CA127089   6.368   1.681   5.503 -0.4902  0.0914  0.0564
17241THY    CA227090   6.237   1.656   5.457 -0.2147  0.9250 -0.2203
17241THY    CP127091   6.113   1.704   5.538 -0.0082  0.8288 -0.1552
17241THY    HP127092   6.133   1.736   5.641 -1.4325  1.1576 -0.2992
17241THY    CP227093   6.002   1.594   5.535 -0.3360  0.6377 -0.0874
17241THY    HP227094   5.955   1.581   5.437 -0.0699  0.5547 -0.4369
17241THY    HP327095   5.927   1.628   5.607  0.4380  1.7893 -0.7658
17241THY    HP427096   6.049   1.501   5.568  1.4871  1.7579  1.1554
17241THY    CP327097   6.049   1.826   5.457  0.1361  0.0003 -0.4873
17241THY    HP527098   5.944   1.831   5.488 -0.2389 -1.2534 -0.1761
17241THY    HP627099   6.040   1.810   5.349  0.3084  0.0401 -0.8674
17241THY    HP727100   6.098   1.923   5.472  0.8377  0.4160 -0.8978
17241THY    CA327101   6.221   1.599   5.326 -0.2289  0.9627 -0.4223
17241THY    HA327102   6.121   1.599   5.284 -0.2150  0.9091  0.6694
17241THY    CA427103   6.325   1.558   5.244 -0.6891 -0.0870 -0.1231
17241THY    HA427104   6.309   1.534   5.139 -2.2955  0.3606 -1.1693
17241THY    CA527105   6.459   1.567   5.298 -0.1238 -0.1528 -0.1528
17241THY    CM127106   6.569   1.527   5.213  0.0118 -0.0320  0.0062
17241THY    HM127107   6.664   1.549   5.264  0.4621 -1.2207  0.8521
17241THY    HM227108   6.581   1.587   5.123  1.8572  0.7713  0.9017
17241THY    HM327109   6.549   1.419   5.202 -2.0377 -3.4559  0.5948
17241THY    CA627110   6.482   1.631   5.425 -0.2911 -0.1059  0.2445
17241THY    HA627111   6.585   1.645   5.456 -0.1072  0.2360 -1.5615
17242THY      O27112   6.519   0.578   7.168  0.2963  0.5985 -0.0718
17242THY     HO27113   6.541   0.654   7.111  0.3945 -1.5830 -1.6387
17242THY    CA127114   6.551   0.625   7.290  0.1455  0.2855 -0.3579
17242THY    CA227115   6.476   0.594   7.400 -0.1053  0.2398 -0.0563
17242THY    CP127116   6.346   0.527   7.389 -0.0008  0.0730  0.0807
17242THY    HP127117   6.319   0.502   7.286 -1.6317  0.7370 -1.1042
17242THY    CP227118   6.233   0.600   7.462 -1.0107 -0.1519  0.2061
17242THY    HP227119   6.136   0.557   7.435 -0.4758  0.9165 -1.7663
17242THY    HP327120   6.228   0.706   7.433 -2.9837 -0.1162  0.1620
17242THY    HP427121   6.248   0.619   7.569 -0.5916 -0.4539  1.7564
17242THY    CP327122   6.360   0.383   7.458 -0.1670  0.3711  0.0973
17242THY    HP527123   6.446   0.323   7.426  0.1858 -1.5369  1.5224
17242THY    HP627124   6.265   0.329   7.450 -0.7662 -0.3017  1.2055
17242THY    HP727125   6.371   0.397   7.566 -2.2424  0.7167 -0.5108
17242THY    CA327126   6.517   0.641   7.527  0.0301  0.0300 -0.0056
17242THY    HA327127   6.464   0.598   7.612 -1.8554 -2.0653 -2.1169
17242THY    CA427128   6.632   0.724   7.544  0.0377 -0.6958  0.1932
17242THY    HA427129   6.670   0.753   7.641 -2.4204  0.4603 -0.2385
17242THY    CA527130   6.699   0.764   7.427 -0.2237  0.5682 -0.1656
17242THY    CM127131   6.835   0.827   7.435 -0.2686 -0.2302  0.2210
17242THY    HM127132   6.900   0.792   7.516 -0.3583 -0.6060 -0.8391
17242THY    HM227133   6.830   0.936   7.444 -1.7552 -1.1158  0.2525
17242THY    HM327134   6.895   0.802   7.346  0.9694  0.4331  0.7235
17242THY    CA627135   6.659   0.710   7.303  0.5078 -0.3098 -0.2300
17242THY    HA627136   6.724   0.736   7.220 -0.8427 -0.6920  2.2570
17243THY      O27137   4.230   6.197   2.357 -0.2803 -0.3438  0.5053
17243THY     HO27138   4.209   6.292   2.355 -0.0996 -1.0626  0.5428
17243THY    CA127139   4.107   6.123   2.368  0.5041  0.3880  0.2443
17243THY    CA227140   4.102   5.990   2.329  0.0417  0.1965 -0.0014
17243THY    CP127141   4.236   5.918   2.294 -0.5352 -1.0187  0.0796
17243THY    HP127142   4.330   5.974   2.304  0.7835  0.3924 -2.2057
17243THY    CP227143   4.240   5.850   2.154 -0.1453  0.6192 -0.1326
17243THY    HP227144   4.147   5.794   2.134 -0.9553 -2.2715  1.9762
17243THY    HP327145   4.329   5.788   2.145 -0.5217  2.1143 -0.9380
17243THY    HP427146   4.247   5.925   2.074 -2.9780 -1.5262 -1.9434
17243THY    CP327147   4.245   5.814   2.409 -0.6425  0.7869  0.8747
17243THY    HP527148   4.224   5.859   2.507 -1.8294  0.8542  0.2099
17243THY    HP627149   4.343   5.763   2.409 -0.6270 -3.9018  0.4713
17243THY    HP727150   4.164   5.740   2.401  0.5586 -1.3646 -0.3001
17243THY    CA327151   3.974   5.927   2.304  0.0319 -0.4801 -0.2053
17243THY    HA327152   3.970   5.831   2.255 -1.7146 -0.9216  0.0573
17243THY    CA427153   3.854   6.010   2.324  0.7231 -0.8581 -0.8690
17243THY    HA427154   3.757   5.962   2.310  1.2412 -0.1458 -2.1809
17243THY    CA527155   3.863   6.139   2.372 -0.2983 -0.0042  0.2653
17243THY    CM127156   3.742   6.226   2.407 -0.3742 -0.5740 -0.9745
17243THY    HM127157   3.654   6.173   2.444 -1.0432  1.6408  1.4540
17243THY    HM227158   3.710   6.268   2.310  0.1301 -0.6528 -0.7558
17243THY    HM327159   3.759   6.307   2.479  1.1814  0.8848 -2.5039
17243THY    CA627160   3.990   6.199   2.392  0.5608 -1.0210 -0.1121
17243THY    HA627161   3.992   6.301   2.427  0.1221  0.3414 -0.5527
17244THY      O27162   3.300   8.275   2.393  0.2262 -0.1948 -0.1097
17244THY     HO27163   3.352   8.194   2.385 -0.1573  0.5163 -0.4386
17244THY    CA127164   3.221   8.256   2.501  0.1989 -0.0722 -0.5520
17244THY    CA227165   3.130   8.356   2.545  0.2017  0.1510 -0.0285
17244THY    CP127166   3.106   8.476   2.450  0.4947 -0.3431  0.0720
17244THY    HP127167   3.117   8.435   2.349 -0.0979 -0.8140  1.0454
17244THY    CP227168   3.211   8.586   2.468  0.0542  0.0910  0.2710
17244THY    HP227169   3.222   8.650   2.380 -0.7322 -1.1770 -1.2715
17244THY    HP327170   3.308   8.537   2.480  0.9161 -1.0637  1.6380
17244THY    HP427171   3.206   8.633   2.568 -0.2908  0.3586 -0.3236
17244THY    CP327172   2.963   8.533   2.461 -0.0597 -0.4891 -0.3102
17244THY    HP527173   2.888   8.454   2.451 -0.5944 -3.0982  0.4452
17244THY    HP627174   2.955   8.606   2.379  1.7471 -0.3464  0.0863
17244THY    HP727175   2.957   8.585   2.558 -0.7643  0.1101 -1.4823
17244THY    CA327176   3.045   8.329   2.656  0.1527 -0.1889  0.7033
17244THY    HA327177   2.974   8.400   2.698  0.1820  3.6828 -1.2411
17244THY    CA427178   3.074   8.219   2.737 -0.2137 -0.6881  0.6747
17244THY    HA427179   3.020   8.195   2.828  1.7665 -0.0663 -1.9129
17244THY    CA527180   3.166   8.124   2.696 -0.7284 -1.1095  0.3596
17244THY    CM127181   3.210   8.007   2.782  0.6526 -0.0560 -0.3010
17244THY    HM127182   3.233   7.913   2.730 -1.1646 -0.4724 -0.5427
17244THY    HM227183   3.138   7.984   2.862  0.4115  0.4103  1.8350
17244THY    HM327184   3.303   8.045   2.826  1.2510 -1.7273  0.2486
17244THY    CA627185   3.241   8.146   2.581 -0.3597  0.1971  0.1707
17244THY    HA627186   3.323   8.075   2.569 -1.7938  2.2625 -1.9581
17245THY      O27187   5.619   7.721   6.542  0.3218 -0.4564  0.5180
17245THY     HO27188   5.595   7.785   6.611 -0.5909 -1.2615  1.0760
17245THY    CA127189   5.519   7.737   6.457  0.8175 -0.3459 -0.2359
17245THY    CA227190   5.509   7.659   6.340  1.0592 -0.2192 -0.2876
17245THY    CP127191   5.614   7.553   6.299  0.3080 -0.3735  0.1175
17245THY    HP127192   5.711   7.571   6.347  0.8478 -1.6921  0.8339
17245THY    CP227193   5.651   7.551   6.150  0.0155 -0.5660 -0.6500
17245THY    HP227194   5.641   7.654   6.115 -1.5399  1.2506 -0.1170
17245THY    HP327195   5.593   7.474   6.097 -1.6960 -0.1515  0.3020
17245THY    HP427196   5.758   7.531   6.137  1.2497  1.3783  3.5298
17245THY    CP327197   5.567   7.412   6.345 -0.2711 -1.1697  0.9888
17245THY    HP527198   5.490   7.376   6.276 -0.2274 -1.7785  2.0271
17245THY    HP627199   5.531   7.418   6.449  0.2673 -1.0455  2.4490
17245THY    HP727200   5.648   7.337   6.340 -0.8986 -1.7556  0.3317
17245THY    CA327201   5.406   7.689   6.245  0.8657 -0.3856 -0.6318
17245THY    HA327202   5.404   7.633   6.153  0.2947 -1.0543  0.4477
17245THY    CA427203   5.315   7.796   6.266  0.2111 -0.0635 -0.7251
17245THY    HA427204   5.226   7.819   6.208  0.5382  0.3872  1.9349
17245THY    CA527205   5.320   7.861   6.392  0.0979  0.2394 -0.4899
17245THY    CM127206   5.211   7.954   6.437  0.6022 -0.4027  0.0752
17245THY    HM127207   5.158   7.907   6.520  0.9573  0.5807  1.3470
17245THY    HM227208   5.141   7.980   6.357 -0.0193  0.8466  2.5287
17245THY    HM327209   5.254   8.050   6.467 -1.2436 -2.3761  1.6321
17245THY    CA627210   5.417   7.828   6.484 -1.0553 -0.6587  0.6410
17245THY    HA627211   5.416   7.883   6.577  0.2434  0.2778 -0.8385
17246THY      O27212   9.268   7.604   5.225 -1.0356  0.2814 -0.8377
17246THY     HO27213   9.314   7.633   5.305  2.8967 -1.8584 -0.4632
17246THY    CA127214   9.135   7.626   5.243 -0.1931 -0.1980 -0.8646
17246THY    CA227215   9.046   7.592   5.145  0.4213 -0.2464  0.3349
17246THY    CP127216   9.077   7.484   5.033  0.1795  0.1375 -1.4676
17246THY    HP127217   9.186   7.487   5.017 -0.0541 -1.4542  0.2010
17246THY    CP227218   9.019   7.523   4.896 -0.2339  0.7274 -1.0437
17246THY    HP227219   9.051   7.623   4.863 -3.5151 -1.2774 -0.4889
17246THY    HP327220   8.910   7.533   4.906 -0.0621  0.3235  3.8153
17246THY    HP427221   9.030   7.452   4.813  0.2373  0.2200 -0.3956
17246THY    CP327222   9.030   7.345   5.064  0.0411  0.4049  0.5490
17246THY    HP527223   9.068   7.277   4.987  0.5594  1.2528 -0.1533
17246THY    HP627224   8.921   7.330   5.072 -0.1487 -0.8420  1.1922
17246THY    HP727225   9.053   7.316   5.168 -2.0170  0.5842 -0.6794
17246THY    CA327226   8.914   7.636   5.161  0.3534 -0.4294 -0.1081
17246THY    HA327227   8.840   7.587   5.098  1.8486 -0.7527 -2.1011
17246THY    CA427228   8.873   7.714   5.272  0.1488  0.3681 -0.0345
17246THY    HA427229   8.769   7.738   5.287  0.5437  0.1142  1.9479
17246THY    CA527230   8.964   7.745   5.369 -0.1921  0.6760  0.1068
17246THY    CM127231   8.921   7.826   5.490 -0.0644  0.6719 -0.3697
17246THY    HM127232   8.855   7.767   5.555 -0.1512 -0.1591 -1.2126
17246THY    HM227233   8.858   7.910   5.458 -1.1251  1.4872 -0.8237
17246THY    HM327234   9.007   7.871   5.541 -0.6364  1.2832  0.0580
17246THY    CA627235   9.091   7.697   5.355 -0.1880 -0.0219  0.8425
17246THY    HA627236   9.168   7.723   5.426 -1.5056  2.4555 -1.5617
17247THY      O27237   4.206   4.751   3.763  0.0584 -0.2259  0.0946
17247THY     HO27238   4.295   4.744   3.800  0.3290 -0.7416  0.6831
17247THY    CA127239   4.202   4.875   3.727  0.0032 -0.6166 -0.9621
17247THY    CA227240   4.083   4.942   3.699 -0.5361 -0.0957 -0.3599
17247THY    CP127241   3.951   4.877   3.674  0.6806 -0.6441 -0.2295
17247THY    HP127242   3.955   4.771   3.702 -0.6117 -0.5937 -0.2796
17247THY    CP227243   3.916   4.881   3.525  0.5327 -0.3817  0.6345
17247THY    HP227244   3.821   4.829   3.509  0.0056  4.7428 -0.5954
17247THY    HP327245   4.000   4.845   3.464 -0.2392 -2.8964  2.8188
17247THY    HP427246   3.897   4.983   3.489  2.1672  1.7604  1.7984
17247THY    CP327247   3.837   4.951   3.759  0.2570 -0.3399  0.1356
17247THY    HP527248   3.877   4.949   3.861  0.4843 -0.4344 -0.2053
17247THY    HP627249   3.734   4.916   3.742  0.7217 -1.1367 -0.9057
17247THY    HP727250   3.843   5.056   3.731  0.0694 -0.0854  0.2164
17247THY    CA327251   4.102   5.081   3.672  1.0233  0.1368 -0.2347
17247THY    HA327252   4.014   5.144   3.664 -0.2588  1.4770 -1.7814
17247THY    CA427253   4.221   5.140   3.684  0.8179  1.2764  0.2208
17247THY    HA427254   4.227   5.247   3.671  0.1740 -2.7861 -0.0662
17247THY    CA527255   4.338   5.063   3.698  0.1071  0.5086 -0.1580
17247THY    CM127256   4.463   5.133   3.688  0.1630 -0.3139  1.4643
17247THY    HM127257   4.453   5.236   3.651  0.3237 -1.3952  1.0964
17247THY    HM227258   4.539   5.090   3.622 -0.0340  0.0073  0.6135
17247THY    HM327259   4.501   5.135   3.791 -0.1899 -0.1679  0.6542
17247THY    CA627260   4.326   4.930   3.728 -0.4772 -0.2029 -0.3138
17247THY    HA627261   4.411   4.869   3.757 -2.3621  2.3235 -1.9387
17248THY      O27262   9.085   3.797   2.794  0.0827 -0.2328  0.1208
17248THY     HO27263   9.097   3.884   2.752  2.5263 -0.9623 -0.4829
17248THY    CA127264   9.047   3.822   2.920  0.1545 -0.2713 -0.2218
17248THY    CA227265   8.936   3.763   2.984 -1.1795  0.2313 -0.3882
17248THY    CP127266   8.859   3.658   2.910 -0.6931  0.0332 -0.0582
17248THY    HP127267   8.912   3.643   2.815 -1.3565  0.0360 -2.8271
17248THY    CP227268   8.711   3.693   2.894  0.1583  0.4195 -0.1023
17248THY    HP227269   8.700   3.790   2.846 -1.5435  0.4038 -0.2734
17248THY    HP327270   8.663   3.683   2.992  1.1865  0.8453 -1.1564
17248THY    HP427271   8.662   3.623   2.826  0.7478  0.4633 -0.5677
17248THY    CP327272   8.870   3.525   2.989 -0.0520  0.2155  0.2360
17248THY    HP527273   8.940   3.536   3.073  1.8388 -1.1860 -0.5899
17248THY    HP627274   8.912   3.443   2.931  0.3292 -1.5404  1.6187
17248THY    HP727275   8.776   3.488   3.033 -0.3069 -0.0065  0.6052
17248THY    CA327276   8.900   3.804   3.117  0.8405 -0.1479  0.5634
17248THY    HA327277   8.814   3.754   3.162  0.7531 -0.7046  0.2032
17248THY    CA427278   8.984   3.887   3.180 -1.3375 -0.6418 -0.2364
17248THY    HA427279   8.959   3.926   3.278 -1.0074 -0.2133 -1.0796
17248THY    CA527280   9.098   3.940   3.119 -0.0722 -0.0135  0.0514
17248THY    CM127281   9.174   4.047   3.190 -0.0347  0.1499 -0.2999
17248THY    HM127282   9.110   4.124   3.235  0.1704  1.9457 -1.1053
17248THY    HM227283   9.252   4.081   3.121  0.2049 -0.2393 -1.6049
17248THY    HM327284   9.231   4.005   3.274 -0.6382  0.3303 -0.7696
17248THY    CA627285   9.132   3.905   2.996  0.0114 -0.0205 -0.3353
17248THY    HA627286   9.213   3.960   2.950 -1.5461 -1.0818  1.1839
17249THY      O27287   6.291   5.914   2.517  0.2495 -0.3680  0.1949
17249THY     HO27288   6.251   6.001   2.497 -2.5698 -0.5439 -1.0201
17249THY    CA127289   6.300   5.892   2.645  0.0754  0.3740  0.0168
17249THY    CA227290   6.374   5.786   2.701 -0.1400 -0.0039 -0.2127
17249THY    CP127291   6.456   5.698   2.603 -0.5145  0.3830  0.0516
17249THY    HP127292   6.424   5.715   2.500  0.2142  0.1666  0.1303
17249THY    CP227293   6.445   5.548   2.644 -0.6149  0.3086 -0.1683
17249THY    HP227294   6.521   5.519   2.718 -1.6494  0.9401 -1.3670
17249THY    HP327295   6.452   5.472   2.565 -0.6068  0.6021 -0.4739
17249THY    HP427296   6.343   5.535   2.681 -0.8805  1.0263  3.1519
17249THY    CP327297   6.604   5.732   2.587  0.1411 -0.7742  0.1669
17249THY    HP527298   6.621   5.840   2.580 -4.0969 -2.2514  0.9285
17249THY    HP627299   6.647   5.692   2.494 -0.6241 -0.5053 -1.3398
17249THY    HP727300   6.656   5.708   2.680 -1.8748  0.5485  0.6375
17249THY    CA327301   6.392   5.777   2.838  0.4039 -0.2639  0.2119
17249THY    HA327302   6.454   5.698   2.878 -0.3650  1.2107  0.3274
17249THY    CA427303   6.328   5.867   2.919 -0.6811  0.3199 -0.3056
17249THY    HA427304   6.332   5.847   3.026 -0.1662  0.2595 -0.5553
17249THY    CA527305   6.254   5.974   2.859  0.0843 -0.2496  0.0078
17249THY    CM127306   6.195   6.083   2.942  0.1376 -0.3602 -0.4836
17249THY    HM127307   6.166   6.176   2.893 -1.9162  1.7928  0.1026
17249THY    HM227308   6.256   6.098   3.032 -2.3326  1.5814 -1.3751
17249THY    HM327309   6.101   6.046   2.984 -0.0839 -0.6371 -0.2378
17249THY    CA627310   6.238   5.978   2.727 -0.6090  0.2479 -0.4068
17249THY    HA627311   6.169   6.055   2.695 -2.1335  4.2229  0.1009
17250THY      O27312   3.221   1.255   3.124 -0.1353  0.2608 -0.1762
17250THY     HO27313   3.287   1.295   3.066 -2.2489 -1.1297  1.4821
17250THY    CA127314   3.190   1.362   3.198 -0.3291 -0.0679  0.1783
17250THY    CA227315   3.079   1.352   3.288 -0.3496  0.1503 -0.4202
17250THY    CP127316   3.000   1.226   3.297 -0.5992 -0.2324  0.5684
17250THY    HP127317   3.079   1.150   3.308 -1.0891  0.5929  0.1639
17250THY    CP227318   2.913   1.196   3.171 -1.1391 -0.3685 -0.5798
17250THY    HP227319   2.898   1.089   3.155 -0.1929 -0.4528 -0.7107
17250THY    HP327320   2.964   1.239   3.084 -1.3225  0.8733  2.4392
17250THY    HP427321   2.813   1.241   3.173 -0.6321 -1.2484  0.6444
17250THY    CP327322   2.926   1.200   3.432 -0.0512 -0.5920  1.1033
17250THY    HP527323   2.872   1.105   3.426  0.6959  0.3611  0.5955
17250THY    HP627324   2.853   1.280   3.447 -0.0224  0.5452  0.9285
17250THY    HP727325   2.996   1.210   3.516 -0.7748 -0.1463  2.6689
17250THY    CA327326   3.050   1.468   3.366 -0.6192 -0.5922  0.5350
17250THY    HA327327   2.956   1.472   3.420 -1.0676 -1.3313  0.1041
17250THY    CA427328   3.142   1.573   3.377 -0.1306  0.0678  0.3219
17250THY    HA427329   3.115   1.655   3.443 -2.8493 -2.1761  1.4158
17250THY    CA527330   3.253   1.569   3.295 -0.5156 -0.0514 -0.5071
17250THY    CM127331   3.350   1.687   3.290  0.1809 -0.4005 -0.3235
17250THY    HM127332   3.336   1.746   3.382 -0.2411  0.8011 -2.2194
17250THY    HM227333   3.334   1.742   3.197 -1.4025 -0.5401 -0.9652
17250THY    HM327334   3.447   1.638   3.290 -0.9821 -0.7841 -2.7523
17250THY    CA627335   3.279   1.459   3.204  0.0736 -0.3854 -0.2165
17250THY    HA627336   3.365   1.459   3.138  1.2951  1.1306 -0.7564
17251THY      O27337   6.415   0.280   2.667 -0.4440  0.4107  0.0015
17251THY     HO27338   6.427   0.259   2.762  0.2218 -0.0688 -1.9658
17251THY    CA127339   6.438   0.414   2.650 -0.1847 -0.7190 -0.5900
17251THY    CA227340   6.426   0.474   2.524 -0.0357 -0.3036 -0.5182
17251THY    CP127341   6.390   0.390   2.403  0.1753 -0.3477  0.8042
17251THY    HP127342   6.352   0.292   2.431  1.2943  2.0921  0.9837
17251THY    CP227343   6.515   0.370   2.317  0.5258 -0.4312  0.1550
17251THY    HP227344   6.528   0.458   2.253 -0.5466 -0.7797  0.0788
17251THY    HP327345   6.493   0.295   2.239 -3.2522  0.9274 -0.3843
17251THY    HP427346   6.601   0.342   2.378  1.0132 -1.9878 -2.0136
17251THY    CP327347   6.278   0.459   2.329  0.2726  0.5847  0.8328
17251THY    HP527348   6.317   0.537   2.262 -2.7372 -2.7904 -0.2739
17251THY    HP627349   6.203   0.504   2.394 -3.0523 -2.3175 -0.0837
17251THY    HP727350   6.221   0.391   2.265  1.3953  0.5277 -0.0861
17251THY    CA327351   6.448   0.614   2.507 -0.2351  0.1619  0.6983
17251THY    HA327352   6.421   0.663   2.414 -2.6821 -0.1257 -1.0345
17251THY    CA427353   6.475   0.693   2.622  0.4597 -0.3161 -0.9958
17251THY    HA427354   6.477   0.802   2.615  1.2285 -2.9554 -1.1052
17251THY    CA527355   6.478   0.626   2.749 -0.6217  0.3008 -0.4799
17251THY    CM127356   6.510   0.706   2.871  0.6947  0.7524  0.2306
17251THY    HM127357   6.422   0.770   2.886  0.8592 -0.7374  0.8413
17251THY    HM227358   6.602   0.765   2.871  0.7101 -0.7484  0.2424
17251THY    HM327359   6.518   0.642   2.960 -0.1957  0.7973  0.1612
17251THY    CA627360   6.462   0.490   2.761  0.1433 -0.0437 -0.0077
17251THY    HA627361   6.479   0.444   2.859 -2.1241  1.3700  1.9397
17252THY      O27362   2.678   3.205   5.900  0.0770  0.2925  0.4411
17252THY     HO27363   2.672   3.127   5.842  0.7308  0.5454  0.1946
17252THY    CA127364   2.730   3.298   5.818  0.1842 -0.3868  0.2093
17252THY    CA227365   2.728   3.431   5.860 -0.3064 -0.2852  0.3341
17252THY    CP127366   2.656   3.469   5.989  0.2453 -0.8029  0.1511
17252THY    HP127367   2.670   3.401   6.073 -1.6778  0.2135  0.9364
17252THY    CP227368   2.505   3.476   5.977 -0.4737 -0.0747 -0.0695
17252THY    HP227369   2.468   3.497   6.078  1.3837  0.8640 -1.0520
17252THY    HP327370   2.481   3.375   5.941 -2.2239 -1.7209  0.8785
17252THY    HP427371   2.490   3.549   5.897  1.7995  0.2859  0.8820
17252THY    CP327372   2.697   3.602   6.048 -0.7340 -0.1584  0.3073
17252THY    HP527373   2.804   3.601   6.069 -0.5028 -1.3096 -0.2993
17252THY    HP627374   2.640   3.617   6.140 -0.4406 -0.0460  0.7623
17252THY    HP727375   2.679   3.687   5.981 -0.9976 -0.9251 -0.3367
17252THY    CA327376   2.779   3.539   5.776 -0.1733 -0.0270  0.2658
17252THY    HA327377   2.784   3.645   5.800 -1.3638  0.0434  0.3150
17252THY    CA427378   2.838   3.496   5.657 -0.3107 -0.4502  0.0428
17252THY    HA427379   2.892   3.565   5.593 -1.9260 -3.6046 -1.4149
17252THY    CA527380   2.840   3.360   5.621 -0.3744  0.5372  0.1367
17252THY    CM127381   2.894   3.311   5.489  0.2687  0.0158  0.0478
17252THY    HM127382   2.909   3.203   5.480  0.7674  1.9023 -0.0775
17252THY    HM227383   2.992   3.361   5.485  0.2317 -3.7107  0.0994
17252THY    HM327384   2.835   3.346   5.404  0.1103  0.1172  0.0248
17252THY    CA627385   2.784   3.260   5.702  0.6432  0.8150  0.1176
17252THY    HA627386   2.775   3.157   5.671 -0.6513 -0.8581  0.6892
17253THY      O27387   8.040   7.202   5.349  0.1996  0.4623  0.0227
17253THY     HO27388   8.028   7.106   5.358  0.5246 -0.7331 -0.1449
17253THY    CA127389   7.973   7.230   5.238 -0.0353 -0.3312  0.7540
17253THY    CA227390   7.888   7.346   5.231 -0.3973  0.4948 -0.1787
17253THY    CP127391   7.884   7.441   5.346 -0.4267 -0.5147  0.5259
17253THY    HP127392   7.916   7.394   5.440  0.4628  1.3770  4.5382
17253THY    CP227393   7.751   7.500   5.374  0.0377 -0.1775  1.0822
17253THY    HP227394   7.679   7.419   5.361  0.2660  2.0046  0.4459
17253THY    HP327395   7.733   7.584   5.307 -1.0968 -4.2137 -2.0742
17253THY    HP427396   7.737   7.543   5.474 -1.3828  1.3524 -2.5450
17253THY    CP327397   7.985   7.547   5.324  0.1022 -0.2313  0.2523
17253THY    HP527398   8.085   7.504   5.308  0.7455  2.5747  0.5090
17253THY    HP627399   8.001   7.609   5.413  0.4746  0.4349 -0.7701
17253THY    HP727400   7.965   7.593   5.226  0.2713 -0.7323 -0.7101
17253THY    CA327401   7.833   7.381   5.101 -0.8648  0.9933  0.6234
17253THY    HA327402   7.776   7.473   5.087  0.1435 -0.6862  1.0355
17253THY    CA427403   7.854   7.292   4.993  0.0097  0.0463 -0.2109
17253THY    HA427404   7.803   7.315   4.900 -1.0994  0.7413  0.2171
17253THY    CA527405   7.947   7.190   5.004 -0.2825 -0.3564  0.0309
17253THY    CM127406   7.994   7.116   4.884  0.7943 -0.2060 -0.3914
17253THY    HM127407   8.103   7.105   4.883  0.7752 -0.2588 -0.5895
17253THY    HM227408   7.976   7.152   4.783 -0.4654  0.4417  0.8878
17253THY    HM327409   7.955   7.013   4.881  0.4526 -0.4302 -0.2557
17253THY    CA627410   8.009   7.156   5.127  0.2094  0.1462 -0.4637
17253THY    HA627411   8.080   7.075   5.119 -0.3821 -3.3477 -0.8070
17254THY      O27412   1.935   2.091   6.324  0.3196 -0.7730  0.6598
17254THY     HO27413   1.881   2.013   6.302 -1.2593  1.8281  0.8884
17254THY    CA127414   2.054   2.048   6.372 -0.4133 -0.2479 -0.1629
17254THY    CA227415   2.159   2.136   6.418  0.0933  0.1756  0.3843
17254THY    CP127416   2.142   2.285   6.417  0.3013 -0.1331 -0.4971
17254THY    HP127417   2.056   2.305   6.352 -0.4342  0.7551 -0.7450
17254THY    CP227418   2.261   2.358   6.364 -0.4633  0.1033  0.4538
17254THY    HP227419   2.352   2.359   6.425  0.1863 -0.8241 -0.4004
17254THY    HP327420   2.238   2.464   6.351 -2.6451 -0.7316 -0.0715
17254THY    HP427421   2.279   2.313   6.266 -2.4887  0.2396 -0.7724
17254THY    CP327422   2.118   2.331   6.562 -0.2208  0.1286  0.7243
17254THY    HP527423   2.212   2.320   6.618 -0.1973 -0.3441 -2.4020
17254THY    HP627424   2.048   2.258   6.603 -0.1179 -2.1968 -0.7953
17254THY    HP727425   2.084   2.435   6.566  0.2988  3.4445  0.8531
17254THY    CA327426   2.284   2.079   6.466 -0.2414 -0.0484  0.5040
17254THY    HA327427   2.369   2.145   6.482  0.5975  0.6587 -0.7156
17254THY    CA427428   2.292   1.944   6.479 -0.5397  0.3473  0.7371
17254THY    HA427429   2.379   1.892   6.520 -0.0967 -1.7069 -0.2465
17254THY    CA527430   2.187   1.854   6.443  1.0030  1.1547 -0.2827
17254THY    CM127431   2.197   1.705   6.448  0.3637 -0.5352 -0.0091
17254THY    HM127432   2.302   1.674   6.444  1.6252  1.7506  3.4371
17254THY    HM227433   2.150   1.663   6.358  4.2590 -2.4617 -0.6747
17254THY    HM327434   2.155   1.653   6.535  1.3481 -0.2423 -0.3302
17254THY    CA627435   2.067   1.908   6.389 -0.1397 -0.4804 -0.3176
17254THY    HA627436   1.989   1.845   6.346 -1.0435  0.3963  0.1770
17255THY      O27437   5.823   4.508   4.714  0.0088 -0.5591  0.0159
17255THY     HO27438   5.749   4.509   4.776  0.0865 -0.3515 -2.2645
17255THY    CA127439   5.808   4.379   4.672  0.4902  0.1244  0.3262
17255THY    CA227440   5.912   4.299   4.622 -0.4788 -0.1899 -1.7406
17255THY    CP127441   6.053   4.363   4.613  0.4202 -0.1154  0.5308
17255THY    HP127442   6.053   4.469   4.640 -2.2232  2.7773 -0.0472
17255THY    CP227443   6.117   4.359   4.470 -0.2641  0.2740 -0.1756
17255THY    HP227444   6.222   4.388   4.477  0.0814  1.6281 -1.6254
17255THY    HP327445   6.065   4.410   4.388  0.1067  0.9336  1.3161
17255THY    HP427446   6.122   4.254   4.440 -0.7410  0.5463 -0.2794
17255THY    CP327447   6.145   4.285   4.718  0.8375  0.6693  0.6446
17255THY    HP527448   6.115   4.306   4.821 -0.1414  0.2539  1.4436
17255THY    HP627449   6.247   4.325   4.720  0.5867  0.8713  1.2990
17255THY    HP727450   6.140   4.176   4.711  1.0999  1.0506  0.6066
17255THY    CA327451   5.894   4.167   4.587  0.0899 -0.5322 -0.3378
17255THY    HA327452   5.972   4.105   4.543  0.3198  0.0887 -0.5022
17255THY    CA427453   5.765   4.114   4.607 -0.3086  0.3593 -0.0659
17255THY    HA427454   5.737   4.015   4.570  3.6804 -1.5083 -0.6942
17255THY    CA527455   5.662   4.188   4.662 -0.5178 -0.6796 -0.1807
17255THY    CM127456   5.524   4.143   4.678 -0.1282 -0.4006  0.4619
17255THY    HM127457   5.497   4.160   4.783 -0.3972  0.0581 -2.2684
17255THY    HM227458   5.523   4.034   4.663 -1.6626 -2.1793  0.6739
17255THY    HM327459   5.444   4.184   4.616 -2.0832  0.9851 -1.0145
17255THY    CA627460   5.687   4.321   4.696 -0.3072  0.3711  0.3645
17255THY    HA627461   5.601   4.376   4.733 -1.4024 -0.7241 -0.5537
17256THY      O27462   9.089   6.606   5.662 -0.2570 -0.1766  0.0333
17256THY     HO27463   9.076   6.512   5.640 -2.4460 -1.3150  0.5191
17256THY    CA127464   9.059   6.679   5.552 -0.3307 -0.5416 -0.1538
17256THY    CA227465   9.103   6.815   5.536 -0.4092 -0.0741  0.3119
17256THY    CP127466   9.141   6.898   5.661 -0.0459  0.4536  0.6933
17256THY    HP127467   9.147   6.843   5.756  0.9879  0.5321  0.9157
17256THY    CP227468   9.041   7.012   5.677  0.2122 -0.8187 -1.0178
17256THY    HP227469   8.937   6.977   5.688 -0.9718 -1.0160  2.1335
17256THY    HP327470   9.028   7.070   5.586 -0.6681 -0.3126 -0.3965
17256THY    HP427471   9.073   7.070   5.764 -1.2081 -0.6267 -0.4792
17256THY    CP327472   9.285   6.958   5.652  0.0088 -0.3371  0.0052
17256THY    HP527473   9.364   6.886   5.626  1.4203  1.0848  0.9831
17256THY    HP627474   9.317   6.999   5.749  1.0983  0.3389 -2.2803
17256THY    HP727475   9.285   7.046   5.586  0.3890  0.9308  0.9908
17256THY    CA327476   9.108   6.880   5.410  0.1533 -1.0441 -0.1179
17256THY    HA327477   9.130   6.986   5.404 -1.2705 -1.9237  0.1560
17256THY    CA427478   9.058   6.812   5.303 -0.4426 -0.2117 -0.4951
17256THY    HA427479   9.040   6.868   5.211 -1.7898  1.4540  2.0239
17256THY    CA527480   9.005   6.681   5.320  0.3402  0.1057  0.0338
17256THY    CM127481   8.951   6.609   5.193  0.4406 -0.1376 -0.0476
17256THY    HM127482   8.983   6.646   5.096  3.1402  0.8755  0.4740
17256THY    HM227483   8.842   6.619   5.183  0.3507  0.2367 -0.5693
17256THY    HM327484   8.977   6.503   5.198 -0.4696 -1.8772 -0.3889
17256THY    CA627485   9.006   6.615   5.443  0.0500 -0.2008  0.2100
17256THY    HA627486   8.979   6.510   5.450  1.3458  1.1154 -0.0765
17257THY      O27487   3.764   7.914   4.306 -0.0604  0.4678  0.7223
17257THY     HO27488   3.742   7.821   4.320  1.1829  1.9653  0.6163
17257THY    CA127489   3.861   7.934   4.393  0.3421 -1.0327 -0.4926
17257THY    CA227490   3.942   8.044   4.386  0.0399  0.0425 -0.9664
17257THY    CP127491   3.915   8.152   4.286  0.0793  0.2221 -0.9593
17257THY    HP127492   3.831   8.129   4.220  0.3111 -1.6435  2.7660
17257THY    CP227493   4.026   8.165   4.187 -0.7222  0.2748 -0.3751
17257THY    HP227494   4.046   8.066   4.146 -0.2099  0.4493 -0.3535
17257THY    HP327495   4.120   8.194   4.236 -0.8062  0.7494 -0.8856
17257THY    HP427496   4.002   8.236   4.107 -1.4456  0.3024 -0.5824
17257THY    CP327497   3.886   8.287   4.355 -0.0417  0.1048  0.0680
17257THY    HP527498   3.864   8.357   4.273 -1.8474  0.4238 -0.0684
17257THY    HP627499   3.974   8.321   4.410  0.0835  0.9019 -1.4714
17257THY    HP727500   3.804   8.269   4.425  0.3042  0.3286 -0.6636
17257THY    CA327501   4.052   8.052   4.475  0.0295  0.2870 -0.2319
17257THY    HA327502   4.121   8.136   4.475 -0.5537 -0.0136  0.2540
17257THY    CA427503   4.093   7.940   4.553  0.3997  0.5886  0.1501
17257THY    HA427504   4.188   7.936   4.606  0.7967 -0.1510 -1.4371
17257THY    CA527505   4.016   7.822   4.546 -0.1715 -0.5083  0.1972
17257THY    CM127506   4.054   7.695   4.614  0.0567  0.4293  0.1762
17257THY    HM127507   4.154   7.684   4.657  0.4237 -0.7178 -1.4013
17257THY    HM227508   4.059   7.615   4.539  1.0009  1.6198 -0.9190
17257THY    HM327509   3.978   7.659   4.685  0.0480  0.3181 -0.0291
17257THY    CA627510   3.903   7.826   4.465 -0.2094  0.1117  0.1151
17257THY    HA627511   3.850   7.731   4.461  0.4030 -2.0903 -0.1913
17258THY      O27512   2.171   4.973   2.095 -0.3046  0.0722  0.5092
17258THY     HO27513   2.255   4.960   2.047 -1.1254 -1.3162  0.0433
17258THY    CA127514   2.075   4.931   2.017  0.2097 -0.1209  0.7146
17258THY    CA227515   1.966   4.865   2.075  0.3918 -0.1275  0.2706
17258THY    CP127516   1.945   4.876   2.229 -0.5453 -0.2490 -0.7284
17258THY    HP127517   1.976   4.977   2.259 -0.0758 -0.1201 -0.9120
17258THY    CP227518   2.013   4.762   2.302 -0.0962 -0.6705  0.0371
17258THY    HP227519   2.117   4.740   2.272 -0.6303 -1.1099 -2.1163
17258THY    HP327520   1.948   4.675   2.288 -2.1910  1.1503  1.2114
17258THY    HP427521   2.006   4.769   2.411  0.1070 -0.5246 -1.5506
17258THY    CP327522   1.797   4.880   2.266 -0.1342 -1.2477 -0.3793
17258THY    HP527523   1.793   4.910   2.371 -0.3266 -1.4638  0.3801
17258THY    HP627524   1.743   4.787   2.245  1.9999 -0.9451 -1.7578
17258THY    HP727525   1.749   4.964   2.215  0.9069 -0.0521  0.9848
17258THY    CA327526   1.868   4.805   1.993  0.0585 -0.2399 -0.6521
17258THY    HA327527   1.779   4.758   2.033  0.6156  1.5683 -0.2735
17258THY    CA427528   1.900   4.796   1.860 -0.3688  0.5343  0.0285
17258THY    HA427529   1.833   4.732   1.803 -0.1798 -0.9543  1.1131
17258THY    CA527530   2.009   4.864   1.797 -0.1200  0.8992 -0.0614
17258THY    CM127531   2.022   4.851   1.645 -0.6287 -0.2198  0.0716
17258THY    HM127532   2.063   4.938   1.593 -0.7167 -0.1142  0.1766
17258THY    HM227533   1.923   4.825   1.604 -1.7533  1.5692  1.2684
17258THY    HM327534   2.090   4.768   1.623 -0.8119 -1.1543  0.1580
17258THY    CA627535   2.103   4.924   1.879 -0.4579  0.0065 -1.0769
17258THY    HA627536   2.196   4.970   1.845 -0.6576  0.6975 -0.1320
17259THY      O27537   8.048   7.019   2.934  0.0136 -0.2607 -0.1213
17259THY     HO27538   8.113   7.006   2.863 -0.2420 -0.1908 -2.1555
17259THY    CA127539   7.941   7.090   2.887 -0.5345  0.4550  0.0460
17259THY    CA227540   7.882   7.193   2.961 -0.5081  0.3019  0.7147
17259THY    CP127541   7.925   7.224   3.107 -0.3947 -0.6982 -0.9934
17259THY    HP127542   8.027   7.190   3.129 -0.8249 -0.0328 -1.8848
17259THY    CP227543   7.830   7.166   3.211  0.4887 -0.3831  0.0513
17259THY    HP227544   7.725   7.169   3.178  0.0591  0.6589 -1.7879
17259THY    HP327545   7.850   7.214   3.307  0.8029  0.2584 -1.3274
17259THY    HP427546   7.869   7.065   3.228  1.0834 -0.0494  0.3358
17259THY    CP327547   7.936   7.379   3.127 -0.0573  0.0011 -0.5237
17259THY    HP527548   8.007   7.429   3.060  1.0357  2.7345  1.8464
17259THY    HP627549   7.971   7.416   3.224 -1.8118  1.0885 -1.5806
17259THY    HP727550   7.839   7.425   3.105  0.6604 -0.4743  0.8136
17259THY    CA327551   7.775   7.265   2.900 -0.5249 -0.5880 -0.6021
17259THY    HA327552   7.733   7.352   2.950 -0.3804 -0.3738 -0.6546
17259THY    CA427553   7.747   7.245   2.766 -0.0390 -0.3676  0.7278
17259THY    HA427554   7.675   7.300   2.706  0.5024 -1.5751  0.1704
17259THY    CA527555   7.810   7.141   2.691  0.1512  0.5985 -0.2900
17259THY    CM127556   7.775   7.126   2.540  0.0034  0.0895  0.3878
17259THY    HM127557   7.669   7.099   2.529  0.0525  0.1810  0.1557
17259THY    HM227558   7.850   7.060   2.495  1.4135 -0.2567  2.1481
17259THY    HM327559   7.789   7.220   2.485  1.7632  0.8769  0.6297
17259THY    CA627560   7.901   7.058   2.757 -0.1721  0.7156 -0.0400
17259THY    HA627561   7.967   6.987   2.707  0.3677  0.0038  0.9384
17260THY      O27562   4.961   1.879   5.855 -0.0420  0.5160  0.5463
17260THY     HO27563   5.010   1.962   5.864  1.0451 -4.0773  0.6784
17260THY    CA127564   4.971   1.858   5.724  0.6251  0.0610 -0.7055
17260THY    CA227565   4.883   1.779   5.651  0.2513 -0.0626 -0.7805
17260THY    CP127566   4.751   1.730   5.714 -0.1337  0.2743  0.1859
17260THY    HP127567   4.762   1.748   5.822 -2.9806  0.1623  3.5788
17260THY    CP227568   4.716   1.584   5.708  0.3326  0.0293 -0.1272
17260THY    HP227569   4.615   1.566   5.747 -0.0597  0.3153  2.2716
17260THY    HP327570   4.789   1.538   5.775  0.3416  1.3085  1.6242
17260THY    HP427571   4.744   1.549   5.608  3.3341 -0.2467  2.5895
17260THY    CP327572   4.633   1.810   5.669  0.0690  0.1428 -0.0190
17260THY    HP527573   4.668   1.913   5.675  1.4282 -1.7508 -0.3050
17260THY    HP627574   4.541   1.792   5.726  0.9297  1.1718 -1.3042
17260THY    HP727575   4.609   1.790   5.564  1.0857 -0.8336  3.2695
17260THY    CA327576   4.894   1.765   5.504  0.5823 -0.5561 -0.6708
17260THY    HA327577   4.819   1.715   5.443 -0.5387  1.1323 -1.1425
17260THY    CA427578   5.006   1.834   5.449  0.4007 -0.3459  0.4340
17260THY    HA427579   5.026   1.831   5.342 -0.7822 -0.5698 -1.8932
17260THY    CA527580   5.099   1.898   5.526  0.3610 -0.1311  0.3954
17260THY    CM127581   5.217   1.947   5.461  0.5165 -0.1565  0.4665
17260THY    HM127582   5.247   2.024   5.533 -4.9089  0.8998  2.0117
17260THY    HM227583   5.207   1.989   5.360  0.8380 -0.9662 -1.3012
17260THY    HM327584   5.298   1.873   5.454  0.8232  0.8833  0.6907
17260THY    CA627585   5.084   1.912   5.660 -0.2458 -0.3329 -0.2485
17260THY    HA627586   5.164   1.951   5.722  0.6497  0.6229 -3.3102
17261THY      O27587   4.697   4.425   4.393  0.8910  0.7829  0.2158
17261THY     HO27588   4.655   4.486   4.331  0.1880  0.1468 -0.8830
17261THY    CA127589   4.766   4.323   4.328 -0.8176 -0.1150 -0.6915
17261THY    CA227590   4.754   4.191   4.364  0.4128  1.2526  0.1657
17261THY    CP127591   4.704   4.155   4.500  0.3046 -0.4130 -0.5251
17261THY    HP127592   4.722   4.236   4.571 -1.7040 -1.2585  0.7325
17261THY    CP227593   4.782   4.044   4.566  0.2101  0.4579  0.5399
17261THY    HP227594   4.889   4.064   4.577  0.5603  0.3855 -1.1052
17261THY    HP327595   4.761   3.950   4.513 -1.2039  0.9113  0.5650
17261THY    HP427596   4.734   4.036   4.664  0.0349  0.3097 -0.4749
17261THY    CP327597   4.554   4.134   4.505 -0.4863  0.5182 -0.3808
17261THY    HP527598   4.519   4.131   4.608  0.5244  0.9430  1.3992
17261THY    HP627599   4.548   4.039   4.450  1.9877 -0.7099  0.0772
17261THY    HP727600   4.505   4.217   4.453  0.1736 -2.9849 -1.9912
17261THY    CA327601   4.820   4.101   4.273  0.3844 -0.3490  0.4661
17261THY    HA327602   4.820   3.994   4.295  0.5289 -1.8532  0.1386
17261THY    CA427603   4.895   4.142   4.164 -0.6419 -0.3220  0.0131
17261THY    HA427604   4.946   4.073   4.097 -1.8683 -0.0136 -1.2531
17261THY    CA527605   4.904   4.278   4.133  0.2413 -0.1586  0.4676
17261THY    CM127606   4.981   4.324   4.014 -0.4049  0.2687  0.7689
17261THY    HM127607   4.940   4.414   3.967 -0.7710 -2.4614 -0.7050
17261THY    HM227608   4.968   4.246   3.938  0.9508  1.8044 -1.0223
17261THY    HM327609   5.088   4.326   4.035 -0.7208  2.1978 -0.5122
17261THY    CA627610   4.837   4.369   4.215 -0.5821  0.0778  0.7575
17261THY    HA627611   4.847   4.474   4.189 -2.6975 -1.4514  0.6482
17262THY      O27612   6.742   2.908   2.513  0.0370  0.1698  0.3075
17262THY     HO27613   6.768   2.850   2.585 -1.3779  1.7756  1.5595
17262THY    CA127614   6.668   2.993   2.582  0.5417  0.3406  0.7815
17262THY    CA227615   6.572   3.079   2.526 -0.1611  0.4967  0.3796
17262THY    CP127616   6.546   3.077   2.379  0.7087  0.8312  0.0180
17262THY    HP127617   6.619   3.012   2.328 -0.4951  0.0577 -0.7688
17262THY    CP227618   6.568   3.216   2.323  0.0962  0.3136 -0.1132
17262THY    HP227619   6.667   3.254   2.350  0.4184 -1.9578  0.8302
17262THY    HP327620   6.492   3.285   2.361 -0.5516 -2.2028  0.6863
17262THY    HP427621   6.558   3.222   2.214 -0.7715  0.4500  1.9960
17262THY    CP327622   6.404   3.031   2.343  0.2759 -0.1030  0.2223
17262THY    HP527623   6.404   2.923   2.359  0.6595  1.7603  0.4679
17262THY    HP627624   6.367   3.051   2.242 -0.7512 -0.3080 -2.3972
17262THY    HP727625   6.341   3.090   2.412  1.5666 -0.4775  2.1380
17262THY    CA327626   6.505   3.163   2.615  0.2573 -0.4327 -0.0447
17262THY    HA327627   6.430   3.234   2.580  0.3378 -0.5152 -0.0006
17262THY    CA427628   6.526   3.154   2.757 -0.1493  0.2258 -0.7091
17262THY    HA427629   6.473   3.220   2.825 -0.3792 -0.9871  0.4093
17262THY    CA527630   6.607   3.054   2.810 -0.6825  0.1926 -0.2118
17262THY    CM127631   6.616   3.018   2.953 -0.4841 -0.4899  0.0320
17262THY    HM127632   6.521   3.042   3.003  0.7163  1.2022  1.5326
17262THY    HM227633   6.692   3.072   3.010 -1.0523  1.4647 -1.1507
17262THY    HM327634   6.635   2.911   2.965 -4.2093 -0.4165 -0.7629
17262THY    CA627635   6.687   2.980   2.722  0.6395 -0.2374  0.7912
17262THY    HA627636   6.759   2.911   2.764  1.9967 -1.2676  1.5214
17263THY      O27637   7.296   6.668   2.362  0.0952  0.3256 -0.5615
17263THY     HO27638   7.384   6.675   2.322 -0.2233 -0.3570 -0.4560
17263THY    CA127639   7.231   6.561   2.321  0.3095 -0.0623 -0.1516
17263THY    CA227640   7.106   6.534   2.378 -0.0903  1.1095 -0.3700
17263THY    CP127641   7.043   6.626   2.488  0.3875  0.2155 -0.2371
17263THY    HP127642   7.099   6.712   2.527  0.4348  0.8352 -0.5489
17263THY    CP227643   7.012   6.541   2.614  0.0054  0.4135  0.6284
17263THY    HP227644   7.034   6.604   2.701  2.6089 -0.1981  0.6820
17263THY    HP327645   7.071   6.449   2.620 -2.1948 -1.8792 -1.0586
17263THY    HP427646   6.912   6.498   2.611  0.5914 -1.4255 -0.7495
17263THY    CP327647   6.906   6.693   2.447 -0.3233 -0.6417 -0.0001
17263THY    HP527648   6.915   6.778   2.378 -0.0565 -1.3131 -0.5648
17263THY    HP627649   6.872   6.739   2.540  1.1485  0.3357 -0.8152
17263THY    HP727650   6.824   6.624   2.424 -1.1690 -0.1286  0.8138
17263THY    CA327651   7.043   6.417   2.328  0.2409  0.1095 -0.5734
17263THY    HA327652   6.946   6.384   2.363  0.6226  0.3148 -1.5014
17263THY    CA427653   7.110   6.331   2.240  0.3545 -0.5190 -0.2353
17263THY    HA427654   7.059   6.243   2.203 -1.1362 -2.7152  1.4512
17263THY    CA527655   7.233   6.365   2.197 -0.0160 -0.1601  0.3998
17263THY    CM127656   7.300   6.262   2.117  0.6080 -0.7134 -1.0046
17263THY    HM127657   7.349   6.188   2.182  0.6934  0.9514  0.4245
17263THY    HM227658   7.374   6.312   2.053 -0.3547  0.2475  1.8963
17263THY    HM327659   7.232   6.223   2.041  1.4776 -1.8823 -0.2988
17263THY    CA627660   7.302   6.475   2.245 -0.2450 -0.1077 -0.3916
17263THY    HA627661   7.407   6.496   2.225 -0.6164 -0.3647  1.3932
17264THY      O27662   8.432   1.337   3.955  0.2000 -0.1579 -0.2679
17264THY     HO27663   8.351   1.392   3.951  0.6909 -2.7493  0.4367
17264THY    CA127664   8.529   1.378   3.871  0.5098 -0.1597  0.0076
17264THY    CA227665   8.646   1.309   3.836 -0.4740 -0.4018  0.2837
17264THY    CP127666   8.679   1.172   3.897  1.1612  0.2952 -0.0034
17264THY    HP127667   8.608   1.134   3.971  0.8213  1.0486  2.0301
17264THY    CP227668   8.819   1.181   3.954  0.6599 -0.5454  0.8853
17264THY    HP227669   8.852   1.084   3.992  2.8165 -0.6869  1.5136
17264THY    HP327670   8.819   1.254   4.035  0.2686  0.5972 -0.3431
17264THY    HP427671   8.888   1.216   3.876  1.1701  0.1295  1.3829
17264THY    CP327672   8.696   1.079   3.775  0.5109  0.5642  0.6774
17264THY    HP527673   8.612   1.106   3.709 -1.2215  2.1764 -0.4708
17264THY    HP627674   8.674   0.976   3.806  1.0192 -1.5980 -0.1266
17264THY    HP727675   8.793   1.079   3.725  1.2662  1.9634  0.9130
17264THY    CA327676   8.740   1.377   3.755  0.0811  0.1850  0.2481
17264THY    HA327677   8.824   1.325   3.710 -0.3216 -0.0411 -0.2171
17264THY    CA427678   8.710   1.504   3.700  0.3003 -0.4337  0.0918
17264THY    HA427679   8.778   1.558   3.635  1.7697  0.8746 -0.1112
17264THY    CA527680   8.592   1.569   3.746 -0.1475 -0.1036 -0.4718
17264THY    CM127681   8.575   1.717   3.715 -0.0279  0.1276  0.3682
17264THY    HM127682   8.662   1.768   3.672  0.2436 -3.6081 -2.7945
17264THY    HM227683   8.536   1.757   3.809 -2.2730  0.4505 -2.3024
17264THY    HM327684   8.494   1.727   3.643 -1.3939  1.0278 -2.7257
17264THY    CA627685   8.502   1.500   3.822  0.8114 -0.0171 -0.2992
17264THY    HA627686   8.410   1.548   3.853  0.5462 -1.6453  0.2817
17265THY      O27687   4.373   9.220   2.307  0.0519  0.4151  0.2291
17265THY     HO27688   4.366   9.249   2.399  1.3125  1.5739 -2.6641
17265THY    CA127689   4.256   9.166   2.266  0.2268  0.4175  0.0081
17265THY    CA227690   4.243   9.057   2.180  0.3857 -0.4676 -0.0629
17265THY    CP127691   4.380   8.978   2.157 -0.2150 -0.4502 -1.0198
17265THY    HP127692   4.464   9.049   2.152 -0.7263 -0.7022 -0.4166
17265THY    CP227693   4.376   8.891   2.025  0.2072  0.1802 -0.5815
17265THY    HP227694   4.309   8.804   2.035  1.1762 -0.2901 -1.3977
17265THY    HP327695   4.477   8.852   2.016 -0.0123  1.6943 -1.5986
17265THY    HP427696   4.344   8.937   1.931  0.8310 -0.5862 -1.6748
17265THY    CP327697   4.406   8.885   2.277 -0.2791  0.3762  0.3411
17265THY    HP527698   4.394   8.937   2.373  2.8996  1.2033 -0.2341
17265THY    HP627699   4.500   8.828   2.272 -1.3590 -0.7051 -1.4181
17265THY    HP727700   4.342   8.797   2.289  1.4531  0.8022 -0.9146
17265THY    CA327701   4.122   9.024   2.121 -0.2985 -0.1252 -0.1761
17265THY    HA327702   4.110   8.939   2.054 -1.4486 -0.4752  0.2436
17265THY    CA427703   4.011   9.096   2.159  0.1458  0.0572 -0.1266
17265THY    HA427704   3.913   9.060   2.128 -0.3292  0.2984  0.9281
17265THY    CA527705   4.017   9.198   2.256 -0.2084  0.1063 -0.1513
17265THY    CM127706   3.898   9.277   2.296  0.1182  0.6029  0.3058
17265THY    HM127707   3.927   9.345   2.377  0.7841  1.2541 -0.7256
17265THY    HM227708   3.814   9.219   2.337  1.8363  2.3913 -1.0453
17265THY    HM327709   3.862   9.340   2.215 -1.2714  2.4777  2.0720
17265THY    CA627710   4.139   9.237   2.302 -0.4366 -0.1593  0.7273
17265THY    HA627711   4.142   9.319   2.373 -0.1401 -1.4896  1.8974
17266THY      O27712   2.409   4.310   7.127  0.1844 -0.0439 -0.6409
17266THY     HO27713   2.482   4.359   7.084 -3.0577 -4.9141  0.6660
17266THY    CA127714   2.418   4.301   7.264  0.5750  0.8110  0.1141
17266THY    CA227715   2.373   4.184   7.329  0.4711  0.4113  0.2770
17266THY    CP127716   2.293   4.076   7.247 -0.0706  0.1936  0.0787
17266THY    HP127717   2.234   4.127   7.170 -1.7489  2.6472  2.1171
17266THY    CP227718   2.194   3.996   7.334  0.0537 -0.3011  0.0390
17266THY    HP227719   2.135   4.057   7.403  1.3372  1.0369 -0.1499
17266THY    HP327720   2.243   3.918   7.394  0.3943  0.9339  1.1765
17266THY    HP427721   2.124   3.942   7.269 -2.6485  2.6576 -0.3124
17266THY    CP327722   2.382   3.971   7.172 -0.4719 -0.1565 -0.0460
17266THY    HP527723   2.371   3.867   7.205  0.1346  1.0727  0.2572
17266THY    HP627724   2.485   4.007   7.178 -1.2606 -1.1078  2.6195
17266THY    HP727725   2.363   3.971   7.064  0.7742 -0.4088  1.4131
17266THY    CA327726   2.388   4.167   7.465  0.2725 -0.5047  0.6540
17266THY    HA327727   2.367   4.070   7.510  1.4761 -1.1294  0.0904
17266THY    CA427728   2.463   4.259   7.535 -0.4294 -0.0443  0.5331
17266THY    HA427729   2.477   4.244   7.642 -2.1144  0.0791 -0.5075
17266THY    CA527730   2.519   4.373   7.473  0.1831 -0.4501  0.1755
17266THY    CM127731   2.605   4.474   7.553  0.8210 -0.2209 -0.1642
17266THY    HM127732   2.681   4.426   7.616  1.0014 -0.5966 -0.3816
17266THY    HM227733   2.529   4.542   7.591 -0.0331 -3.4666  0.8955
17266THY    HM327734   2.657   4.542   7.484 -1.3268  0.0957  1.9219
17266THY    CA627735   2.497   4.393   7.338 -0.2281 -0.0308  0.0152
17266THY    HA627736   2.539   4.474   7.279 -2.1156  0.7178  1.6284
17267THY      O27737   5.943   1.046   1.986 -0.3930 -0.4086 -0.0680
17267THY     HO27738   5.885   1.067   1.912 -1.0469  0.3815  1.0193
17267THY    CA127739   5.869   0.970   2.065 -0.0107 -0.5794  0.2346
17267THY    CA227740   5.923   0.917   2.185 -0.2543  0.2241 -0.5106
17267THY    CP127741   6.066   0.953   2.229  0.4371 -0.1541 -0.6982
17267THY    HP127742   6.134   0.987   2.150  0.8646  0.7694  0.6618
17267THY    CP227743   6.146   0.831   2.277 -0.1229 -0.6061  0.0605
17267THY    HP227744   6.249   0.861   2.300 -0.6978  1.6497  0.4664
17267THY    HP327745   6.137   0.754   2.200 -0.0504 -1.2091  0.6443
17267THY    HP427746   6.110   0.782   2.368 -0.5953 -1.5699 -1.4301
17267THY    CP327747   6.069   1.062   2.338 -1.0351 -0.2022 -0.0337
17267THY    HP527748   6.177   1.069   2.357 -0.1850 -3.9980 -0.7254
17267THY    HP627749   6.010   1.042   2.428 -1.8880 -0.2262  2.0686
17267THY    HP727750   6.046   1.163   2.301  0.5806 -0.4106  0.2852
17267THY    CA327751   5.838   0.835   2.263 -0.0851 -0.2512  0.0551
17267THY    HA327752   5.876   0.785   2.352 -1.7464  0.0304 -0.7811
17267THY    CA427753   5.704   0.812   2.226 -0.3319 -0.6215  0.2152
17267THY    HA427754   5.651   0.741   2.290  3.1657  2.1900 -0.1368
17267THY    CA527755   5.656   0.870   2.110  1.0875 -0.4581  1.2803
17267THY    CM127756   5.511   0.850   2.075  0.8176 -0.1339 -0.0445
17267THY    HM127757   5.442   0.912   2.133 -0.3129 -0.1869 -1.2111
17267THY    HM227758   5.474   0.748   2.091 -1.7475  0.1898  0.8472
17267THY    HM327759   5.500   0.873   1.969  0.7582 -0.0450  0.3340
17267THY    CA627760   5.733   0.955   2.034  0.0546  0.1597  0.7863
17267THY    HA627761   5.699   0.991   1.938 -0.6736 -1.6281 -4.0452
17268THY      O27762   1.221   2.734   7.616  0.5324 -0.3721  0.1023
17268THY     HO27763   1.235   2.755   7.522 -0.7115 -0.7562 -0.6652
17268THY    CA127764   1.325   2.784   7.683 -0.2032 -0.3775 -0.2409
17268THY    CA227765   1.340   2.781   7.822  0.1652  0.2046 -0.3430
17268THY    CP127766   1.240   2.698   7.897 -0.2024  0.7913 -0.3233
17268THY    HP127767   1.203   2.622   7.827  1.1527 -1.7575  1.2262
17268THY    CP227768   1.108   2.771   7.942  0.2367 -0.2349  0.5391
17268THY    HP227769   1.054   2.812   7.856 -0.1464  0.1539  0.8587
17268THY    HP327770   1.118   2.858   8.008  1.4186  0.5487 -0.1495
17268THY    HP427771   1.039   2.694   7.980 -0.3077 -1.7994  0.2133
17268THY    CP327772   1.300   2.625   8.013 -0.0542  0.4728 -0.3092
17268THY    HP527773   1.400   2.585   7.991  0.1358 -0.0223  0.4183
17268THY    HP627774   1.232   2.545   8.044 -0.6050  0.3766  0.1133
17268THY    HP727775   1.319   2.689   8.100  0.0703  0.6355 -0.5694
17268THY    CA327776   1.444   2.850   7.879  0.2260 -0.3237 -0.2368
17268THY    HA327777   1.462   2.836   7.985  0.2127 -0.0817  1.3594
17268THY    CA427778   1.533   2.928   7.809  0.1916 -0.1745  0.0995
17268THY    HA427779   1.614   2.981   7.859  0.5427  0.8420 -1.3642
17268THY    CA527780   1.513   2.936   7.673 -0.2776  0.0919  0.3950
17268THY    CM127781   1.615   3.016   7.585  0.8832 -0.1401  0.0275
17268THY    HM127782   1.719   3.007   7.619  0.6937  0.1108 -1.5939
17268THY    HM227783   1.600   3.124   7.588  2.2254 -1.2995  0.2878
17268THY    HM327784   1.595   2.978   7.484 -1.6803  0.6719 -1.0117
17268THY    CA627785   1.416   2.857   7.611 -0.3430 -0.0773 -0.0017
17268THY    HA627786   1.408   2.851   7.503 -2.1603  0.0411 -0.2861
17269THY      O27787   7.308   3.756   6.704  0.4021  0.1907  0.2280
17269THY     HO27788   7.402   3.779   6.702  0.4584  0.7107  0.0464
17269THY    CA127789   7.245   3.877   6.715 -0.9737  0.8060  0.5091
17269THY    CA227790   7.108   3.890   6.683  0.1929 -0.0157 -0.2876
17269THY    CP127791   7.015   3.775   6.646 -0.0027 -0.4019  0.1553
17269THY    HP127792   7.065   3.680   6.670  2.1666 -1.5010  0.9480
17269THY    CP227793   6.999   3.778   6.493 -0.8547  0.0414 -0.0823
17269THY    HP227794   6.929   3.700   6.459  0.0239 -1.2311 -0.3349
17269THY    HP327795   7.094   3.773   6.439 -1.3043 -0.8810  1.0190
17269THY    HP427796   6.942   3.866   6.461  0.3234  0.8353  0.9896
17269THY    CP327797   6.872   3.783   6.717 -0.3453  0.1533 -0.0055
17269THY    HP527798   6.822   3.695   6.675  0.7379  1.4958 -1.3226
17269THY    HP627799   6.819   3.874   6.689  1.3357 -1.6241  0.4784
17269THY    HP727800   6.881   3.780   6.827 -1.6938  0.2539 -2.4174
17269THY    CA327801   7.056   4.016   6.700 -0.8652 -0.4639  0.1335
17269THY    HA327802   6.951   4.042   6.691 -0.7654 -2.6840 -0.0804
17269THY    CA427803   7.142   4.123   6.732  0.0546  0.2226  0.4003
17269THY    HA427804   7.085   4.211   6.758 -1.6913 -0.0304 -0.6025
17269THY    CA527805   7.278   4.113   6.745  0.2151 -0.0998 -0.0696
17269THY    CM127806   7.368   4.232   6.754  0.6048  0.1119  0.0207
17269THY    HM127807   7.364   4.284   6.658 -0.4196 -0.1056 -0.4507
17269THY    HM227808   7.472   4.209   6.783  0.6438 -0.1574 -0.1445
17269THY    HM327809   7.336   4.299   6.834  1.2084  1.4469 -1.2220
17269THY    CA627810   7.331   3.985   6.739 -0.1999 -0.0067  0.4740
17269THY    HA627811   7.439   3.972   6.741 -0.2832 -2.4098 -1.2840
17270THY      O27812   0.912   2.257   2.500 -0.0115 -0.3813 -0.4254
17270THY     HO27813   0.958   2.210   2.429 -0.7445  0.3028 -2.3055
17270THY    CA127814   0.889   2.174   2.604 -0.4081 -0.7235 -0.2818
17270THY    CA227815   0.760   2.174   2.671 -0.2665 -0.6517 -0.0646
17270THY    CP127816   0.645   2.251   2.619  0.0215 -0.3595 -0.0750
17270THY    HP127817   0.670   2.309   2.529  0.4204  0.2411  0.7106
17270THY    CP227818   0.596   2.350   2.727 -0.2208 -0.0511  0.0960
17270THY    HP227819   0.548   2.306   2.815  1.6488  0.5356 -0.8747
17270THY    HP327820   0.520   2.406   2.672  2.3976 -2.2832  1.7180
17270THY    HP427821   0.675   2.418   2.761 -2.1676  2.3530  1.3150
17270THY    CP327822   0.537   2.158   2.576  0.2445 -0.2971  0.2157
17270THY    HP527823   0.479   2.199   2.492  2.0779 -0.8972  1.7695
17270THY    HP627824   0.471   2.135   2.660 -0.9168 -1.0395  0.7742
17270THY    HP727825   0.579   2.063   2.542  0.1349 -0.5561  0.2585
17270THY    CA327826   0.761   2.100   2.794  0.6073 -0.0960  1.0220
17270THY    HA327827   0.667   2.094   2.849  1.0829  0.5549 -1.0214
17270THY    CA427828   0.875   2.033   2.853  0.7363  0.0989 -0.2303
17270THY    HA427829   0.864   1.960   2.933 -0.2728  0.4547  0.2850
17270THY    CA527830   0.990   2.023   2.775 -0.5136 -0.1792  0.3478
17270THY    CM127831   1.103   1.928   2.806 -1.0024 -0.2392 -0.1622
17270THY    HM127832   1.181   1.999   2.838 -0.4315 -1.8299 -0.0511
17270THY    HM227833   1.127   1.863   2.722  0.8351  0.7450 -0.8283
17270THY    HM327834   1.080   1.864   2.892  1.1144  0.4359 -0.1057
17270THY    CA627835   0.995   2.093   2.652  0.1009 -0.3551 -0.0985
17270THY    HA627836   1.093   2.092   2.606 -0.2914 -1.2389  1.0682
17271THY      O27837   2.049   8.439   3.425 -0.5586  0.0970 -0.0321
17271THY     HO27838   2.103   8.486   3.359  1.4971 -0.0739 -2.4458
17271THY    CA127839   2.040   8.515   3.533 -1.2429 -1.0029  0.3417
17271THY    CA227840   2.016   8.461   3.669  0.6249  0.7863 -0.6586
17271THY    CP127841   2.016   8.311   3.692  0.0933  0.2771 -0.0890
17271THY    HP127842   1.954   8.272   3.611 -1.5973  2.0596 -1.3045
17271THY    CP227843   1.934   8.254   3.807  0.6435 -0.3924 -0.6968
17271THY    HP227844   1.826   8.261   3.789  0.5322 -0.9103 -2.9316
17271THY    HP327845   1.955   8.281   3.911 -1.4483  0.1923 -1.0854
17271THY    HP427846   1.951   8.145   3.807  0.5857 -2.0282 -0.7229
17271THY    CP327847   2.148   8.235   3.669  0.0465  0.2404  0.2391
17271THY    HP527848   2.122   8.131   3.643 -1.4368 -3.5848  1.3846
17271THY    HP627849   2.219   8.245   3.752  0.3868 -0.1462  1.1947
17271THY    HP727850   2.198   8.276   3.580  1.7299  1.6906  1.5204
17271THY    CA327851   1.980   8.558   3.763  0.2653 -0.9099  0.0088
17271THY    HA327852   1.956   8.521   3.863  2.3355 -0.2256  0.3695
17271THY    CA427853   1.978   8.695   3.733 -0.0385 -0.4394 -0.5604
17271THY    HA427854   1.938   8.764   3.806 -2.1487 -0.8977 -1.2162
17271THY    CA527855   2.008   8.741   3.606 -0.2067  1.1351  0.0447
17271THY    CM127856   1.997   8.886   3.576 -0.5305 -0.0320 -0.1960
17271THY    HM127857   2.079   8.933   3.520 -0.4234 -0.3406 -0.7552
17271THY    HM227858   1.979   8.946   3.667  0.1986 -1.8581  3.0450
17271THY    HM327859   1.910   8.914   3.515 -0.2733 -0.9850 -1.4017
17271THY    CA627860   2.041   8.651   3.506 -0.1427  0.1594 -0.1270
17271THY    HA627861   2.055   8.693   3.407  0.0860  0.4941  0.6009
17272THY      O27862   7.419   1.942   4.732 -0.3828 -0.1966  0.0995
17272THY     HO27863   7.465   2.016   4.775 -0.4647  0.4558 -0.2178
17272THY    CA127864   7.425   1.832   4.810  0.1143 -0.4607  0.0888
17272THY    CA227865   7.345   1.718   4.793  0.4009  0.0592 -0.0248
17272THY    CP127866   7.244   1.728   4.678  0.4008 -0.0749  0.4889
17272THY    HP127867   7.282   1.801   4.606  0.9477 -1.4432 -1.0787
17272THY    CP227868   7.106   1.773   4.740  0.4975  0.3559 -0.3016
17272THY    HP227869   7.124   1.874   4.778 -0.9999 -0.5727  0.3505
17272THY    HP327870   7.078   1.702   4.819  1.7682 -0.5809 -1.9077
17272THY    HP427871   7.023   1.772   4.668 -0.6535  1.6036  0.9587
17272THY    CP327872   7.230   1.600   4.603  0.1489  0.4287  0.0154
17272THY    HP527873   7.326   1.556   4.572 -0.2478 -1.0388  0.1297
17272THY    HP627874   7.180   1.622   4.508 -0.3760  1.3357  3.1602
17272THY    HP727875   7.169   1.525   4.654 -0.4168 -2.3629 -1.6113
17272THY    CA327876   7.354   1.607   4.887 -0.3331  0.2913 -0.4561
17272THY    HA327877   7.294   1.517   4.874 -1.4585  0.5764  0.2378
17272THY    CA427878   7.446   1.613   4.991  0.0783 -0.8504  0.2914
17272THY    HA427879   7.443   1.526   5.056  2.9264 -1.2245 -0.1738
17272THY    CA527880   7.531   1.724   5.007  0.9080 -0.3272 -0.2258
17272THY    CM127881   7.639   1.732   5.104 -0.2377  0.2937 -0.7173
17272THY    HM127882   7.715   1.810   5.091  0.3871 -0.6233 -1.4574
17272THY    HM227883   7.693   1.637   5.112 -0.0262 -0.4988 -0.6707
17272THY    HM327884   7.597   1.751   5.204  1.2633  0.5863  1.3722
17272THY    CA627885   7.521   1.833   4.916 -0.0660  0.3984  0.3225
17272THY    HA627886   7.599   1.909   4.924 -0.2523  0.1359  0.5414
17273THY      O27887   0.663   6.868   6.836  0.3736  0.1309 -0.1444
17273THY     HO27888   0.714   6.818   6.770 -1.7794 -1.8383  0.0934
17273THY    CA127889   0.583   6.950   6.768  0.3557 -0.7110  0.1342
17273THY    CA227890   0.499   7.043   6.833 -1.1406  1.0244  0.4414
17273THY    CP127891   0.500   7.051   6.989 -0.3267  0.2488  0.5150
17273THY    HP127892   0.603   7.043   7.024 -0.8763  2.1521  1.0876
17273THY    CP227893   0.402   6.943   7.042  0.2800 -0.2567  0.1498
17273THY    HP227894   0.299   6.980   7.039 -0.3341 -0.2881 -1.4599
17273THY    HP327895   0.423   6.924   7.148  1.2867  0.0973  2.8068
17273THY    HP427896   0.406   6.855   6.977  2.0917 -0.0770  0.0608
17273THY    CP327897   0.462   7.185   7.046 -0.6541  0.2336 -0.6126
17273THY    HP527898   0.466   7.174   7.154  0.6123  0.3305  0.5013
17273THY    HP627899   0.363   7.226   7.022 -0.2144 -0.8561 -0.1252
17273THY    HP727900   0.523   7.274   7.025 -2.2881 -0.4094  0.4131
17273THY    CA327901   0.430   7.126   6.743  0.4023 -0.4027  0.2361
17273THY    HA327902   0.354   7.190   6.787 -0.2125  2.0860 -1.9999
17273THY    CA427903   0.441   7.124   6.605 -0.1901 -0.3446  0.3042
17273THY    HA427904   0.384   7.198   6.551 -0.9921  1.8968  1.4331
17273THY    CA527905   0.522   7.022   6.551 -0.1163 -0.2394 -0.0029
17273THY    CM127906   0.535   7.019   6.399  0.7002  0.7393  0.2435
17273THY    HM127907   0.451   6.958   6.365 -0.4432  0.7424  1.7548
17273THY    HM227908   0.626   6.966   6.371  0.5550 -1.1841  0.9594
17273THY    HM327909   0.536   7.119   6.354 -1.8869  0.3784  0.1777
17273THY    CA627910   0.585   6.930   6.633 -0.5467  0.2698 -0.1438
17273THY    HA627911   0.640   6.845   6.593  1.5493  1.6998  0.4641
17274THY      O27912   1.079   6.433   5.649  0.0680 -0.1081  0.1421
17274THY     HO27913   1.103   6.523   5.677  2.0502  1.0799 -0.6950
17274THY    CA127914   0.980   6.449   5.562  0.0353  0.5959  0.4771
17274THY    CA227915   0.874   6.361   5.541  0.3542  0.0758 -0.5725
17274THY    CP127916   0.851   6.243   5.636 -0.0331  0.4408  0.7543
17274THY    HP127917   0.939   6.234   5.701 -0.2147  0.9138  2.1737
17274THY    CP227918   0.840   6.115   5.556 -0.1822 -0.1003 -0.5275
17274THY    HP227919   0.803   6.034   5.620 -0.4162  0.5652  0.0863
17274THY    HP327920   0.934   6.095   5.504  0.4854  0.8336  0.0565
17274THY    HP427921   0.758   6.129   5.484  1.0557 -1.2672  1.1910
17274THY    CP327922   0.737   6.263   5.735  0.2769  0.5187  0.3145
17274THY    HP527923   0.751   6.357   5.789 -1.7050  0.8125  0.5024
17274THY    HP627924   0.732   6.183   5.810  0.3630 -2.6866 -2.9560
17274THY    HP727925   0.641   6.272   5.683  0.1595  0.8532  1.0833
17274THY    CA327926   0.773   6.385   5.443 -0.8689  0.0741  0.0163
17274THY    HA327927   0.686   6.321   5.430  0.1136 -1.1113 -1.1448
17274THY    CA427928   0.781   6.510   5.370 -0.5233  0.7507 -0.2369
17274THY    HA427929   0.713   6.527   5.287  0.0200 -0.2050 -2.3929
17274THY    CA527930   0.878   6.599   5.401 -0.2411  0.0983 -0.3781
17274THY    CM127931   0.876   6.729   5.331 -0.0637  0.2860 -0.3289
17274THY    HM127932   0.882   6.718   5.222  1.3068  0.3401 -0.3619
17274THY    HM227933   0.960   6.789   5.369 -1.1454  1.2898  0.5888
17274THY    HM327934   0.789   6.788   5.362  1.5094  1.6155  1.4267
17274THY    CA627935   0.980   6.567   5.489 -0.1896 -0.3076 -0.2573
17274THY    HA627936   1.061   6.637   5.506 -0.3708 -1.2541  0.1972
17275THY      O27937   7.946   2.681   7.342  0.1042  0.0660  0.1299
17275THY     HO27938   7.975   2.591   7.320 -0.9305 -0.3521 -0.1091
17275THY    CA127939   8.046   2.749   7.396 -0.0670 -0.1193 -0.3826
17275THY    CA227940   8.018   2.853   7.486 -0.0083 -0.2730 -0.4011
17275THY    CP127941   7.874   2.880   7.531 -0.0226  0.3680  0.0994
17275THY    HP127942   7.793   2.827   7.479 -2.8703  3.2698  1.2974
17275THY    CP227943   7.838   3.021   7.534 -0.0763 -0.6197  0.4981
17275THY    HP227944   7.879   3.077   7.619  1.9948 -1.8029  0.9029
17275THY    HP327945   7.732   3.048   7.533  0.0424 -0.1244  1.0180
17275THY    HP427946   7.864   3.059   7.435  0.7750 -1.1534 -1.3666
17275THY    CP327947   7.858   2.818   7.672 -0.0944 -0.2361  0.3564
17275THY    HP527948   7.883   2.712   7.666 -3.3253  1.6849 -0.6672
17275THY    HP627949   7.762   2.824   7.724  1.2858  2.7385 -1.3853
17275THY    HP727950   7.927   2.864   7.743  2.6420 -3.2287  1.2779
17275THY    CA327951   8.136   2.936   7.536  0.1027 -0.8880  1.0860
17275THY    HA327952   8.118   3.021   7.600  1.8364 -0.2562  1.0071
17275THY    CA427953   8.264   2.893   7.489 -0.0737  0.2995 -0.0235
17275THY    HA427954   8.349   2.946   7.531  1.3585 -0.1957 -1.8117
17275THY    CA527955   8.278   2.790   7.398 -0.1051 -0.0457 -0.4788
17275THY    CM127956   8.419   2.753   7.356  0.0069  0.4765 -0.0035
17275THY    HM127957   8.426   2.656   7.306 -1.7169  0.2757 -0.0512
17275THY    HM227958   8.482   2.731   7.443 -0.4757  0.7991 -0.1108
17275THY    HM327959   8.475   2.831   7.302  2.6732  1.7183 -0.9355
17275THY    CA627960   8.174   2.721   7.350  0.4315 -0.1410  0.2491
17275THY    HA627961   8.194   2.654   7.268  0.5334 -1.3191  1.6631
17276THY      O27962   0.574   5.994   4.488 -0.6478 -0.8988  0.3236
17276THY     HO27963   0.594   5.921   4.550  2.5091 -1.5073  0.5338
17276THY    CA127964   0.517   5.939   4.379 -0.1404 -0.3449  0.6290
17276THY    CA227965   0.392   5.984   4.339 -0.4861 -0.0181 -0.3843
17276THY    CP127966   0.309   6.093   4.407  0.0494  0.2995  0.2376
17276THY    HP127967   0.356   6.116   4.503  2.4899 -1.1308  1.6508
17276THY    CP227968   0.162   6.060   4.421  0.2988 -0.3385 -0.4551
17276THY    HP227969   0.154   5.961   4.467  1.7970  3.8516  1.1648
17276THY    HP327970   0.112   6.073   4.324 -0.6015  0.4432  3.1157
17276THY    HP427971   0.130   6.139   4.491  1.3970  0.1993 -0.4691
17276THY    CP327972   0.329   6.216   4.324  0.6900  0.8656  0.2070
17276THY    HP527973   0.276   6.304   4.364 -0.2296 -2.2324  1.1724
17276THY    HP627974   0.292   6.202   4.222 -1.1824  1.6747 -1.2648
17276THY    HP727975   0.437   6.234   4.321  0.8695  0.2877 -0.9047
17276THY    CA327976   0.336   5.916   4.227 -0.1132  0.2133 -0.3332
17276THY    HA327977   0.238   5.943   4.190  1.0107 -2.1587  0.8091
17276THY    CA427978   0.413   5.812   4.163  0.3707  0.4492  0.2858
17276THY    HA427979   0.383   5.760   4.072  3.5618 -0.8038  0.3905
17276THY    CA527980   0.544   5.774   4.210 -0.1315  0.1590  0.3322
17276THY    CM127981   0.627   5.663   4.148  0.4059  0.5176  0.0402
17276THY    HM127982   0.597   5.657   4.043  1.1412  0.3285 -0.3809
17276THY    HM227983   0.610   5.568   4.200  2.7873 -0.4201 -0.9832
17276THY    HM327984   0.734   5.684   4.153  0.1812  0.7883  1.1797
17276THY    CA627985   0.587   5.831   4.328 -0.4976 -0.2959  0.0483
17276THY    HA627986   0.676   5.800   4.381 -0.2057 -0.5589  0.4328
17277THY      O27987   7.101   3.047   5.363 -0.5260  0.0794 -0.3899
17277THY     HO27988   7.192   3.025   5.336  0.4646  2.0362  0.9522
17277THY    CA127989   7.081   2.956   5.459 -0.7478  0.2705  0.8217
17277THY    CA227990   6.978   2.966   5.553  0.8729 -0.1678  0.0865
17277THY    CP127991   6.891   3.099   5.552 -0.1081  0.3267 -0.2328
17277THY    HP127992   6.939   3.169   5.484  0.7392  0.0933 -1.0177
17277THY    CP227993   6.883   3.167   5.685 -0.1793 -0.3792  0.0928
17277THY    HP227994   6.967   3.139   5.750 -0.0673 -0.2507  0.7172
17277THY    HP327995   6.797   3.132   5.744  0.6819  0.5817 -0.4956
17277THY    HP427996   6.881   3.276   5.675  1.2958  1.2650  0.3205
17277THY    CP327997   6.756   3.082   5.487 -0.2376 -0.6068  0.6272
17277THY    HP527998   6.767   3.020   5.398 -0.2467  0.5928 -1.1802
17277THY    HP627999   6.715   3.177   5.453  0.4044 -1.2682  0.6756
17277THY    HP728000   6.688   3.035   5.559  1.0292  0.0285 -0.3196
17277THY    CA328001   6.952   2.855   5.642 -0.7585 -0.0993 -0.2031
17277THY    HA328002   6.867   2.860   5.710  0.5444  1.5913 -0.2452
17277THY    CA428003   7.041   2.748   5.641 -0.0105  0.0318 -0.1086
17277THY    HA428004   7.013   2.660   5.697 -1.9087  0.4136  0.6999
17277THY    CA528005   7.159   2.751   5.564 -0.3504  0.0567 -0.2041
17277THY    CM128006   7.261   2.641   5.584  0.5082 -0.0221 -0.4831
17277THY    HM128007   7.250   2.591   5.682  0.9625  0.8550  1.0918
17277THY    HM228008   7.364   2.679   5.579 -0.7359 -2.4874  3.0547
17277THY    HM328009   7.248   2.572   5.500 -0.3708 -0.8323  0.6405
17277THY    CA628010   7.173   2.852   5.468 -0.5623 -0.2181 -0.1346
17277THY    HA628011   7.256   2.860   5.398 -1.8018 -1.7825 -0.5839
17278THY      O28012   6.379   8.731   3.636 -0.2647 -0.3004  0.2588
17278THY     HO28013   6.385   8.680   3.554  1.3620  0.8055 -1.4600
17278THY    CA128014   6.429   8.655   3.735  0.5298  0.1571  0.0541
17278THY    CA228015   6.423   8.698   3.874 -0.4503 -0.7762 -0.5355
17278THY    CP128016   6.385   8.840   3.905  1.0423  0.9193  0.5239
17278THY    HP128017   6.421   8.902   3.822  0.6872 -0.3630 -0.9322
17278THY    CP228018   6.456   8.887   4.033 -0.1328 -0.7406 -0.6752
17278THY    HP228019   6.455   8.997   4.043 -2.0225  0.2132 -0.7488
17278THY    HP328020   6.564   8.867   4.031  0.0548  0.1666  0.1208
17278THY    HP428021   6.418   8.844   4.126 -1.2186 -1.0246 -0.3478
17278THY    CP328022   6.236   8.864   3.910  0.2918  0.3841 -0.0547
17278THY    HP528023   6.184   8.852   3.814 -1.7422  1.3184  0.7114
17278THY    HP628024   6.217   8.960   3.961 -1.9693 -0.4608  0.0232
17278THY    HP728025   6.187   8.788   3.971  0.5818  1.0161  0.2624
17278THY    CA328026   6.461   8.599   3.970 -0.7298 -0.7348 -1.3390
17278THY    HA328027   6.466   8.631   4.073 -1.3878 -0.7691 -1.1086
17278THY    CA428028   6.495   8.472   3.928 -0.5447 -0.5257 -0.9825
17278THY    HA428029   6.524   8.397   4.001  0.5002  0.4413  0.3087
17278THY    CA528030   6.509   8.434   3.798 -0.7605  0.0771 -0.0073
17278THY    CM128031   6.547   8.291   3.766  0.3190 -0.5560  0.6220
17278THY    HM128032   6.610   8.249   3.845 -1.2613  3.1519  4.4677
17278THY    HM228033   6.607   8.299   3.674  1.9768  0.5367  1.3393
17278THY    HM328034   6.460   8.227   3.744  1.9844 -0.4653 -1.8120
17278THY    CA628035   6.473   8.526   3.699 -0.5912  0.2406  0.0931
17278THY    HA628036   6.464   8.487   3.599 -1.1929  1.2271 -2.5165
17279THY      O28037   2.252   7.093   4.461  0.2856 -0.2253  0.3635
17279THY     HO28038   2.279   7.186   4.448  2.6763 -0.1904 -0.2536
17279THY    CA128039   2.159   7.078   4.555 -0.0951  0.0286 -0.6852
17279THY    CA228040   2.089   6.952   4.570  0.1102 -0.1082  0.5811
17279THY    CP128041   2.122   6.843   4.476  0.0734 -0.1985 -0.4185
17279THY    HP128042   2.227   6.852   4.447 -0.1136 -0.2737  2.2104
17279THY    CP228043   2.036   6.835   4.343 -0.2487 -0.1137  0.4387
17279THY    HP228044   2.037   6.733   4.303 -0.0089  1.4652 -0.2004
17279THY    HP328045   2.063   6.919   4.277  0.7815  2.4621  2.2380
17279THY    HP428046   1.939   6.861   4.387 -0.3280  0.0973 -0.1966
17279THY    CP328047   2.101   6.703   4.539  0.1352  0.6395  0.0086
17279THY    HP528048   2.137   6.624   4.471  0.4537  2.1439 -1.2047
17279THY    HP628049   1.995   6.682   4.554  0.6233  3.0850 -1.0830
17279THY    HP728050   2.151   6.692   4.636  0.7932  0.2385 -0.7086
17279THY    CA328051   1.993   6.936   4.679  0.2957 -0.2308  0.0496
17279THY    HA328052   1.954   6.836   4.691  0.2560 -0.3096  0.0552
17279THY    CA428053   1.948   7.053   4.747 -0.5223 -0.6795  0.9144
17279THY    HA428054   1.867   7.046   4.819 -0.5879 -0.3686  3.6955
17279THY    CA528055   2.024   7.176   4.742  0.3224 -0.2446  0.2379
17279THY    CM128056   1.991   7.298   4.817  0.2583  0.0146 -0.3881
17279THY    HM128057   2.038   7.379   4.760  2.1849  1.1334 -0.6694
17279THY    HM228058   2.029   7.286   4.919 -3.7725  1.7958  0.3467
17279THY    HM328059   1.882   7.312   4.828 -0.2323 -1.0341 -2.8526
17279THY    CA628060   2.126   7.184   4.640  0.1394  0.3209  0.2102
17279THY    HA628061   2.179   7.278   4.624 -1.6156  1.1043  1.3924
17280THY      O28062   2.319   7.079   7.247  0.6455  0.3557  0.6511
17280THY     HO28063   2.253   7.118   7.187 -0.8778  1.6527  0.1454
17280THY    CA128064   2.410   7.176   7.280  0.8052 -0.0832 -0.3640
17280THY    CA228065   2.508   7.158   7.372  0.1405 -0.2407  0.6617
17280THY    CP128066   2.523   7.025   7.443 -0.0740 -0.0989 -0.0334
17280THY    HP128067   2.468   6.948   7.387  1.0841 -0.4545 -0.6282
17280THY    CP228068   2.473   7.040   7.583  0.0876  0.3215  0.2521
17280THY    HP228069   2.519   7.129   7.627 -0.9544  0.7281  0.6041
17280THY    HP328070   2.495   6.956   7.650 -0.8532 -0.1032 -0.3509
17280THY    HP428071   2.364   7.058   7.587  0.0600  1.9649 -0.1237
17280THY    CP328072   2.665   6.980   7.443  0.0667  0.4615 -0.0819
17280THY    HP528073   2.681   6.883   7.492  0.0998 -0.3255 -0.4868
17280THY    HP628074   2.722   7.046   7.509  1.6234 -2.7013  2.0091
17280THY    HP728075   2.719   6.985   7.347 -0.7860  0.0334  1.1192
17280THY    CA328076   2.599   7.264   7.406 -0.2307  0.1914 -0.0916
17280THY    HA328077   2.674   7.265   7.484 -1.0877  1.0382  0.5876
17280THY    CA428078   2.579   7.386   7.346 -0.6406  0.6299  0.0826
17280THY    HA428079   2.641   7.473   7.365  0.2230 -0.6784 -0.2271
17280THY    CA528080   2.486   7.395   7.243 -0.1069 -0.8297  0.0548
17280THY    CM128081   2.470   7.521   7.160  0.5981  0.3156 -0.8498
17280THY    HM128082   2.381   7.575   7.193 -0.1402 -0.5812 -1.4886
17280THY    HM228083   2.471   7.498   7.053  1.7343 -1.2570  4.9747
17280THY    HM328084   2.556   7.589   7.170  0.7706  0.1241 -1.0381
17280THY    CA628085   2.389   7.299   7.223  0.3259 -0.2192 -0.1738
17280THY    HA628086   2.308   7.308   7.151 -0.6938  0.5729 -2.3185
17281THY      O28087   6.619   1.222   3.360 -0.6298  0.2841  0.1128
17281THY     HO28088   6.609   1.305   3.408 -0.0100  0.6657 -0.0293
17281THY    CA128089   6.645   1.275   3.236  0.2572 -0.0484 -0.1406
17281THY    CA228090   6.671   1.196   3.120 -0.1105 -0.4034  0.8085
17281THY    CP128091   6.653   1.044   3.126 -0.1484  0.8740 -0.1831
17281THY    HP128092   6.646   1.001   3.227 -2.5603  0.7549 -0.1804
17281THY    CP228093   6.770   0.966   3.067  0.4931  0.0472  0.9170
17281THY    HP228094   6.865   1.019   3.085  2.0070 -0.3677 -1.4991
17281THY    HP328095   6.775   0.955   2.958 -2.4481 -0.0119 -0.6487
17281THY    HP428096   6.784   0.876   3.128 -1.1526 -0.9535 -0.0780
17281THY    CP328097   6.528   0.997   3.051  0.1414  0.6829  0.7969
17281THY    HP528098   6.496   0.897   3.082 -1.4015 -0.5919  0.8677
17281THY    HP628099   6.534   0.998   2.942  2.2864  0.7584  1.4612
17281THY    HP728100   6.452   1.064   3.093  0.2854  1.3802  0.5328
17281THY    CA328101   6.696   1.268   2.996  0.5100 -0.5944  0.2548
17281THY    HA328102   6.712   1.227   2.896  1.0741 -1.4462  2.3799
17281THY    CA428103   6.711   1.409   2.994 -0.6673 -0.2538 -0.1362
17281THY    HA428104   6.730   1.460   2.900 -0.9122 -0.1854  0.0844
17281THY    CA528105   6.697   1.480   3.113 -0.1268 -0.3841 -0.2308
17281THY    CM128106   6.721   1.625   3.112 -0.0610  0.4111 -0.5930
17281THY    HM128107   6.823   1.657   3.136 -0.0105  0.4123 -0.7520
17281THY    HM228108   6.663   1.663   3.196  0.6155  0.6436 -0.0479
17281THY    HM328109   6.685   1.672   3.020 -0.3711  0.6332 -0.3933
17281THY    CA628110   6.665   1.410   3.233 -0.0381  0.1530 -0.9962
17281THY    HA628111   6.670   1.462   3.328  0.2260 -0.8651  0.9209
17282THY      O28112   8.233   5.707   3.328 -0.0778 -0.1160  0.3827
17282THY     HO28113   8.240   5.802   3.350 -1.2117  3.6357 -0.2358
17282THY    CA128114   8.221   5.693   3.192  0.9162 -0.8544 -0.1218
17282THY    CA228115   8.206   5.563   3.139  0.2068  0.4304 -0.6254
17282THY    CP128116   8.197   5.439   3.231  0.3960 -0.4059  0.9378
17282THY    HP128117   8.213   5.469   3.335 -0.6116  0.3695 -1.0795
17282THY    CP228118   8.294   5.327   3.193  0.3826  0.3621  0.4662
17282THY    HP228119   8.387   5.380   3.169  0.7980  0.5833 -0.1482
17282THY    HP328120   8.256   5.272   3.107 -0.0273  0.7274  0.1704
17282THY    HP428121   8.313   5.249   3.268  1.5136 -1.4555 -1.0931
17282THY    CP328122   8.053   5.393   3.228 -0.2460 -0.4448 -0.3172
17282THY    HP528123   7.984   5.471   3.263  0.2412  2.0367 -0.9000
17282THY    HP628124   8.046   5.295   3.278  1.3795 -0.3357 -0.4134
17282THY    HP728125   8.022   5.364   3.127 -2.0319 -0.0262  0.0214
17282THY    CA328126   8.218   5.551   3.003  0.6665 -0.6315  0.2600
17282THY    HA328127   8.200   5.454   2.958  1.7120  0.1578 -0.3275
17282THY    CA428128   8.238   5.663   2.929  0.2912  0.6572  0.6323
17282THY    HA428129   8.240   5.643   2.822  0.0386  0.1808  2.8963
17282THY    CA528130   8.247   5.796   2.981 -0.0856  0.0454  0.4444
17282THY    CM128131   8.266   5.912   2.894  0.0496  0.5505 -0.4021
17282THY    HM128132   8.248   5.902   2.786  2.1396  0.0548  0.6198
17282THY    HM228133   8.366   5.951   2.917  0.7520 -0.9690 -1.1966
17282THY    HM328134   8.196   5.989   2.929 -0.6896  2.7362 -1.9723
17282THY    CA628135   8.237   5.807   3.120 -0.2147  0.4275 -0.1353
17282THY    HA628136   8.259   5.905   3.161 -0.9230 -0.0370  0.2319
17283THY      O28137   3.209   2.433   3.069 -0.0248 -0.1264 -0.3213
17283THY     HO28138   3.211   2.529   3.058 -2.0696  1.2404 -0.0564
17283THY    CA128139   3.100   2.392   2.991 -0.1609  0.4874 -0.1454
17283THY    CA228140   3.078   2.255   2.957 -1.4782  0.0865 -0.6206
17283THY    CP128141   3.184   2.152   3.013 -0.5323 -0.2512  0.8815
17283THY    HP128142   3.281   2.199   3.033 -0.4270 -0.9510  0.9749
17283THY    CP228143   3.206   2.020   2.926 -0.5833  0.0546 -0.4490
17283THY    HP228144   3.107   1.977   2.912 -1.0617  1.9840 -0.0854
17283THY    HP328145   3.272   1.946   2.973 -0.8244  2.3982  0.7308
17283THY    HP428146   3.246   2.052   2.829  1.4267  0.5880 -1.1963
17283THY    CP328147   3.140   2.114   3.147  0.5395  0.5366 -0.1992
17283THY    HP528148   3.153   2.203   3.210 -0.9296  0.5073  0.0487
17283THY    HP628149   3.192   2.023   3.180 -0.6110  0.5958 -0.8545
17283THY    HP728150   3.034   2.087   3.150  0.0467 -1.9379  1.1607
17283THY    CA328151   2.967   2.220   2.878  0.3580 -0.1758 -0.5810
17283THY    HA328152   2.944   2.114   2.864  2.2458 -0.0022 -1.0440
17283THY    CA428153   2.880   2.321   2.829 -0.6803 -0.3567  0.6684
17283THY    HA428154   2.799   2.289   2.764 -0.5164 -0.1057 -0.2822
17283THY    CA528155   2.901   2.459   2.861  0.2324 -0.4487  0.0194
17283THY    CM128156   2.808   2.558   2.792 -0.2859 -0.1959 -0.9327
17283THY    HM128157   2.798   2.652   2.848 -1.2129  0.8066 -1.6106
17283THY    HM228158   2.705   2.520   2.792 -0.3424  2.1762 -0.9297
17283THY    HM328159   2.843   2.591   2.694 -1.2134 -0.5167 -0.8868
17283THY    CA628160   3.010   2.492   2.951 -0.5655  0.3197 -0.0378
17283THY    HA628161   3.015   2.598   2.971 -0.6912  2.3532 -0.3595
17284THY      O28162   3.526   3.133   2.939 -0.2063 -0.0344 -0.1455
17284THY     HO28163   3.508   3.140   2.843  1.9694 -0.5308 -0.5790
17284THY    CA128164   3.660   3.151   2.934 -0.1017 -0.1255  0.5113
17284THY    CA228165   3.750   3.077   3.013 -0.2242  0.1527 -0.5301
17284THY    CP128166   3.700   2.980   3.124 -0.2429 -0.0946 -0.4326
17284THY    HP128167   3.596   2.996   3.153  0.6774  2.1993  2.3606
17284THY    CP228168   3.771   3.009   3.258 -0.9223 -0.1616 -0.4522
17284THY    HP228169   3.759   3.115   3.286  1.1806 -3.0234  0.6953
17284THY    HP328170   3.878   2.989   3.243 -0.9501 -0.7409 -0.1912
17284THY    HP428171   3.732   2.940   3.333  0.6007  0.5085 -0.6402
17284THY    CP328172   3.720   2.829   3.091 -0.4777 -0.9564  0.1904
17284THY    HP528173   3.673   2.808   2.994  1.0454 -1.3634 -1.6093
17284THY    HP628174   3.675   2.768   3.170  0.8343 -0.1449  0.2292
17284THY    HP728175   3.825   2.801   3.077  0.3218  2.2393  1.2659
17284THY    CA328176   3.892   3.088   2.989  0.1907 -0.7308 -0.1262
17284THY    HA328177   3.955   3.045   3.066  0.2764 -1.3853 -1.1966
17284THY    CA428178   3.936   3.162   2.881  0.0395  0.0559  0.0057
17284THY    HA428179   4.043   3.172   2.872 -0.0577 -0.6086  0.4917
17284THY    CA528180   3.841   3.225   2.796  0.0525 -0.0286 -0.2063
17284THY    CM128181   3.893   3.301   2.681  0.0927 -0.1389 -0.1007
17284THY    HM128182   3.876   3.252   2.585  1.2803 -0.7269  0.6004
17284THY    HM228183   3.996   3.334   2.696 -0.7917  2.3833  1.8376
17284THY    HM328184   3.831   3.392   2.677  1.2448 -1.7687  0.6740
17284THY    CA628185   3.703   3.214   2.817 -0.7461 -0.1929 -0.9115
17284THY    HA628186   3.629   3.263   2.754 -0.0059 -1.4863 -1.4100
17285THY      O28187   9.068   4.610   6.953  0.1228 -0.0365 -0.2456
17285THY     HO28188   9.087   4.568   7.039  0.4301  0.0265  0.0160
17285THY    CA128189   8.939   4.633   6.931 -0.6379  0.0223 -0.0366
17285THY    CA228190   8.890   4.734   6.846  0.0928 -0.2451  0.2593
17285THY    CP128191   8.988   4.822   6.765  0.6857  0.0439  0.0606
17285THY    HP128192   9.060   4.755   6.715  0.3679 -1.1750  0.5926
17285THY    CP228193   9.065   4.924   6.853 -0.0101  0.2456  0.0212
17285THY    HP228194   9.148   4.968   6.797 -2.2094 -0.8062  3.1593
17285THY    HP328195   9.094   4.858   6.936 -0.4005  1.2922  1.1267
17285THY    HP428196   8.997   5.000   6.892 -0.7293  1.2716 -1.1088
17285THY    CP328197   8.921   4.886   6.644 -0.3382  0.8801 -0.6540
17285THY    HP528198   8.862   4.976   6.664  1.3029  0.7022  0.5050
17285THY    HP628199   8.853   4.818   6.591  0.2110 -1.9802  0.8819
17285THY    HP728200   8.992   4.928   6.572 -0.4086  1.9260  1.3548
17285THY    CA328201   8.752   4.748   6.838  0.4893 -0.0071 -0.5224
17285THY    HA328202   8.713   4.824   6.771  3.0200 -0.2072  0.6945
17285THY    CA428203   8.665   4.663   6.908 -0.2330 -0.6847 -0.5630
17285THY    HA428204   8.557   4.673   6.906 -0.3101 -1.3891 -1.3931
17285THY    CA528205   8.725   4.564   6.993  0.5680  0.3563  0.1604
17285THY    CM128206   8.633   4.479   7.077 -0.1688 -0.2809 -0.7593
17285THY    HM128207   8.680   4.396   7.131  0.4494  1.3107  0.5816
17285THY    HM228208   8.548   4.438   7.022  0.7085  0.3158 -3.5795
17285THY    HM328209   8.585   4.540   7.154  0.4446  0.5743 -1.3412
17285THY    CA628210   8.858   4.552   6.997 -0.5017 -0.3422  0.8583
17285THY    HA628211   8.898   4.476   7.064 -2.8492  1.9760  1.5213
17286THY      O28212   2.481   4.687   3.710  0.2776  0.2031 -0.2130
17286THY     HO28213   2.425   4.645   3.642  0.4182 -1.1611  1.6546
17286THY    CA128214   2.482   4.820   3.685 -0.0653 -1.3332  0.4678
17286THY    CA228215   2.519   4.912   3.789 -0.0859  0.2488 -0.2578
17286THY    CP128216   2.577   4.863   3.922  0.4203  0.2610  0.3158
17286THY    HP128217   2.622   4.764   3.906  0.9295  0.1933  0.5516
17286THY    CP228218   2.467   4.853   4.027 -0.5030  0.6101  0.7638
17286THY    HP228219   2.434   4.952   4.061  0.2278 -1.6000  1.8488
17286THY    HP328220   2.499   4.793   4.113 -2.8299  0.2579 -1.1060
17286THY    HP428221   2.383   4.798   3.984 -0.0434 -0.3522  0.7872
17286THY    CP328222   2.696   4.948   3.967 -0.1748 -0.0453 -0.3923
17286THY    HP528223   2.764   4.893   4.034  0.1018  0.9236  1.0782
17286THY    HP628224   2.665   5.047   4.002  0.3549  0.1655 -0.2987
17286THY    HP728225   2.748   4.955   3.870 -0.4003 -0.2389 -1.2336
17286THY    CA328226   2.518   5.043   3.758 -0.0222 -0.1362 -0.6089
17286THY    HA328227   2.547   5.118   3.831  2.3339 -0.6958 -0.8763
17286THY    CA428228   2.459   5.090   3.638  0.1304  0.2976  0.1722
17286THY    HA428229   2.445   5.194   3.610 -0.5153 -2.7657 -0.6316
17286THY    CA528230   2.412   4.995   3.537 -0.6589 -0.8696  0.2540
17286THY    CM128231   2.364   5.031   3.401  0.1307 -0.5704  0.3070
17286THY    HM128232   2.336   5.137   3.401 -1.4615 -1.7429 -0.0800
17286THY    HM228233   2.279   4.971   3.369 -0.1714  0.9634 -0.1310
17286THY    HM328234   2.436   5.029   3.318  0.4401 -0.3182 -2.3446
17286THY    CA628235   2.431   4.862   3.566  0.1143  0.2505  0.3813
17286THY    HA628236   2.387   4.790   3.497 -1.9496  1.5556  0.3026
17287THY      O28237   6.100   1.897   3.050 -0.3973  0.1384 -0.0009
17287THY     HO28238   6.071   1.872   3.140 -2.3968 -0.7528 -1.1734
17287THY    CA128239   6.186   1.803   3.015 -0.2205 -0.8327 -0.1954
17287THY    CA228240   6.221   1.775   2.883 -0.4111  0.3532 -0.2848
17287THY    CP128241   6.157   1.858   2.775  0.2041 -0.6658 -0.2279
17287THY    HP128242   6.114   1.946   2.824 -0.8823 -0.9140 -0.6055
17287THY    CP228243   6.045   1.777   2.715 -0.1197  0.2280  0.3425
17287THY    HP228244   6.070   1.673   2.693 -2.4542  4.5616 -1.3743
17287THY    HP328245   6.004   1.827   2.626 -1.0855  0.8738  0.7152
17287THY    HP428246   5.970   1.772   2.794 -1.5366 -1.0498  0.6154
17287THY    CP328247   6.248   1.911   2.664  0.8073 -0.4543  0.2996
17287THY    HP528248   6.185   1.969   2.596 -0.1164  1.7286  2.0056
17287THY    HP628249   6.273   1.818   2.612 -0.3729 -1.1300  0.3487
17287THY    HP728250   6.334   1.963   2.707 -0.2832  1.9742  0.2242
17287THY    CA328251   6.318   1.678   2.850  0.1736  0.5028  0.0512
17287THY    HA328252   6.344   1.662   2.746 -0.2836  0.0645  1.8914
17287THY    CA428253   6.372   1.607   2.955 -0.2565  0.4001 -0.0426
17287THY    HA428254   6.436   1.524   2.929 -1.8980 -2.4834 -0.5456
17287THY    CA528255   6.328   1.624   3.085 -0.1240 -0.4894 -0.5146
17287THY    CM128256   6.365   1.542   3.205 -0.4558  0.1035 -0.0555
17287THY    HM128257   6.280   1.488   3.250  0.5989  0.4236 -1.4838
17287THY    HM228258   6.432   1.600   3.270  0.5508 -0.3633 -0.6760
17287THY    HM328259   6.423   1.456   3.171 -0.0175 -0.1417  0.3319
17287THY    CA628260   6.241   1.729   3.117 -0.1019  0.7585 -0.5891
17287THY    HA628261   6.209   1.746   3.219 -0.0596  0.6378  0.2349
17288THY      O28262   8.177   0.636   2.229 -0.1641 -0.0440 -0.0583
17288THY     HO28263   8.246   0.589   2.280 -0.4214 -0.5965 -1.0610
17288THY    CA128264   8.100   0.546   2.167 -0.1099  0.2419 -1.1399
17288THY    CA228265   8.005   0.584   2.071 -0.4416  0.1103 -0.0840
17288THY    CP128266   7.980   0.731   2.030 -0.0202 -0.1862  0.4338
17288THY    HP128267   8.077   0.782   2.025  0.0153 -1.7204  0.2720
17288THY    CP228268   7.881   0.803   2.116  0.3535 -0.0521 -0.8253
17288THY    HP228269   7.798   0.734   2.135 -0.9133  0.3211  0.7372
17288THY    HP328270   7.840   0.892   2.067  0.2980  1.2503 -0.1111
17288THY    HP428271   7.930   0.837   2.208 -1.6808  0.8819 -0.3100
17288THY    CP328272   7.924   0.738   1.893 -0.3638  0.1993  0.3778
17288THY    HP528273   7.982   0.673   1.827 -0.1691  0.6754  0.0603
17288THY    HP628274   7.943   0.838   1.852  2.3326 -0.9599 -0.5262
17288THY    HP728275   7.815   0.730   1.891 -0.6077  0.8982  2.6675
17288THY    CA328276   7.935   0.472   2.014 -0.0310  0.0145 -0.3717
17288THY    HA328277   7.858   0.481   1.938  1.4348 -1.4719  0.1452
17288THY    CA428278   7.970   0.337   2.042 -0.0753 -0.2601 -0.0185
17288THY    HA428279   7.916   0.251   2.002  0.9217  2.0149 -1.8054
17288THY    CA528280   8.067   0.312   2.137 -0.4854  0.5452  0.0192
17288THY    CM128281   8.084   0.164   2.179 -0.2502  0.3856 -1.0855
17288THY    HM128282   7.991   0.124   2.220 -0.0637  0.7849 -1.1218
17288THY    HM228283   8.165   0.141   2.250  1.1390 -0.6164  0.4478
17288THY    HM328284   8.114   0.118   2.084  0.9712  0.3419 -0.2599
17288THY    CA628285   8.139   0.413   2.191  0.4326 -0.8346 -0.0452
17288THY    HA628286   8.212   0.392   2.269 -0.8269  1.1113  2.2146
17289THY      O28287   1.031   5.449   3.168 -0.2899 -0.1732  0.2234
17289THY     HO28288   1.020   5.443   3.264  2.5468  0.3037  1.0809
17289THY    CA128289   1.105   5.341   3.121 -0.0899  0.1190 -0.6611
17289THY    CA228290   1.168   5.337   2.989  0.3334  0.2713  0.3863
17289THY    CP128291   1.183   5.454   2.903  0.7316 -0.5284 -0.0656
17289THY    HP128292   1.160   5.535   2.974 -0.4811  0.3513 -1.1535
17289THY    CP228293   1.079   5.459   2.791 -0.1705 -1.3671  0.4755
17289THY    HP228294   1.073   5.554   2.738 -1.2782 -2.5681 -0.2265
17289THY    HP328295   0.981   5.436   2.833 -1.1621 -2.6585  2.1663
17289THY    HP428296   1.106   5.389   2.710 -2.0270 -0.5695 -1.2577
17289THY    CP328297   1.318   5.492   2.838 -0.2671  0.1783  0.4598
17289THY    HP528298   1.395   5.468   2.912  1.1893 -2.1788 -2.9580
17289THY    HP628299   1.322   5.601   2.823  0.5946  0.2091  0.4431
17289THY    HP728300   1.344   5.429   2.753  0.6884  0.8135 -0.0326
17289THY    CA328301   1.244   5.216   2.959  0.3317  0.3883  0.3943
17289THY    HA328302   1.302   5.204   2.868  0.6535  0.7865 -1.3869
17289THY    CA428303   1.242   5.113   3.059  0.2049  0.1601 -0.3982
17289THY    HA428304   1.304   5.025   3.042  1.5197 -1.8772  0.8352
17289THY    CA528305   1.179   5.125   3.178  0.5192 -0.4032  0.2252
17289THY    CM128306   1.173   5.015   3.276  0.2542  0.0143 -0.3144
17289THY    HM128307   1.272   4.989   3.316 -0.2943  1.3714 -0.3876
17289THY    HM228308   1.118   4.928   3.240  1.5743 -2.3958 -0.2438
17289THY    HM328309   1.120   5.047   3.366  0.4936 -0.1593  0.6098
17289THY    CA628310   1.105   5.241   3.211  0.6518  0.5727  0.7407
17289THY    HA628311   1.042   5.243   3.299 -1.3591 -0.7716  0.0049
17290THY      O28312   5.964   7.708   3.624 -0.6793 -0.2654  0.1858
17290THY     HO28313   6.015   7.648   3.680 -1.3229  1.5324  1.2161
17290THY    CA128314   5.837   7.697   3.661  0.4855  1.1544  0.1108
17290THY    CA228315   5.732   7.783   3.622 -0.1345 -0.4089  0.2526
17290THY    CP128316   5.783   7.908   3.558 -0.3093  1.1896 -0.1767
17290THY    HP128317   5.869   7.885   3.493 -0.3184  0.9556  0.4203
17290THY    CP228318   5.820   8.018   3.664 -0.3747  0.1106  0.4235
17290THY    HP228319   5.859   8.109   3.618 -0.5408  2.8584  1.9621
17290THY    HP328320   5.907   7.977   3.717 -1.0654  0.7172 -0.2955
17290THY    HP428321   5.739   8.044   3.734 -0.2268  0.4909 -0.1226
17290THY    CP328322   5.677   7.978   3.466  0.1330 -0.5450  0.7210
17290THY    HP528323   5.694   8.084   3.441  0.0082  1.1407  1.1602
17290THY    HP628324   5.577   7.977   3.510  0.0816 -0.5447 -2.1784
17290THY    HP728325   5.678   7.930   3.367 -1.1384 -0.4610  0.4996
17290THY    CA328326   5.596   7.762   3.661 -0.1071 -0.0926  0.0128
17290THY    HA328327   5.514   7.829   3.638 -1.7343  0.8732 -1.5567
17290THY    CA428328   5.579   7.650   3.742 -0.1119  0.4723 -0.2239
17290THY    HA428329   5.481   7.629   3.783  0.4032  1.8944  0.0760
17290THY    CA528330   5.683   7.562   3.782  0.0632 -0.5463 -0.3091
17290THY    CM128331   5.649   7.447   3.875  0.1958  0.9694  0.4558
17290THY    HM128332   5.710   7.459   3.966  1.6685 -0.0695  1.2171
17290THY    HM228333   5.680   7.353   3.829  0.8010  1.3811  0.4446
17290THY    HM328334   5.542   7.433   3.892 -0.0077 -0.7566 -0.3806
17290THY    CA628335   5.815   7.582   3.736  1.0115 -0.2301  0.2533
17290THY    HA628336   5.899   7.517   3.760 -0.3497  1.1971 -1.0793
17291THY      O28337   6.147   0.319   4.667  0.2295 -0.1860  0.2578
17291THY     HO28338   6.204   0.284   4.737 -0.6582  0.5020  0.1431
17291THY    CA128339   6.016   0.288   4.686 -0.0071  0.5509  0.2256
17291THY    CA228340   5.922   0.308   4.584 -0.2876 -0.3353 -0.9654
17291THY    CP128341   5.978   0.343   4.440  0.0619 -0.5003  0.0407
17291THY    HP128342   6.081   0.379   4.435  0.3016 -1.9675 -0.7748
17291THY    CP228343   5.892   0.443   4.364 -0.4023 -0.1469  0.5317
17291THY    HP228344   5.833   0.507   4.431 -0.5416 -0.9042  1.2112
17291THY    HP328345   5.813   0.399   4.303 -0.3479 -0.8609  1.3870
17291THY    HP428346   5.959   0.495   4.294  1.3902  1.4611  0.5262
17291THY    CP328347   5.974   0.212   4.359  0.1177 -0.2555 -0.2830
17291THY    HP528348   6.050   0.145   4.402  1.9005 -2.6371  0.0610
17291THY    HP628349   5.997   0.224   4.252 -2.9735 -0.8175  1.7664
17291THY    HP728350   5.876   0.166   4.376 -0.2852 -2.4241 -0.3504
17291THY    CA328351   5.790   0.295   4.621  0.3885 -0.5636  0.3285
17291THY    HA328352   5.716   0.310   4.543 -0.3318 -0.4052 -2.0215
17291THY    CA428353   5.751   0.244   4.743 -0.2486  0.0640  0.5400
17291THY    HA428354   5.647   0.220   4.762  0.0350 -0.2543 -1.0404
17291THY    CA528355   5.844   0.215   4.840  0.8732 -0.2423  0.0575
17291THY    CM128356   5.803   0.175   4.975  0.0832 -0.6547  0.4110
17291THY    HM128357   5.729   0.244   5.018 -0.5696 -2.9647  1.2166
17291THY    HM228358   5.889   0.177   5.044  0.6085 -1.2006 -1.4407
17291THY    HM328359   5.760   0.075   4.972 -1.9352  0.5130  1.1759
17291THY    CA628360   5.979   0.237   4.810  0.0652 -0.5030 -0.1921
17291THY    HA628361   6.057   0.215   4.882 -0.1402 -0.6190 -1.3775
17292THY      O28362   6.328   0.495   6.820  0.3212  0.2178  0.2320
17292THY     HO28363   6.365   0.442   6.893  1.6528  0.8084  1.8908
17292THY    CA128364   6.345   0.420   6.703  0.0674  0.3575 -0.1861
17292THY    CA228365   6.270   0.449   6.587  0.0639 -0.3287  0.7409
17292THY    CP128366   6.190   0.571   6.577  0.0083 -0.2605  0.2632
17292THY    HP128367   6.214   0.633   6.664  1.9870  1.2045 -2.3272
17292THY    CP228368   6.037   0.552   6.586 -0.5491  0.2822  0.6527
17292THY    HP228369   5.992   0.502   6.499 -0.2823 -0.7932  2.2232
17292THY    HP328370   5.989   0.648   6.606  1.6106 -1.8565  2.3009
17292THY    HP428371   6.016   0.492   6.675 -0.0117 -0.5207 -0.8130
17292THY    CP328372   6.233   0.655   6.454  0.5916 -0.1745  1.0871
17292THY    HP528373   6.199   0.605   6.363 -0.7464  0.6928  0.3606
17292THY    HP628374   6.342   0.667   6.458  0.3717  0.4059  3.3678
17292THY    HP728375   6.188   0.755   6.449 -0.1342 -1.1601  0.7311
17292THY    CA328376   6.283   0.367   6.478  0.8412 -0.4760  0.3093
17292THY    HA328377   6.224   0.391   6.390 -0.2376  0.2957  0.5937
17292THY    CA428378   6.367   0.255   6.482  0.0552  0.0934 -0.3224
17292THY    HA428379   6.384   0.191   6.395  2.6516  0.6125 -0.4772
17292THY    CA528380   6.449   0.234   6.592  0.4613  0.0751  0.5716
17292THY    CM128381   6.555   0.118   6.596 -0.7883  1.1349  0.3492
17292THY    HM128382   6.526   0.030   6.654 -2.0786  1.9864  1.3059
17292THY    HM228383   6.645   0.145   6.653  1.9964 -0.6782 -3.9740
17292THY    HM328384   6.598   0.095   6.498 -2.5946 -0.0965  1.8991
17292THY    CA628385   6.437   0.320   6.704  0.1208  0.0715 -0.4672
17292THY    HA628386   6.508   0.311   6.786  2.5812 -1.6585  1.5009
17293THY      O28387   6.518   7.067   3.780 -0.1839 -0.9968  0.3380
17293THY     HO28388   6.471   7.068   3.695 -1.0496 -0.5748 -0.9407
17293THY    CA128389   6.607   7.162   3.775 -0.1545 -0.1702 -0.3326
17293THY    CA228390   6.729   7.149   3.838 -0.0457 -0.3618  0.6221
17293THY    CP128391   6.764   7.024   3.922  0.1024  0.3924  0.2824
17293THY    HP128392   6.682   6.953   3.904  0.8876 -1.8007 -0.1386
17293THY    CP228393   6.787   7.063   4.071  0.2774 -0.3360  0.4821
17293THY    HP228394   6.695   7.108   4.111 -0.5226  0.1786 -1.5309
17293THY    HP328395   6.878   7.124   4.072  1.6500  1.4419 -1.4353
17293THY    HP428396   6.801   6.972   4.130 -1.1490  0.5496  0.7969
17293THY    CP328397   6.886   6.954   3.865 -0.3706 -0.0932  0.3146
17293THY    HP528398   6.907   6.868   3.929  0.8131  0.1358  0.7566
17293THY    HP628399   6.980   7.010   3.872 -0.4920 -1.4453  0.7404
17293THY    HP728400   6.876   6.921   3.761 -2.5558  0.3815 -0.7431
17293THY    CA328401   6.828   7.251   3.824 -0.4365 -0.0617 -0.0854
17293THY    HA328402   6.926   7.245   3.871 -0.4897  0.0552 -0.0458
17293THY    CA428403   6.792   7.361   3.757  0.4502  0.3765  0.9988
17293THY    HA428404   6.863   7.442   3.741  1.4897 -3.8004 -0.4379
17293THY    CA528405   6.677   7.364   3.681  0.2365 -0.4399  0.0285
17293THY    CM128406   6.642   7.487   3.590 -0.6444 -1.2571 -0.2326
17293THY    HM128407   6.533   7.497   3.595 -0.4246  0.1254  2.3445
17293THY    HM228408   6.669   7.465   3.486  1.6745 -0.9432  0.8027
17293THY    HM328409   6.687   7.581   3.624  0.3522  0.6866 -1.3505
17293THY    CA628410   6.587   7.261   3.682 -0.1450  0.1838  0.3264
17293THY    HA628411   6.502   7.256   3.615 -1.3011  1.5526  1.0647
17294THY      O28412   9.049   3.216   4.132  0.5259 -0.0727  0.0589
17294THY     HO28413   9.008   3.279   4.194 -0.8591  0.1401 -0.9911
17294THY    CA128414   9.036   3.095   4.195  0.8537 -0.2545  0.5467
17294THY    CA228415   8.937   3.004   4.164  0.2636  0.6358  0.0068
17294THY    CP128416   8.825   3.042   4.064 -0.5498 -0.3001  0.4605
17294THY    HP128417   8.853   3.134   4.012 -0.0518  1.7589  1.5537
17294THY    CP228418   8.689   3.066   4.142  0.6482  0.4428  0.2798
17294THY    HP228419   8.679   2.980   4.209  1.1071 -0.4372 -0.4855
17294THY    HP328420   8.609   3.079   4.068  0.8067  0.1709 -0.2600
17294THY    HP428421   8.708   3.155   4.203 -1.0415  1.6276 -0.1147
17294THY    CP328422   8.810   2.933   3.956 -0.2318 -0.1173  0.3766
17294THY    HP528423   8.751   2.970   3.872  0.9403 -1.2438 -0.2045
17294THY    HP628424   8.763   2.839   3.987  0.6658  0.2309  0.0253
17294THY    HP728425   8.908   2.916   3.910  0.4381  1.1641  0.6609
17294THY    CA328426   8.923   2.880   4.232 -0.0856  0.0998  0.1129
17294THY    HA328427   8.836   2.817   4.216  0.8492  0.8187 -1.4364
17294THY    CA428428   9.019   2.843   4.325 -0.1145  0.1446  0.0986
17294THY    HA428429   9.008   2.748   4.377 -1.4114  0.9005  0.6333
17294THY    CA528430   9.124   2.933   4.355  0.0553  0.3519  0.4984
17294THY    CM128431   9.215   2.899   4.463 -0.4277 -0.5381 -0.4574
17294THY    HM128432   9.159   2.862   4.549 -1.1310  0.3456  2.4612
17294THY    HM228433   9.267   2.990   4.495 -2.4299  1.6553 -0.0065
17294THY    HM328434   9.287   2.820   4.436  0.1703 -1.7101  0.4417
17294THY    CA628435   9.133   3.059   4.299  0.4694  0.4955  0.6241
17294THY    HA628436   9.226   3.113   4.315  2.0615 -1.2671 -1.4284
17295THY      O28437   0.714   5.030   5.942 -0.1224 -0.1676  0.6071
17295THY     HO28438   0.677   4.980   6.016  1.7627 -0.9415 -2.2278
17295THY    CA128439   0.833   4.972   5.919  0.4398 -0.6426 -0.0736
17295THY    CA228440   0.892   4.962   5.792  0.4880  0.7382 -0.3935
17295THY    CP128441   0.821   5.023   5.670 -0.3361  0.5156 -0.2114
17295THY    HP128442   0.746   5.089   5.716 -0.7933 -0.6021  0.0697
17295THY    CP228443   0.761   4.914   5.570 -0.6503  0.0530  0.6893
17295THY    HP228444   0.705   4.958   5.486  0.5853 -1.2633 -0.1686
17295THY    HP328445   0.706   4.836   5.624  0.6424 -1.0203 -1.0525
17295THY    HP428446   0.833   4.845   5.525 -0.5271 -0.2410  1.0096
17295THY    CP328447   0.918   5.112   5.597  0.2515 -0.1396 -0.2035
17295THY    HP528448   0.865   5.191   5.542 -2.0133  2.0295 -0.0800
17295THY    HP628449   0.987   5.053   5.535  0.4589 -1.0667  0.9845
17295THY    HP728450   0.980   5.172   5.665 -0.0792 -0.1871  0.1975
17295THY    CA328451   1.005   4.893   5.771 -0.4318 -0.4542 -0.0513
17295THY    HA328452   1.037   4.871   5.669 -0.2117 -0.5557  0.7113
17295THY    CA428453   1.074   4.838   5.883  0.1404  0.1561 -0.5342
17295THY    HA428454   1.164   4.782   5.861 -0.3668 -1.3761 -0.8165
17295THY    CA528455   1.024   4.858   6.009  0.0066 -0.2703 -0.6216
17295THY    CM128456   1.101   4.807   6.132  0.4777  0.5178 -0.1990
17295THY    HM128457   1.045   4.787   6.225 -0.5663 -0.0026  0.2471
17295THY    HM228458   1.172   4.883   6.167  3.0197 -1.8472 -1.3254
17295THY    HM328459   1.152   4.713   6.107  0.6312  1.7534 -0.4694
17295THY    CA628460   0.904   4.931   6.030 -0.0356  0.4779 -0.5952
17295THY    HA628461   0.875   4.943   6.134  0.3604  0.5617 -0.3451
17296THY      O28462   7.729   0.805   5.480  0.2403  0.0302 -0.5081
17296THY     HO28463   7.738   0.737   5.410  0.9425  0.3261 -0.7281
17296THY    CA128464   7.642   0.904   5.458 -0.0089 -0.2929 -0.2795
17296THY    CA228465   7.641   1.040   5.504 -0.6808  0.4018 -0.1422
17296THY    CP128466   7.733   1.085   5.613 -0.4995  0.4107  0.3978
17296THY    HP128467   7.830   1.033   5.610 -1.2576  0.0715 -1.0459
17296THY    CP228468   7.666   1.063   5.755  0.2265 -0.2747 -0.5754
17296THY    HP228469   7.652   0.955   5.767  0.1557 -0.4160 -0.5816
17296THY    HP328470   7.574   1.117   5.780  0.8590 -0.8892  0.8433
17296THY    HP428471   7.740   1.090   5.831  1.5770 -1.8103  0.1837
17296THY    CP328472   7.776   1.231   5.603  0.1519  0.4830  0.3160
17296THY    HP528473   7.689   1.293   5.628  2.4111  4.5313  2.2710
17296THY    HP628474   7.816   1.252   5.503 -0.2115  0.4033  0.6493
17296THY    HP728475   7.856   1.257   5.674  2.5451 -2.7403  2.5741
17296THY    CA328476   7.532   1.125   5.478  0.1077  0.4766 -0.8770
17296THY    HA328477   7.517   1.225   5.518 -0.8895 -2.0614  0.0645
17296THY    CA428478   7.437   1.076   5.391  0.3919 -0.5708 -0.4225
17296THY    HA428479   7.344   1.128   5.368  0.6150  1.1768  0.8495
17296THY    CA528480   7.436   0.947   5.339  0.2085  0.3653 -0.3863
17296THY    CM128481   7.323   0.889   5.261  0.2607 -0.1916 -0.1983
17296THY    HM128482   7.234   0.954   5.258  0.2447 -0.0595 -0.2147
17296THY    HM228483   7.292   0.793   5.304  0.0539  0.8920  0.3395
17296THY    HM328484   7.356   0.865   5.159 -3.3114 -1.6613  0.3605
17296THY    CA628485   7.536   0.862   5.377 -0.1393 -0.0192  0.3044
17296THY    HA628486   7.531   0.759   5.343  1.9377 -0.9839  0.4750
17297THY      O28487   8.868   8.987   5.119 -0.0187  0.6579  0.6002
17297THY     HO28488   8.923   9.012   5.043  2.2619  1.3062 -1.9391
17297THY    CA128489   8.944   9.001   5.235  0.1404 -0.0558  0.2877
17297THY    CA228490   8.911   8.933   5.356 -0.0409  0.4961  0.8159
17297THY    CP128491   8.778   8.844   5.352  0.3722  0.4036 -0.1335
17297THY    HP128492   8.709   8.872   5.272  0.6103  0.5462  0.9104
17297THY    CP228493   8.705   8.864   5.488  1.0129 -0.3465  0.8565
17297THY    HP228494   8.620   8.794   5.484  0.8778 -0.1641  1.0068
17297THY    HP328495   8.672   8.966   5.514  0.2380  2.8855 -0.0975
17297THY    HP428496   8.773   8.821   5.561 -0.0773  0.5100  0.5277
17297THY    CP328497   8.815   8.699   5.337 -0.0850 -0.3342  0.2636
17297THY    HP528498   8.868   8.660   5.425  0.4571 -0.6481  0.2844
17297THY    HP628499   8.884   8.691   5.252  0.2426  0.0182 -0.7753
17297THY    HP728500   8.732   8.639   5.296 -1.0393 -0.1114  1.3796
17297THY    CA328501   8.994   8.959   5.470  0.5839 -0.4643  0.3844
17297THY    HA328502   8.963   8.919   5.566  1.0520 -1.3075 -2.1538
17297THY    CA428503   9.098   9.051   5.458  0.1593 -0.3019 -0.8885
17297THY    HA428504   9.154   9.076   5.548 -1.9138  1.3007 -1.6268
17297THY    CA528505   9.126   9.117   5.339  0.3862 -0.7562 -0.0940
17297THY    CM128506   9.230   9.224   5.338 -0.0365 -0.9959 -0.2910
17297THY    HM128507   9.317   9.191   5.280  0.2145  0.2168 -1.8841
17297THY    HM228508   9.265   9.237   5.441  0.2133 -1.2841  1.5877
17297THY    HM328509   9.179   9.311   5.296 -0.0320  1.8678  1.2006
17297THY    CA628510   9.045   9.099   5.228 -0.1180  0.4171 -0.9840
17297THY    HA628511   9.074   9.161   5.143  1.7197  0.9224 -1.0795
17298THY      O28512   2.050   6.642   6.151  0.2537  0.8105 -0.2591
17298THY     HO28513   2.028   6.570   6.089  1.9364  0.3512 -0.4306
17298THY    CA128514   2.089   6.752   6.075  0.4370 -0.0790 -0.4427
17298THY    CA228515   2.082   6.884   6.128 -0.2670 -0.0067  0.2360
17298THY    CP128516   2.036   6.902   6.273 -0.4015 -0.3567 -0.2997
17298THY    HP128517   2.039   6.815   6.340 -4.0354  0.4564  0.0097
17298THY    CP228518   1.884   6.932   6.271 -0.3083 -0.0582 -0.0773
17298THY    HP228519   1.833   6.938   6.368 -0.0698  0.0774 -0.2601
17298THY    HP328520   1.825   6.868   6.205  0.0831  1.2329 -1.8207
17298THY    HP428521   1.868   7.037   6.241  0.2805 -0.8026 -0.1910
17298THY    CP328522   2.122   7.016   6.340  0.2858 -0.5001  0.0922
17298THY    HP528523   2.095   7.115   6.302 -2.2653 -0.0615 -0.3593
17298THY    HP628524   2.229   6.995   6.341 -0.2851  3.1230 -3.9219
17298THY    HP728525   2.095   7.024   6.446 -0.0736 -0.5782 -0.0875
17298THY    CA328526   2.104   6.990   6.037 -0.3069  0.1736 -0.6413
17298THY    HA328527   2.093   7.092   6.073 -0.6673  2.7520 -1.5132
17298THY    CA428528   2.142   6.969   5.905 -0.3814 -0.0653  0.6448
17298THY    HA428529   2.160   7.053   5.839  0.2080 -0.2100  0.4127
17298THY    CA528530   2.154   6.836   5.857 -0.2377 -0.0769  0.2340
17298THY    CM128531   2.197   6.815   5.718 -0.5266  0.2277  0.1417
17298THY    HM128532   2.195   6.709   5.692 -1.8954  3.1025 -0.6105
17298THY    HM228533   2.297   6.860   5.711 -1.5283  1.3124  2.7217
17298THY    HM328534   2.129   6.864   5.648  0.9839 -0.8807  0.7673
17298THY    CA628535   2.116   6.735   5.941 -0.5674  0.5376 -0.7924
17298THY    HA628536   2.121   6.634   5.901  0.7990  1.0588 -0.9433
17299THY      O28537   5.933   7.040   4.870  0.5703 -0.5394  0.8944
17299THY     HO28538   6.007   7.057   4.930  2.2881 -1.9553 -1.1698
17299THY    CA128539   5.939   6.909   4.842  0.1246 -0.4397 -1.0678
17299THY    CA228540   5.843   6.845   4.762 -0.1172 -0.0755  0.2086
17299THY    CP128541   5.735   6.928   4.696 -0.0618 -0.8883 -0.3974
17299THY    HP128542   5.726   7.019   4.757 -0.7561 -2.1271  0.3884
17299THY    CP228543   5.595   6.876   4.696  0.7214 -0.2857  0.0723
17299THY    HP228544   5.579   6.780   4.645  2.8419 -1.0748  0.0667
17299THY    HP328545   5.524   6.948   4.655 -1.5521  0.3576 -1.7043
17299THY    HP428546   5.570   6.870   4.802 -0.2396 -0.4827  0.4100
17299THY    CP328547   5.781   6.974   4.558  0.5325 -0.0732 -0.0263
17299THY    HP528548   5.783   6.887   4.491 -2.6848 -1.1016  0.5385
17299THY    HP628549   5.883   7.008   4.540  1.0825 -0.1920 -1.6601
17299THY    HP728550   5.705   7.041   4.517  0.4233  0.2228  0.0291
17299THY    CA328551   5.844   6.701   4.747  0.0842 -0.1599  0.2861
17299THY    HA328552   5.763   6.651   4.694  0.4208 -0.7923  0.3960
17299THY    CA428553   5.939   6.630   4.815 -0.8783 -0.5078  0.6495
17299THY    HA428554   5.945   6.521   4.816 -0.0221  1.5782  0.6674
17299THY    CA528555   6.042   6.695   4.891  0.2605 -0.4930 -0.1591
17299THY    CM128556   6.140   6.613   4.971 -0.1202  0.4974 -0.5204
17299THY    HM128557   6.088   6.523   5.006  0.4760 -1.6390 -1.7692
17299THY    HM228558   6.180   6.670   5.055 -1.7159  0.2656  1.0032
17299THY    HM328559   6.218   6.589   4.898 -0.6994 -0.9696  1.7673
17299THY    CA628560   6.045   6.832   4.895  0.3575 -0.4530  0.8209
17299THY    HA628561   6.130   6.871   4.951  0.3174  0.3750 -0.2387
17300THY      O28562   2.551   8.020   6.554 -0.2660 -0.0031 -0.2149
17300THY     HO28563   2.618   8.085   6.526  0.5598 -0.0473 -1.0656
17300THY    CA128564   2.598   7.946   6.649  0.1961 -0.0345 -0.1082
17300THY    CA228565   2.512   7.878   6.742  0.2655 -0.1098  0.8465
17300THY    CP128566   2.349   7.888   6.751 -0.2251 -0.0938  0.0245
17300THY    HP128567   2.312   7.924   6.654  0.5920  0.3298  2.1770
17300THY    CP228568   2.296   7.992   6.849 -0.2750  0.6945 -0.3373
17300THY    HP228569   2.187   8.000   6.846 -0.3115  3.1686  1.1167
17300THY    HP328570   2.331   8.091   6.819 -1.2058  2.3596  0.5424
17300THY    HP428571   2.331   7.968   6.950 -0.2547  0.9122  0.5987
17300THY    CP328572   2.260   7.761   6.780 -0.2648  0.4549 -0.2368
17300THY    HP528573   2.279   7.689   6.700  0.3211 -2.6368  3.0874
17300THY    HP628574   2.155   7.790   6.774 -0.5349 -2.7846 -1.4622
17300THY    HP728575   2.293   7.724   6.878  0.7573 -0.4010 -1.7335
17300THY    CA328576   2.583   7.810   6.839 -0.2698 -0.1381  0.0758
17300THY    HA328577   2.527   7.753   6.913 -2.3977 -2.0549 -0.4390
17300THY    CA428578   2.718   7.795   6.847 -0.1204  0.9581 -0.2709
17300THY    HA428579   2.760   7.730   6.923  0.2183  0.5084 -0.5856
17300THY    CA528580   2.793   7.863   6.750  0.1488  0.2106 -0.1801
17300THY    CM128581   2.935   7.810   6.730 -0.6449  0.0192 -0.2755
17300THY    HM128582   2.986   7.778   6.822  0.6876 -1.1989 -1.7809
17300THY    HM228583   2.994   7.895   6.692 -2.4161  0.6381  1.3035
17300THY    HM328584   2.946   7.721   6.668 -1.1901  1.1361 -1.1526
17300THY    CA628585   2.734   7.943   6.654 -0.2341 -0.5589 -0.2673
17300THY    HA628586   2.785   7.988   6.569 -1.5811 -0.7848  0.9225
17301THY      O28587   6.588   2.357   3.065  0.4323 -0.6592 -0.4737
17301THY     HO28588   6.647   2.419   3.112 -0.1360  0.2532 -0.5990
17301THY    CA128589   6.657   2.254   3.029 -0.5438  0.4767 -0.3016
17301THY    CA228590   6.594   2.134   2.978  0.4642 -0.1697 -0.0657
17301THY    CP128591   6.446   2.119   2.962  0.1072  0.5235  0.1186
17301THY    HP128592   6.425   2.024   2.912  0.2606 -0.5270  0.6163
17301THY    CP228593   6.401   2.224   2.860  0.7376 -0.1429  0.3642
17301THY    HP228594   6.292   2.215   2.860  0.7155 -0.5929  0.6198
17301THY    HP328595   6.429   2.218   2.755 -2.1842 -0.9856 -0.2421
17301THY    HP428596   6.409   2.326   2.900  2.2704  1.2987 -0.2861
17301THY    CP328597   6.366   2.115   3.095  0.5002  0.8100 -0.5971
17301THY    HP528598   6.371   2.019   3.147 -0.7778 -0.6209 -1.4818
17301THY    HP628599   6.263   2.122   3.060  1.3252 -1.9203 -0.9776
17301THY    HP728600   6.390   2.196   3.166  0.2991 -1.3418  1.4644
17301THY    CA328601   6.684   2.029   2.943 -0.1857 -0.4086 -0.0840
17301THY    HA328602   6.652   1.930   2.910 -0.8591  0.5980 -0.2171
17301THY    CA428603   6.817   2.035   2.968 -0.9483 -0.1122 -0.1188
17301THY    HA428604   6.884   1.952   2.956 -0.3216 -0.4191  0.4245
17301THY    CA528605   6.881   2.149   3.018 -0.0676  0.2609 -0.6198
17301THY    CM128606   7.021   2.146   3.055  0.2714 -0.0587 -0.3329
17301THY    HM128607   7.038   2.058   3.119 -1.0089  1.3680  0.3860
17301THY    HM228608   7.049   2.232   3.118  1.8828  2.0197 -2.2609
17301THY    HM328609   7.074   2.125   2.962 -2.4450 -1.2387 -2.7871
17301THY    CA628610   6.800   2.257   3.039  0.3304 -0.7409  0.1638
17301THY    HA628611   6.842   2.349   3.079  0.5358 -2.2547  0.7680
17302THY      O28612   6.422   3.639   4.126 -0.0230 -0.0347 -0.2339
17302THY     HO28613   6.325   3.641   4.119  0.0494 -1.8779 -0.9818
17302THY    CA128614   6.456   3.517   4.092 -1.0228  0.1290  0.9119
17302THY    CA228615   6.591   3.480   4.071 -0.3120  0.4786 -0.4388
17302THY    CP128616   6.704   3.566   4.109 -0.5421 -0.1445 -0.0673
17302THY    HP128617   6.674   3.665   4.148  0.4006  0.6621 -0.0902
17302THY    CP228618   6.798   3.595   3.988  0.3113  0.2396 -0.1085
17302THY    HP228619   6.738   3.647   3.911 -3.7529 -0.1665 -4.6526
17302THY    HP328620   6.848   3.508   3.944  1.3021  0.0902  0.5180
17302THY    HP428621   6.881   3.650   4.032  2.1052  0.3716 -2.7709
17302THY    CP328622   6.784   3.514   4.227 -0.1496 -0.0543  0.3906
17302THY    HP528623   6.837   3.602   4.264  1.3206 -0.1338 -0.4386
17302THY    HP628624   6.865   3.445   4.202 -0.3444  0.0920  0.1047
17302THY    HP728625   6.721   3.478   4.309 -1.6548 -0.7069  1.4188
17302THY    CA328626   6.622   3.355   4.024 -0.2296 -0.2634  0.2748
17302THY    HA328627   6.725   3.320   4.019  0.0546  1.1079  0.8668
17302THY    CA428628   6.521   3.257   4.009  0.2761 -0.6257  1.0046
17302THY    HA428629   6.539   3.154   3.978 -0.1348  2.4173 -0.1028
17302THY    CA528630   6.388   3.295   4.031  0.0654 -0.0049 -0.1505
17302THY    CM128631   6.276   3.201   4.006 -0.3448 -0.9538 -0.1341
17302THY    HM128632   6.257   3.197   3.898 -0.2952 -0.9167 -2.0454
17302THY    HM228633   6.186   3.230   4.063  1.3282  2.1960 -0.6508
17302THY    HM328634   6.286   3.097   4.040 -0.8656 -2.4635 -0.6940
17302THY    CA628635   6.357   3.426   4.071  0.1971 -0.1516 -0.0466
17302THY    HA628636   6.253   3.457   4.083  0.3712  0.9899  0.1481
17303THY      O28637   5.685   0.900   2.977 -0.1191  0.4337 -0.3028
17303THY     HO28638   5.654   0.829   3.036 -1.2496  0.7528  0.4358
17303THY    CA128639   5.573   0.940   2.914 -0.4146 -0.5164 -0.6623
17303THY    CA228640   5.571   1.019   2.798 -0.5722  0.7898 -0.3163
17303THY    CP128641   5.702   1.079   2.746  0.4987 -0.0042  0.5717
17303THY    HP128642   5.782   1.056   2.816  0.8967  0.2081  2.4183
17303THY    CP228643   5.689   1.237   2.731  0.0370 -0.3284  0.1559
17303THY    HP228644   5.597   1.267   2.681  1.2984 -2.2540  1.0541
17303THY    HP328645   5.781   1.271   2.681  0.4475  1.1265  1.2713
17303THY    HP428646   5.694   1.268   2.836  3.1032  0.5027 -2.5479
17303THY    CP328647   5.731   1.034   2.607 -0.2593  0.0700  0.1819
17303THY    HP528648   5.825   1.079   2.571  0.1751 -0.0433 -0.7924
17303THY    HP628649   5.649   1.073   2.546  0.2465 -0.4511  0.4453
17303THY    HP728650   5.724   0.925   2.603 -1.2834 -0.5445  0.2602
17303THY    CA328651   5.449   1.064   2.736 -0.1271 -0.1202  0.6286
17303THY    HA328652   5.453   1.123   2.645 -0.7185 -0.3128  0.3734
17303THY    CA428653   5.334   1.015   2.797  0.3833 -0.3004 -0.4726
17303THY    HA428654   5.237   1.036   2.752  0.1620 -0.9303 -2.6595
17303THY    CA528655   5.338   0.932   2.916  0.7148 -0.5462 -0.3116
17303THY    CM128656   5.205   0.908   2.989  1.3476  0.4923 -0.3802
17303THY    HM128657   5.190   0.986   3.065  0.6145 -0.5894  0.5603
17303THY    HM228658   5.210   0.808   3.033  0.5099 -0.8133 -1.0058
17303THY    HM328659   5.120   0.905   2.920  0.4892  1.4301  1.1228
17303THY    CA628660   5.454   0.896   2.973  0.3440 -0.6555  0.3393
17303THY    HA628661   5.449   0.838   3.064 -1.1379 -1.4415 -0.8426
17304THY      O28662   5.643   0.690   3.169 -0.1142 -0.5260 -0.1356
17304THY     HO28663   5.611   0.609   3.126  0.6612 -2.4940  0.5505
17304THY    CA128664   5.734   0.653   3.261  0.8238 -0.0339 -0.5276
17304THY    CA228665   5.770   0.729   3.371  0.1435  0.6679 -0.0987
17304THY    CP128666   5.701   0.867   3.387 -0.2793  0.2890 -0.6982
17304THY    HP128667   5.611   0.871   3.325 -0.6134  0.7732 -0.6785
17304THY    CP228668   5.789   0.985   3.339  0.0995 -0.2214 -0.2617
17304THY    HP228669   5.854   0.957   3.256  3.1064  1.2646  1.7965
17304THY    HP328670   5.856   1.022   3.417 -1.1338  0.8305 -0.1576
17304THY    HP428671   5.727   1.070   3.309 -0.2305 -2.2277 -1.1563
17304THY    CP328672   5.656   0.897   3.529 -0.1245 -0.4755  0.3349
17304THY    HP528673   5.595   0.987   3.533 -1.6684 -1.1532 -0.6380
17304THY    HP628674   5.730   0.900   3.610 -1.0088  0.3849 -0.1824
17304THY    HP728675   5.577   0.824   3.551 -1.4601  0.0221  1.8728
17304THY    CA328676   5.878   0.692   3.454  0.2666 -0.0518  0.5390
17304THY    HA328677   5.912   0.746   3.542 -0.8848  1.0268 -0.4452
17304THY    CA428678   5.948   0.575   3.419 -0.1348  0.4444 -0.4816
17304THY    HA428679   6.038   0.549   3.475  1.1511 -0.8400  0.9788
17304THY    CA528680   5.912   0.500   3.312  0.0815  0.4932 -0.1739
17304THY    CM128681   5.990   0.380   3.283 -0.1052 -0.0412 -0.3774
17304THY    HM128682   6.092   0.389   3.322  0.1837 -0.2674 -2.2903
17304THY    HM228683   5.986   0.348   3.178  1.3691 -0.1749 -0.1564
17304THY    HM328684   5.951   0.290   3.331 -0.5166 -1.5953 -1.0631
17304THY    CA628685   5.804   0.541   3.230 -0.3215 -0.3972 -0.1412
17304THY    HA628686   5.772   0.477   3.148  0.4459 -0.7321 -0.1106
17305THY      O28687   6.263   7.205   6.121  0.4227 -0.2862  0.0310
17305THY     HO28688   6.173   7.219   6.087  0.4119  0.8413  3.9018
17305THY    CA128689   6.326   7.134   6.028  1.3993 -0.3819  0.4520
17305THY    CA228690   6.433   7.042   6.045 -0.1521 -0.8463 -0.3150
17305THY    CP128691   6.501   7.030   6.181  0.8080  0.5560 -0.2707
17305THY    HP128692   6.476   7.120   6.239 -1.1836 -3.6158  2.1749
17305THY    CP228693   6.656   7.032   6.163 -0.2493 -0.0779 -0.7468
17305THY    HP228694   6.707   7.048   6.258  0.2795 -0.5427  0.4451
17305THY    HP328695   6.688   7.120   6.106 -0.7328 -0.0621 -0.5576
17305THY    HP428696   6.701   6.943   6.116  2.1331 -2.5094  1.5652
17305THY    CP328697   6.449   6.908   6.258  0.5737  0.3421 -0.3154
17305THY    HP528698   6.341   6.907   6.236  0.7188 -0.7008  1.3607
17305THY    HP628699   6.478   6.917   6.363  0.7018  0.3874 -1.1791
17305THY    HP728700   6.489   6.813   6.221 -2.3754 -0.1351 -1.4901
17305THY    CA328701   6.478   6.968   5.929 -0.8763 -0.2530  0.6080
17305THY    HA328702   6.560   6.898   5.942 -0.1765  0.9708  1.6099
17305THY    CA428703   6.419   6.991   5.807 -0.5081 -0.2736 -0.4273
17305THY    HA428704   6.458   6.953   5.713  1.5080  0.4275 -0.2132
17305THY    CA528705   6.321   7.091   5.794 -0.0782  0.1397 -0.4530
17305THY    CM128706   6.265   7.124   5.653 -0.7911  0.6787  0.2929
17305THY    HM128707   6.208   7.039   5.616  1.4574  0.4587 -1.2213
17305THY    HM228708   6.345   7.149   5.581 -2.1778 -1.6899 -1.7268
17305THY    HM328709   6.195   7.208   5.662 -1.3457  3.6490 -0.3792
17305THY    CA628710   6.271   7.153   5.906 -0.2274  0.0891  0.4354
17305THY    HA628711   6.188   7.223   5.893 -1.1499 -2.9683 -1.0473
17306THY      O28712   7.240   6.826   6.825  0.2680 -0.1224 -0.1202
17306THY     HO28713   7.247   6.740   6.780 -0.0063 -0.4638  0.0342
17306THY    CA128714   7.285   6.829   6.953  0.9570  0.4677 -0.1295
17306THY    CA228715   7.343   6.948   7.012  0.2177  0.2776  1.1869
17306THY    CP128716   7.374   7.062   6.914  0.8524  0.0648  0.6149
17306THY    HP128717   7.422   7.011   6.830  4.3508  1.5225  1.1609
17306THY    CP228718   7.491   7.158   6.958  0.2854  0.1661 -0.7760
17306THY    HP228719   7.563   7.104   7.021 -0.9705  2.1354 -0.2788
17306THY    HP328720   7.444   7.241   7.012  0.8175  0.6630 -0.7933
17306THY    HP428721   7.539   7.201   6.870  2.3276  1.3271 -0.5467
17306THY    CP328722   7.254   7.146   6.872  0.7305  0.3252  0.3601
17306THY    HP528723   7.282   7.230   6.806  1.4599  1.9191  1.4216
17306THY    HP628724   7.193   7.187   6.953  2.7306  2.1105 -0.0341
17306THY    HP728725   7.185   7.071   6.832  1.4622 -1.1425  0.4454
17306THY    CA328726   7.371   6.946   7.148 -0.0742  0.2879 -0.8074
17306THY    HA328727   7.416   7.034   7.194  0.1969  1.5216 -1.5752
17306THY    CA428728   7.338   6.840   7.227  0.4865 -0.0253  0.4297
17306THY    HA428729   7.357   6.846   7.334 -0.7578  0.2558 -0.1870
17306THY    CA528730   7.285   6.722   7.170 -0.2304  0.0686 -0.2515
17306THY    CM128731   7.260   6.605   7.254  0.4679  0.5619 -0.7336
17306THY    HM128732   7.289   6.509   7.210  0.5324  0.0697 -0.4915
17306THY    HM228733   7.157   6.592   7.288 -0.2421 -2.0743 -2.8880
17306THY    HM328734   7.329   6.615   7.339  2.0936 -0.7529 -0.0623
17306THY    CA628735   7.258   6.717   7.031 -0.1832  0.2602 -0.1417
17306THY    HA628736   7.210   6.625   6.997  1.8053 -0.9061 -0.8114
17307THY      O28737   5.143   4.995   2.943 -1.0724  0.0550  0.2105
17307THY     HO28738   5.199   4.933   2.992 -0.6513  0.0270  0.5524
17307THY    CA128739   5.120   4.939   2.819  0.3941  0.6071 -0.1096
17307THY    CA228740   5.026   4.991   2.730  0.9793  0.0210  0.1198
17307THY    CP128741   4.940   5.120   2.755 -0.3348 -0.4245  0.3856
17307THY    HP128742   4.967   5.178   2.845  1.4477 -1.8204  1.8847
17307THY    CP228743   4.791   5.074   2.789 -0.3472  0.4740 -0.4618
17307THY    HP228744   4.736   5.160   2.829  0.0276 -1.4421  0.7289
17307THY    HP328745   4.789   5.000   2.870  0.3756 -0.4133 -1.4963
17307THY    HP428746   4.746   5.034   2.696  2.4604 -1.0089 -0.4049
17307THY    CP328747   4.957   5.212   2.633 -0.0253 -0.0248 -0.1253
17307THY    HP528748   4.879   5.290   2.637  0.7704 -2.3982  0.9050
17307THY    HP628749   4.931   5.158   2.541  0.3884 -0.5805  0.6026
17307THY    HP728750   5.058   5.255   2.632  0.3404  0.4369 -0.9746
17307THY    CA328751   4.995   4.912   2.615  0.0175  0.6301 -0.1069
17307THY    HA328752   4.926   4.946   2.538  0.4692  0.9694  1.6585
17307THY    CA428753   5.055   4.784   2.598 -1.2230 -0.7527  0.3294
17307THY    HA428754   5.023   4.731   2.509 -1.0048 -1.6050  1.5908
17307THY    CA528755   5.156   4.744   2.688  0.1371 -0.4631  0.1160
17307THY    CM128756   5.229   4.617   2.666  0.0723  0.4116 -0.0314
17307THY    HM128757   5.184   4.536   2.725 -1.4321  0.2716  0.6699
17307THY    HM228758   5.333   4.624   2.698  0.5179 -1.3190  2.3054
17307THY    HM328759   5.222   4.591   2.560 -0.8976  0.9707 -2.2839
17307THY    CA628760   5.178   4.818   2.803  0.1384 -0.4692 -0.2158
17307THY    HA628761   5.248   4.784   2.879 -0.8506  0.7725  0.4322
17308THY      O28762   2.680   4.303   5.175 -0.4106  0.5425  0.2433
17308THY     HO28763   2.723   4.342   5.097 -2.0897 -0.0238  1.0554
17308THY    CA128764   2.771   4.303   5.279  0.0173 -0.1015  0.6316
17308THY    CA228765   2.735   4.356   5.406 -0.4483  0.2894  0.6369
17308THY    CP128766   2.592   4.407   5.436  0.1064  1.0766  0.7246
17308THY    HP128767   2.539   4.395   5.341  0.7057  0.4741  2.5261
17308THY    CP228768   2.595   4.562   5.449  0.5752  0.1205 -0.0245
17308THY    HP228769   2.669   4.588   5.525 -0.3438  0.7330  0.8572
17308THY    HP328770   2.504   4.596   5.499  0.3982  0.0271 -0.3552
17308THY    HP428771   2.615   4.601   5.348  2.7237  0.7120  0.5560
17308THY    CP328772   2.526   4.327   5.552  0.8033 -0.6743 -0.7497
17308THY    HP528773   2.547   4.220   5.550  1.3901  4.4589 -1.0027
17308THY    HP628774   2.417   4.336   5.555  0.6786 -1.4021 -1.8149
17308THY    HP728775   2.570   4.356   5.648 -2.6500  1.6183 -2.3720
17308THY    CA328776   2.836   4.362   5.514  0.3890  0.5877  0.4071
17308THY    HA328777   2.807   4.416   5.604 -0.5377 -0.3357  1.5158
17308THY    CA428778   2.967   4.312   5.489  0.4740 -0.3475  0.1638
17308THY    HA428779   3.043   4.342   5.560  0.8664 -1.3331  1.5779
17308THY    CA528780   2.992   4.249   5.366  0.5158 -1.0444  0.2920
17308THY    CM128781   3.127   4.195   5.337 -0.0889 -0.5051  0.5219
17308THY    HM128782   3.146   4.144   5.432  1.0469 -1.7606 -1.5215
17308THY    HM228783   3.198   4.275   5.310  2.1531  1.3713 -0.7112
17308THY    HM328784   3.122   4.123   5.255  1.2909 -1.8039  1.8276
17308THY    CA628785   2.896   4.245   5.262 -0.2610 -0.6341  0.6943
17308THY    HA628786   2.932   4.208   5.167  1.2839 -0.2883  1.2353
17309THY      O28787   5.274   3.644   4.921  0.3577 -0.8336  0.3919
17309THY     HO28788   5.185   3.612   4.896  0.5464 -1.5779  0.4255
17309THY    CA128789   5.261   3.778   4.951 -0.8287  0.2490 -0.2885
17309THY    CA228790   5.371   3.850   5.012  0.7838 -0.9470 -1.1066
17309THY    CP128791   5.495   3.768   5.048 -0.5290  0.1360 -0.2446
17309THY    HP128792   5.477   3.661   5.058 -3.8436  0.3750  0.2421
17309THY    CP228793   5.556   3.810   5.179 -0.5192  0.1873 -0.2034
17309THY    HP228794   5.491   3.821   5.267 -0.5947  0.0802  0.2160
17309THY    HP328795   5.604   3.907   5.164 -0.3977 -1.6005 -0.4997
17309THY    HP428796   5.638   3.742   5.206 -0.2821 -2.0572 -0.9045
17309THY    CP328797   5.607   3.786   4.945  0.1691 -0.4892  0.6309
17309THY    HP528798   5.565   3.784   4.843  0.3373 -0.5523 -0.7248
17309THY    HP628799   5.675   3.702   4.966 -2.1488  1.8438 -0.8009
17309THY    HP728800   5.661   3.881   4.944 -1.2903  0.4978  1.4955
17309THY    CA328801   5.347   3.987   5.044  0.4590  0.2587 -0.3879
17309THY    HA328802   5.416   4.056   5.091 -0.8430 -1.4970  2.2919
17309THY    CA428803   5.229   4.052   5.009  0.8926  0.2136 -0.3286
17309THY    HA428804   5.209   4.156   5.032  0.7362  2.6424 -0.8421
17309THY    CA528805   5.129   3.981   4.951  1.0983  0.3828  0.0220
17309THY    CM128806   4.995   4.042   4.918  0.4379  0.2904  0.1716
17309THY    HM128807   4.958   4.017   4.818 -0.2622 -0.0804  2.4642
17309THY    HM228808   5.005   4.151   4.915 -0.2513  0.5516  0.2453
17309THY    HM328809   4.918   4.014   4.991  0.2250 -0.6755 -1.9801
17309THY    CA628810   5.137   3.845   4.928 -0.4231  0.4819  0.2641
17309THY    HA628811   5.054   3.792   4.883  1.0079 -2.5696  0.3887
17310THY      O28812   5.981   8.044   1.920 -0.5396 -0.4362  0.2784
17310THY     HO28813   5.929   8.125   1.907  1.1455  0.4924  1.5907
17310THY    CA128814   6.004   8.040   2.055 -0.5658  0.0579  0.5208
17310THY    CA228815   6.079   7.937   2.119  0.2065  0.4090  0.1640
17310THY    CP128816   6.130   7.823   2.032 -0.0216  0.0942 -0.2069
17310THY    HP128817   6.079   7.821   1.935  0.5684 -0.2134 -2.2943
17310THY    CP228818   6.077   7.685   2.080 -0.2138 -0.4513 -0.3077
17310THY    HP228819   5.970   7.673   2.100  0.0135  0.7770 -0.4996
17310THY    HP328820   6.127   7.664   2.176 -1.4228 -0.2925 -2.8938
17310THY    HP428821   6.102   7.599   2.016  0.9764  2.1415 -2.0287
17310THY    CP328822   6.283   7.818   1.995  1.0232  0.3654 -0.3113
17310THY    HP528823   6.317   7.743   1.922  1.1391  0.4957 -0.3861
17310THY    HP628824   6.345   7.802   2.084 -1.0150  1.8440 -0.2642
17310THY    HP728825   6.305   7.916   1.949  0.7446 -0.1911 -0.5035
17310THY    CA328826   6.098   7.948   2.256  0.2892 -0.2641  0.5731
17310THY    HA328827   6.147   7.865   2.305  0.2432 -0.2928  0.5287
17310THY    CA428828   6.032   8.042   2.333  0.2727  0.4618  0.1979
17310THY    HA428829   6.039   8.029   2.441 -0.9821  0.2551 -2.8530
17310THY    CA528830   5.956   8.144   2.269 -0.0494  0.4672 -0.8269
17310THY    CM128831   5.876   8.260   2.332 -0.4445  0.2405  0.4836
17310THY    HM128832   5.871   8.342   2.259 -3.0214 -1.3206 -0.9370
17310THY    HM228833   5.928   8.287   2.425  0.2098  0.6523 -1.9044
17310THY    HM328834   5.770   8.243   2.354 -0.8677 -1.2503  1.0700
17310THY    CA628835   5.943   8.134   2.128 -0.3159  0.6691 -0.2148
17310THY    HA628836   5.875   8.200   2.075  2.5708 -5.1382 -1.2200
17311THY      O28837   7.196   0.323   2.650 -0.3729  0.1111  0.1787
17311THY     HO28838   7.238   0.345   2.734 -1.9732  0.7842  0.7876
17311THY    CA128839   7.081   0.404   2.635 -0.0292  0.3189 -0.0030
17311THY    CA228840   6.980   0.389   2.536  0.0190 -0.9426 -0.0920
17311THY    CP128841   7.008   0.291   2.418 -0.5260 -0.7286 -0.1096
17311THY    HP128842   7.044   0.199   2.466  1.4953  1.0025  1.4823
17311THY    CP228843   7.129   0.329   2.334 -0.1278  0.9977 -0.5441
17311THY    HP228844   7.215   0.374   2.386  0.6320  1.0533 -1.9964
17311THY    HP328845   7.103   0.407   2.262 -0.0488  1.2471 -0.2847
17311THY    HP428846   7.174   0.240   2.290 -0.3859  0.8671 -0.6089
17311THY    CP328847   6.884   0.260   2.333 -0.0378  0.7365  0.0762
17311THY    HP528848   6.895   0.168   2.274 -2.3136  0.8200 -0.3003
17311THY    HP628849   6.858   0.346   2.270 -0.9004  0.7658 -0.1544
17311THY    HP728850   6.790   0.248   2.388 -3.5461 -4.1669  1.7877
17311THY    CA328851   6.871   0.483   2.541  0.3917  0.4678  0.2303
17311THY    HA328852   6.793   0.486   2.465 -0.0987  0.8928 -1.1716
17311THY    CA428853   6.865   0.573   2.647 -0.7400 -0.9031 -0.3984
17311THY    HA428854   6.780   0.640   2.658 -0.0918  0.8563  0.1859
17311THY    CA528855   6.967   0.581   2.739  0.7506 -1.3241  0.1001
17311THY    CM128856   6.959   0.677   2.852 -0.0581 -0.8063 -0.2150
17311THY    HM128857   6.880   0.640   2.918  1.3498  1.0491 -0.0711
17311THY    HM228858   6.927   0.776   2.817 -0.8934 -1.4234 -0.6830
17311THY    HM328859   7.049   0.670   2.914 -0.4454 -0.2339 -0.1808
17311THY    CA628860   7.072   0.503   2.732 -0.1877  0.4538  0.4567
17311THY    HA628861   7.150   0.524   2.805 -0.8727  0.9969  1.1519
17312THY      O28862   4.164   5.271   5.022  0.3222 -0.0516  0.3972
17312THY     HO28863   4.182   5.333   4.950  0.2079 -0.1189  0.3525
17312THY    CA128864   4.072   5.177   4.983  0.4034  0.0902 -0.3063
17312THY    CA228865   3.995   5.103   5.073 -0.7855  0.6692 -0.0524
17312THY    CP128866   4.013   5.124   5.220  0.3441 -0.0899 -0.0595
17312THY    HP128867   4.108   5.170   5.250  0.0527  1.4772 -0.4145
17312THY    CP228868   4.013   4.998   5.294 -0.3825 -0.3424  0.1885
17312THY    HP228869   3.918   4.945   5.299  1.3159 -1.4361 -3.2591
17312THY    HP328870   4.049   5.024   5.394  0.5972 -0.9756  1.3873
17312THY    HP428871   4.089   4.936   5.245 -0.1907 -1.3869  1.2053
17312THY    CP328872   3.909   5.218   5.263  0.0726  0.2709  0.0984
17312THY    HP528873   3.902   5.297   5.187  1.6628 -0.2782 -0.2477
17312THY    HP628874   3.939   5.264   5.358  0.2662 -0.8198  2.3698
17312THY    HP728875   3.810   5.172   5.270  0.1874 -0.6197 -0.3113
17312THY    CA328876   3.898   5.009   5.020  0.4821 -0.7219  0.4513
17312THY    HA328877   3.826   4.963   5.087  0.7040 -1.1734 -0.5615
17312THY    CA428878   3.887   4.988   4.880  0.2230  0.2951 -0.2265
17312THY    HA428879   3.810   4.921   4.844  0.7205  0.8881 -1.1447
17312THY    CA528880   3.971   5.058   4.797  0.4118 -0.2928 -0.2240
17312THY    CM128881   3.944   5.051   4.647  0.2461 -0.0460 -0.0425
17312THY    HM128882   3.852   5.109   4.627 -0.5544 -0.6239 -1.4714
17312THY    HM228883   3.929   4.949   4.610 -2.2801 -3.7338  1.4463
17312THY    HM328884   4.025   5.095   4.588 -1.3968 -0.8044  2.1445
17312THY    CA628885   4.051   5.157   4.846 -0.1542  0.6819  0.7774
17312THY    HA628886   4.104   5.221   4.776 -0.4257  1.0529  1.4185
17313THY      O28887   5.308   0.356   2.053  0.1865 -0.2896 -1.2288
17313THY     HO28888   5.261   0.415   1.993 -0.5588  1.1544 -0.3036
17313THY    CA128889   5.437   0.403   2.052 -0.1029 -0.1643 -0.5120
17313THY    CA228890   5.535   0.369   2.143 -0.1466  0.1480  0.2743
17313THY    CP128891   5.501   0.269   2.256 -0.0949 -0.8594 -0.2249
17313THY    HP128892   5.396   0.237   2.254  0.2531 -0.3672 -1.4718
17313THY    CP228893   5.529   0.326   2.396  0.8371 -0.5788 -0.4087
17313THY    HP228894   5.634   0.352   2.413  0.4150  0.2132  0.8123
17313THY    HP328895   5.493   0.257   2.473 -1.1711  0.4832  1.6815
17313THY    HP428896   5.475   0.419   2.413  0.3605  2.3715 -1.1373
17313THY    CP328897   5.563   0.135   2.231 -0.6851 -0.5111  0.1819
17313THY    HP528898   5.669   0.148   2.208 -0.4288  1.6185  2.6094
17313THY    HP628899   5.509   0.081   2.152 -2.3077  0.6865 -0.0121
17313THY    HP728900   5.565   0.081   2.326  0.5541  0.4361  1.8064
17313THY    CA328901   5.670   0.413   2.124  0.1467 -0.7270 -0.4410
17313THY    HA328902   5.739   0.374   2.198 -0.7333  0.9332  1.0213
17313THY    CA428903   5.697   0.500   2.011  0.4455 -0.0166  0.5011
17313THY    HA428904   5.798   0.517   1.976  0.8524  0.7221 -0.3245
17313THY    CA528905   5.598   0.536   1.927 -0.1510  0.4573 -0.2203
17313THY    CM128906   5.622   0.634   1.814  0.0214 -0.2968 -0.0903
17313THY    HM128907   5.729   0.638   1.790  0.0684  0.0814  0.9626
17313THY    HM228908   5.600   0.732   1.857 -0.3062 -0.1484 -0.2293
17313THY    HM328909   5.571   0.603   1.722  1.1541 -0.5927 -1.1791
17313THY    CA628910   5.471   0.493   1.949  0.3999 -0.5134 -0.1974
17313THY    HA628911   5.392   0.531   1.884 -0.1281 -0.1118 -0.5844
17314THY      O28912   3.359   1.005   3.075  0.1900 -0.1227  0.1210
17314THY     HO28913   3.291   1.072   3.092 -1.5105 -2.5503 -0.8413
17314THY    CA128914   3.286   0.910   3.014  0.1933 -0.8390  0.7420
17314THY    CA228915   3.350   0.802   2.951 -0.6592 -0.3881 -0.2963
17314THY    CP128916   3.500   0.798   2.949 -0.8799  0.5870 -0.3711
17314THY    HP128917   3.544   0.847   3.037  0.8397  0.1820 -1.1225
17314THY    CP228918   3.568   0.878   2.827  0.3135 -0.1902 -0.3244
17314THY    HP228919   3.674   0.899   2.845  0.2588 -0.2813  0.0253
17314THY    HP328920   3.523   0.977   2.815 -0.9923  0.6800 -0.7847
17314THY    HP428921   3.558   0.828   2.730 -1.9322 -1.4991  2.3970
17314THY    CP328922   3.551   0.654   2.944  0.3690  0.0804 -0.9937
17314THY    HP528923   3.658   0.634   2.932 -0.0005 -2.2460 -1.9799
17314THY    HP628924   3.507   0.614   2.852 -0.2669  0.2527 -0.6963
17314THY    HP728925   3.515   0.596   3.030  1.1159  0.5126 -0.8260
17314THY    CA328926   3.264   0.704   2.900 -0.0367 -0.1946  0.3905
17314THY    HA328927   3.305   0.613   2.856  1.7811  0.6889  0.7476
17314THY    CA428928   3.128   0.727   2.879  0.3377 -0.3518 -0.2548
17314THY    HA428929   3.062   0.656   2.831 -1.0141  1.1776 -0.0827
17314THY    CA528930   3.072   0.835   2.945 -0.8029 -0.1386 -0.1410
17314THY    CM128931   2.928   0.868   2.914 -0.0728 -0.1891 -0.1238
17314THY    HM128932   2.921   0.892   2.807  0.8549 -0.0973  0.5951
17314THY    HM228933   2.892   0.952   2.975  0.3983  0.9903 -0.7604
17314THY    HM328934   2.868   0.780   2.940 -0.0557  2.6917  0.6094
17314THY    CA628935   3.150   0.923   3.012 -0.5236  0.0305  0.1665
17314THY    HA628936   3.104   1.014   3.047  0.0362  0.3695  0.3203
17315THY      O28937   8.003   6.521   7.540 -0.6326 -0.1460 -0.3581
17315THY     HO28938   8.088   6.569   7.537 -0.5980  1.0401 -0.3247
17315THY    CA128939   7.917   6.595   7.464  0.1147  0.8622  0.0301
17315THY    CA228940   7.781   6.563   7.463  0.0016  0.3053 -0.2856
17315THY    CP128941   7.719   6.435   7.536 -0.3580 -0.4792  0.4199
17315THY    HP128942   7.790   6.381   7.599 -1.3182 -0.4894 -0.9136
17315THY    CP228943   7.668   6.333   7.429 -0.1973  0.2329  0.5045
17315THY    HP228944   7.746   6.302   7.359 -0.4205  0.7025 -1.2175
17315THY    HP328945   7.584   6.379   7.376  1.6826 -4.9538 -1.3493
17315THY    HP428946   7.619   6.246   7.473 -1.7466 -2.2150  0.0628
17315THY    CP328947   7.600   6.472   7.624 -0.1471 -0.0927 -0.0971
17315THY    HP528948   7.511   6.518   7.579 -1.5872  1.2578 -1.4283
17315THY    HP628949   7.635   6.545   7.698 -0.9829  0.3807 -0.1571
17315THY    HP728950   7.572   6.377   7.672  0.6083 -1.0474 -0.8206
17315THY    CA328951   7.697   6.640   7.375 -0.0749 -0.0139  0.4249
17315THY    HA328952   7.594   6.609   7.361  0.5910 -1.5655 -1.2236
17315THY    CA428953   7.753   6.758   7.317  0.0730 -0.0540  0.5962
17315THY    HA428954   7.680   6.815   7.262 -2.5597  1.7421 -0.8064
17315THY    CA528955   7.885   6.788   7.318  0.4042  0.0731 -0.7770
17315THY    CM128956   7.942   6.904   7.242 -0.0295  0.2653  0.0604
17315THY    HM128957   8.030   6.880   7.181 -0.3396  0.4706 -1.7136
17315THY    HM228958   7.959   6.989   7.309 -0.1676 -0.9365  1.0752
17315THY    HM328959   7.862   6.938   7.174  0.1908 -0.1379 -0.2148
17315THY    CA628960   7.969   6.710   7.395 -0.1826 -0.6091  0.9085
17315THY    HA628961   8.077   6.719   7.392 -0.0373 -0.0214 -0.3581
17316THY      O28962   5.643   6.220   3.545  0.1126 -0.2496 -0.2907
17316THY     HO28963   5.667   6.130   3.571  0.6563 -1.5392 -0.5425
17316THY    CA128964   5.742   6.265   3.464  0.4891 -0.5456 -0.2259
17316THY    CA228965   5.734   6.380   3.383  0.4049 -0.3762  0.5813
17316THY    CP128966   5.615   6.466   3.382  0.9062 -1.3337  0.1757
17316THY    HP128967   5.539   6.425   3.449 -0.4424 -2.2162  1.1346
17316THY    CP228968   5.548   6.472   3.247  0.1292 -0.0846 -0.2434
17316THY    HP228969   5.612   6.527   3.176  0.9514  1.2667  0.5878
17316THY    HP328970   5.460   6.537   3.248  0.8783  1.2923  0.7981
17316THY    HP428971   5.531   6.375   3.199  0.8057  1.5384 -1.1863
17316THY    CP328972   5.647   6.610   3.438  0.1815 -0.3330  0.3537
17316THY    HP528973   5.706   6.597   3.529 -0.0162 -0.2490  0.0546
17316THY    HP628974   5.566   6.680   3.461 -1.1083  0.8491 -1.4584
17316THY    HP728975   5.723   6.656   3.374  1.8399  2.3991  1.6916
17316THY    CA328976   5.838   6.405   3.285  0.7340 -0.4458 -0.4196
17316THY    HA328977   5.838   6.490   3.218  0.0195  0.3771  0.2458
17316THY    CA428978   5.946   6.312   3.276  0.2454  0.0928 -0.9359
17316THY    HA428979   6.018   6.320   3.196 -1.7279 -1.8101 -1.1908
17316THY    CA528980   5.962   6.211   3.371 -0.2591 -0.4819 -1.1250
17316THY    CM128981   6.085   6.133   3.390  0.2510 -0.1469 -0.1704
17316THY    HM128982   6.115   6.099   3.489  3.3989 -0.2892  1.8380
17316THY    HM228983   6.164   6.204   3.365 -0.6400 -0.1654  0.8306
17316THY    HM328984   6.077   6.053   3.315  0.3442 -0.0702 -0.2501
17316THY    CA628985   5.860   6.193   3.465 -0.3551  0.7677  0.5899
17316THY    HA628986   5.860   6.106   3.530 -0.1427 -0.2563 -0.1955
17317THY      O28987   0.555   1.234   3.394  0.2608 -0.2734  0.4666
17317THY     HO28988   0.602   1.315   3.366  3.0181  3.1937  0.3444
17317THY    CA128989   0.628   1.125   3.356  0.2890  1.0599  0.5246
17317THY    CA228990   0.573   1.002   3.314 -0.3164  0.1037 -0.1240
17317THY    CP128991   0.422   0.970   3.345 -0.4019 -0.3794  0.1346
17317THY    HP128992   0.382   1.034   3.424 -1.9422  0.1851 -1.4215
17317THY    CP228993   0.411   0.831   3.391 -0.0122 -0.1898  0.0878
17317THY    HP228994   0.427   0.755   3.314  0.5749  0.4518 -0.4478
17317THY    HP328995   0.311   0.827   3.435 -0.3401 -0.6851  1.8550
17317THY    HP428996   0.474   0.819   3.481 -0.4926  0.0468 -0.7022
17317THY    CP328997   0.338   0.987   3.222  0.6064  0.4634  0.1294
17317THY    HP528998   0.350   1.085   3.173 -0.7750 -0.2735 -0.0494
17317THY    HP628999   0.233   0.984   3.252  0.5778  0.4774  1.0312
17317THY    HP729000   0.358   0.910   3.147 -3.8562 -3.1522  2.0152
17317THY    CA329001   0.655   0.914   3.235  0.1600 -1.2580  0.0252
17317THY    HA329002   0.614   0.819   3.202  1.8759 -0.5788 -1.0009
17317THY    CA429003   0.789   0.944   3.224 -0.3013  0.5396 -0.1774
17317THY    HA429004   0.854   0.876   3.170 -0.2949  0.0262  0.2367
17317THY    CA529005   0.847   1.054   3.286 -0.4333 -0.1631  0.1389
17317THY    CM129006   0.998   1.067   3.271 -0.3196 -0.0919 -0.3011
17317THY    HM129007   1.021   1.172   3.250  2.9231  0.2213 -0.8381
17317THY    HM229008   1.033   1.002   3.190 -2.8637 -0.0418 -1.8652
17317THY    HM329009   1.057   1.039   3.360  1.7511 -1.5010 -0.6293
17317THY    CA629010   0.762   1.154   3.338  1.0078 -0.3615 -0.2220
17317THY    HA629011   0.805   1.248   3.371  1.5035  3.2571 -1.5471
17318THY      O29012   0.617   7.216   2.794 -0.0617  0.0485  0.4832
17318THY     HO29013   0.568   7.288   2.836  0.6776  1.0646  0.4086
17318THY    CA129014   0.715   7.190   2.882 -0.0506  0.0588  0.4550
17318THY    CA229015   0.817   7.086   2.855  0.3056 -0.6714 -0.2624
17318THY    CP129016   0.817   7.016   2.722 -1.3363  0.4442 -0.3804
17318THY    HP129017   0.756   7.070   2.649  0.2422 -0.1249  0.6715
17318THY    CP229018   0.748   6.877   2.744 -0.0238  0.2538 -0.6959
17318THY    HP229019   0.641   6.894   2.755 -0.0144  0.5865 -0.8402
17318THY    HP329020   0.789   6.826   2.832 -1.9739  1.2457 -0.6061
17318THY    HP429021   0.766   6.821   2.651 -1.2429 -0.9026  0.7382
17318THY    CP329022   0.956   7.002   2.672 -0.2530 -0.8425  0.2539
17318THY    HP529023   1.007   7.097   2.692  0.2639  3.8621 -0.7671
17318THY    HP629024   0.959   6.970   2.567 -0.2258 -0.9637  0.6488
17318THY    HP729025   1.013   6.933   2.736  0.2855 -1.0724  0.4755
17318THY    CA329026   0.916   7.062   2.956  0.2582 -0.2123  0.1175
17318THY    HA329027   1.003   6.998   2.947 -0.0809  0.3497 -0.4310
17318THY    CA429028   0.917   7.141   3.071  0.7532  0.7227 -0.0820
17318THY    HA429029   0.992   7.120   3.148 -1.8733  3.3349 -0.5188
17318THY    CA529030   0.820   7.236   3.096 -0.5107 -0.2946 -0.1274
17318THY    CM129031   0.813   7.285   3.237  0.3654 -0.1448 -0.5616
17318THY    HM129032   0.914   7.273   3.279 -0.0621  0.8647 -0.7266
17318THY    HM229033   0.740   7.232   3.299 -0.8473 -1.2202 -0.2066
17318THY    HM329034   0.786   7.391   3.239  1.7406 -0.7834 -0.1729
17318THY    CA629035   0.714   7.251   3.004  0.3710  0.4650 -0.9483
17318THY    HA629036   0.631   7.315   3.034 -0.5742  0.9202 -2.3499
17319THY      O29037   8.127   1.476   3.917 -0.1397  0.5036 -0.1306
17319THY     HO29038   8.106   1.525   3.835  1.4792  1.5146  2.4767
17319THY    CA129039   8.047   1.531   4.009  0.3821 -0.5489 -0.4621
17319THY    CA229040   8.047   1.480   4.141 -0.2810  0.2520 -0.2641
17319THY    CP129041   8.148   1.371   4.182 -0.7578  0.2182  0.4788
17319THY    HP129042   8.227   1.353   4.109 -1.3411 -0.2073 -0.3962
17319THY    CP229043   8.068   1.244   4.201 -0.4426 -0.3056 -0.0681
17319THY    HP229044   8.035   1.216   4.101 -0.9549 -0.5741  1.4103
17319THY    HP329045   7.986   1.258   4.273 -0.1265  0.4566 -1.7927
17319THY    HP429046   8.136   1.163   4.232  2.2895 -0.8209  1.9119
17319THY    CP329047   8.223   1.416   4.305  0.1337 -0.0309  0.0998
17319THY    HP529048   8.297   1.339   4.333  0.3869  1.3117  0.8071
17319THY    HP629049   8.158   1.426   4.392 -1.8756 -1.6624  2.5372
17319THY    HP729050   8.262   1.516   4.285 -1.6067 -0.7793  0.6645
17319THY    CA329051   7.958   1.530   4.232 -0.1290 -0.5326 -0.0908
17319THY    HA329052   7.958   1.493   4.334 -1.3206 -0.7066 -0.6128
17319THY    CA429053   7.870   1.640   4.193 -0.5973 -1.0376  0.4313
17319THY    HA429054   7.812   1.678   4.277  0.6826  1.1492 -2.0311
17319THY    CA529055   7.863   1.686   4.058 -0.2870  0.3287 -0.2960
17319THY    CM129056   7.784   1.814   4.029 -0.2765 -0.2298  0.1637
17319THY    HM129057   7.713   1.838   4.109 -0.9906 -1.1356  1.2064
17319THY    HM229058   7.706   1.798   3.953 -0.6257 -0.1370  1.3259
17319THY    HM329059   7.839   1.901   3.990 -1.1058 -0.8510  0.4284
17319THY    CA629060   7.956   1.636   3.968 -0.4120  0.1574  0.1189
17319THY    HA629061   7.952   1.681   3.869  0.3534  0.6167  1.2574
17320THY      O29062   6.523   2.322   5.055  0.3161 -0.9137  0.3511
17320THY     HO29063   6.489   2.312   4.965  0.7848 -1.2456  1.6037
17320THY    CA129064   6.481   2.216   5.129  0.1947  0.0735 -0.6070
17320THY    CA229065   6.504   2.197   5.267  0.1645 -0.4212 -0.3867
17320THY    CP129066   6.562   2.312   5.347 -1.0107  0.3483  0.7318
17320THY    HP129067   6.584   2.399   5.285  0.2386  1.5713  1.3372
17320THY    CP229068   6.700   2.287   5.415  0.0628  0.0882 -0.2421
17320THY    HP229069   6.777   2.267   5.339  0.1555 -0.4106  1.7538
17320THY    HP329070   6.699   2.199   5.480 -1.2799 -0.3482 -0.5698
17320THY    HP429071   6.747   2.362   5.480  0.6962 -1.1445  0.4521
17320THY    CP329072   6.453   2.354   5.445  0.4327  0.4180  0.2986
17320THY    HP529073   6.453   2.462   5.464 -0.8441 -0.2940  0.4416
17320THY    HP629074   6.472   2.299   5.538  0.7572  1.1204  1.5553
17320THY    HP729075   6.352   2.325   5.416  0.8274 -0.6334 -0.0934
17320THY    CA329076   6.469   2.075   5.332 -0.1086  0.4585 -0.7424
17320THY    HA329077   6.483   2.073   5.439 -2.0571  0.7640  0.0932
17320THY    CA429078   6.418   1.972   5.255  0.5045  0.5504  0.5093
17320THY    HA429079   6.395   1.877   5.302  0.4529  1.7442  1.0798
17320THY    CA529080   6.403   1.989   5.118 -1.2642 -0.1473 -0.3214
17320THY    CM129081   6.362   1.867   5.041 -0.5567  0.0690 -0.2811
17320THY    HM129082   6.425   1.785   5.077 -2.4404  2.2276 -0.8948
17320THY    HM229083   6.378   1.886   4.934  0.9726  0.7346  2.9507
17320THY    HM329084   6.259   1.838   5.068 -0.8186  0.0664  0.6007
17320THY    CA629085   6.435   2.107   5.056  0.0405  0.3301  0.0677
17320THY    HA629086   6.440   2.123   4.948 -0.1579  0.4932  1.3558
17321THY      O29087   6.420   6.638   2.017  0.0055 -0.7817 -0.2908
17321THY     HO29088   6.460   6.609   2.101  1.0074 -0.9807  0.4659
17321THY    CA129089   6.323   6.722   2.059 -0.3706  0.2811  0.2538
17321THY    CA229090   6.200   6.742   1.983 -0.0437  0.7454 -0.2842
17321THY    CP129091   6.174   6.648   1.865  0.6001  0.4873 -0.3272
17321THY    HP129092   6.262   6.615   1.809  0.2673 -0.5295  0.4634
17321THY    CP229093   6.074   6.704   1.758 -0.3444  0.1342 -0.0127
17321THY    HP229094   6.114   6.793   1.708  0.8363  1.7535  0.4049
17321THY    HP329095   5.970   6.709   1.791 -0.6306  0.1534 -3.6676
17321THY    HP429096   6.068   6.630   1.677 -2.4823 -0.0257  0.2820
17321THY    CP329097   6.108   6.521   1.922 -0.3201 -0.9847 -0.3682
17321THY    HP529098   6.094   6.447   1.843 -3.6034  0.2527 -1.2649
17321THY    HP629099   6.007   6.532   1.963  0.1315  0.6152 -1.7135
17321THY    HP729100   6.172   6.484   2.004  0.3703 -1.7672 -0.9483
17321THY    CA329101   6.107   6.834   2.023 -0.3641 -0.7333 -0.6473
17321THY    HA329102   6.015   6.851   1.967 -0.5179 -0.0974  0.7787
17321THY    CA429103   6.136   6.920   2.133 -0.4347  0.1046 -0.5145
17321THY    HA429104   6.079   7.007   2.163  1.9106  0.2121  1.0886
17321THY    CA529105   6.249   6.894   2.205  0.3893  0.5075  0.1444
17321THY    CM129106   6.275   6.974   2.331 -0.1450  0.3798 -0.3013
17321THY    HM129107   6.262   6.910   2.418  1.7095  0.6022 -0.4288
17321THY    HM229108   6.200   7.054   2.346 -0.8389  2.5170 -1.2808
17321THY    HM329109   6.374   7.020   2.330 -0.4082 -2.3646  0.3934
17321THY    CA629110   6.351   6.803   2.163  0.0703  0.4625  0.4078
17321THY    HA629111   6.444   6.798   2.220  1.3830 -1.5454  0.8102
17322THY      O29112   8.382   4.153   5.752 -0.2819  0.5088  0.5257
17322THY     HO29113   8.452   4.216   5.778  1.2744  1.9614 -1.6619
17322THY    CA129114   8.322   4.130   5.874 -0.3588  1.0928 -0.1213
17322THY    CA229115   8.203   4.051   5.871  0.6506 -0.4703 -0.0999
17322THY    CP129116   8.144   3.991   5.745 -0.0198 -0.4993 -0.0666
17322THY    HP129117   8.211   3.991   5.658  0.3893 -0.2861 -2.7658
17322THY    CP229118   8.015   4.065   5.701  0.5869 -0.0987  0.3514
17322THY    HP229119   8.025   4.170   5.669  0.1337  0.7785  0.6726
17322THY    HP329120   7.933   4.069   5.773  0.3265 -0.3799  0.1776
17322THY    HP429121   7.959   4.017   5.620  1.3701  0.1356 -0.9898
17322THY    CP329122   8.106   3.841   5.769  0.1372  0.2575 -0.8695
17322THY    HP529123   8.026   3.829   5.843 -1.8478 -1.9130 -1.7412
17322THY    HP629124   8.187   3.778   5.808  0.6199 -1.3725 -1.3086
17322THY    HP729125   8.069   3.795   5.677 -0.9022 -0.1933  0.8018
17322THY    CA329126   8.131   4.030   5.992 -0.2732 -0.1481 -0.7638
17322THY    HA329127   8.027   3.999   5.986  0.0959 -1.9415 -1.8406
17322THY    CA429128   8.198   4.067   6.111 -0.1385 -0.4621  0.0379
17322THY    HA429129   8.152   4.060   6.209  0.8915  0.3906  3.2201
17322THY    CA529130   8.319   4.139   6.112 -0.0083  0.6145 -0.3742
17322THY    CM129131   8.369   4.211   6.238 -0.2095 -0.0278 -0.0879
17322THY    HM129132   8.473   4.190   6.266  0.0130 -0.6993  0.0950
17322THY    HM229133   8.319   4.196   6.335  1.2269  0.7138 -0.3087
17322THY    HM329134   8.372   4.318   6.213 -2.3791  0.2836  0.1000
17322THY    CA629135   8.375   4.172   5.990 -0.3525  0.3438  0.0436
17322THY    HA629136   8.464   4.233   5.989  0.7415  2.6370 -1.3629
17323THY      O29137   8.660   8.664   3.059  0.0178 -0.0561  0.9286
17323THY     HO29138   8.595   8.663   3.131  0.3257  0.2425  1.7779
17323THY    CA129139   8.703   8.537   3.039  0.1857  0.3153 -0.6694
17323THY    CA229140   8.770   8.505   2.928  0.6893 -0.0867  0.1307
17323THY    CP129141   8.807   8.603   2.821 -0.3975 -0.0962  0.0919
17323THY    HP129142   8.812   8.702   2.869 -1.1031  0.3220 -0.0641
17323THY    CP229143   8.685   8.625   2.733 -0.5859 -0.0810 -0.1462
17323THY    HP229144   8.611   8.670   2.800  0.2363  0.5190  0.3515
17323THY    HP329145   8.644   8.529   2.702 -0.1434  1.3019 -0.8152
17323THY    HP429146   8.695   8.689   2.644 -0.4989  0.2101  0.2507
17323THY    CP329147   8.933   8.581   2.733 -0.5697  0.1510 -0.1901
17323THY    HP529148   8.950   8.669   2.670 -1.5550  0.7982  0.4808
17323THY    HP629149   8.912   8.490   2.674 -0.9041  0.1354 -0.1015
17323THY    HP729150   9.019   8.553   2.795 -0.7012  0.9589  1.1191
17323THY    CA329151   8.802   8.368   2.903  0.4510  0.4111 -0.6425
17323THY    HA329152   8.853   8.333   2.814 -1.0879 -1.2145  1.0766
17323THY    CA429153   8.775   8.273   3.001  0.0576  0.1221 -0.6015
17323THY    HA429154   8.820   8.176   2.983 -1.4024  0.5949 -1.4030
17323THY    CA529155   8.706   8.308   3.112  0.7070  0.2335 -0.1478
17323THY    CM129156   8.677   8.213   3.218  0.0235  0.7204 -0.2542
17323THY    HM129157   8.759   8.141   3.222 -0.7227  0.9558 -1.1100
17323THY    HM229158   8.585   8.156   3.200 -1.5318  0.6898  2.1241
17323THY    HM329159   8.658   8.266   3.313 -0.0540 -0.0002  1.0381
17323THY    CA629160   8.668   8.442   3.131  0.6085 -0.1487  0.6071
17323THY    HA629161   8.614   8.465   3.222 -2.0078 -1.2304 -0.7682
17324THY      O29162   4.837   8.045   4.097  0.7392 -0.2283  0.2894
17324THY     HO29163   4.860   8.137   4.074  1.6511  1.8282  0.6167
17324THY    CA129164   4.909   7.946   4.028 -0.0401 -0.8043 -0.3579
17324THY    CA229165   4.859   7.816   4.018  0.6919 -0.3566 -0.2013
17324THY    CP129166   4.717   7.782   4.063 -0.5563 -0.0970 -0.7705
17324THY    HP129167   4.662   7.871   4.031  0.7688  2.7551  1.2327
17324THY    CP229168   4.706   7.786   4.222 -0.4460  0.0995  0.1650
17324THY    HP229169   4.769   7.711   4.272 -0.4507  0.8251  0.6385
17324THY    HP329170   4.602   7.774   4.251 -0.1532  1.2203  0.2646
17324THY    HP429171   4.734   7.881   4.269  0.1386  0.0125  0.0430
17324THY    CP329172   4.664   7.655   4.014 -0.0558  0.2402  0.7708
17324THY    HP529173   4.560   7.653   4.049 -0.0968  0.2269  2.0941
17324THY    HP629174   4.721   7.572   4.058 -0.1615  0.5169  0.8442
17324THY    HP729175   4.648   7.654   3.906 -2.6255  0.5322 -0.6246
17324THY    CA329176   4.939   7.716   3.958 -0.2641  0.0285  1.0550
17324THY    HA329177   4.901   7.615   3.957  0.6618 -1.8260  0.6696
17324THY    CA429178   5.068   7.753   3.907  0.2647 -0.2249  0.6638
17324THY    HA429179   5.130   7.683   3.852 -0.0036 -0.1589  0.3702
17324THY    CA529180   5.118   7.881   3.931 -0.3608 -0.0923 -1.3227
17324THY    CM129181   5.260   7.921   3.885 -0.1041 -0.1675 -0.4366
17324THY    HM129182   5.270   8.026   3.857  1.7925  0.0555 -0.5371
17324THY    HM229183   5.276   7.867   3.791 -3.5446 -0.4840 -1.1422
17324THY    HM329184   5.335   7.896   3.961  2.5040 -1.6205  2.3156
17324THY    CA629185   5.042   7.981   3.991  0.1429 -0.4182  0.4759
17324THY    HA629186   5.082   8.081   4.005  1.3070  0.9649 -0.1513
17325THY      O29187   7.112   1.915   5.648  0.3073 -0.2377  0.3210
17325THY     HO29188   7.191   1.859   5.646  1.2519  0.3688  1.5834
17325THY    CA129189   7.053   1.922   5.769  0.3314 -0.0322 -0.6127
17325THY    CA229190   7.019   2.043   5.831  0.2896  0.2267 -0.7288
17325THY    CP129191   7.027   2.172   5.762  0.1485  0.2993  0.1667
17325THY    HP129192   7.053   2.154   5.657  2.0064  0.7032  0.3503
17325THY    CP229193   7.130   2.274   5.829  1.0735  0.2825  0.7090
17325THY    HP229194   7.128   2.266   5.938  3.3266  0.3388  0.2011
17325THY    HP329195   7.115   2.376   5.791 -0.1892 -0.3931  0.2917
17325THY    HP429196   7.231   2.243   5.799  0.7470 -1.8015  1.4960
17325THY    CP329197   6.890   2.243   5.762  0.3688 -0.0159  0.0221
17325THY    HP529198   6.851   2.272   5.860  0.1247 -0.3805  0.9702
17325THY    HP629199   6.813   2.190   5.705  1.1667 -1.3526  0.2428
17325THY    HP729200   6.896   2.335   5.701 -3.1428 -0.9551 -0.2360
17325THY    CA329201   6.978   2.039   5.965  0.3421  0.0303 -0.2411
17325THY    HA329202   6.954   2.129   6.021 -1.8707  0.8733 -1.2654
17325THY    CA429203   6.947   1.921   6.037 -0.4868  0.3682  0.0999
17325THY    HA429204   6.922   1.914   6.142  2.0370  1.0011 -0.2337
17325THY    CA529205   6.967   1.801   5.967 -0.1563 -0.1055  0.0996
17325THY    CM129206   6.955   1.673   6.034  0.1947 -0.3595 -0.6762
17325THY    HM129207   6.983   1.691   6.138 -1.5140 -0.2669  1.9793
17325THY    HM229208   7.014   1.592   5.990 -1.6671  1.3997 -3.1529
17325THY    HM329209   6.850   1.641   6.032  0.1304  0.8678 -0.5950
17325THY    CA629210   7.017   1.803   5.833 -0.6255  0.4455  0.2429
17325THY    HA629211   7.028   1.713   5.773 -1.8396 -2.2805  1.7743
17326THY      O29212   6.062   7.749   3.373 -0.0041  0.1035 -0.2352
17326THY     HO29213   6.036   7.758   3.467  0.7081  0.4041 -1.1704
17326THY    CA129214   6.146   7.852   3.341  0.5279  0.0934  0.0776
17326THY    CA229215   6.202   7.853   3.209 -0.4094 -0.1436  0.0294
17326THY    CP129216   6.160   7.751   3.108  0.3266  0.0994  0.1262
17326THY    HP129217   6.102   7.667   3.147  1.0361  1.3175  0.1809
17326THY    CP229218   6.284   7.686   3.041  0.0620 -0.0000  0.7252
17326THY    HP229219   6.338   7.769   2.993 -0.5062  1.2462  1.8420
17326THY    HP329220   6.261   7.617   2.958  0.8199 -0.2172  0.7244
17326THY    HP429221   6.356   7.642   3.110  0.3759 -1.0445 -0.4814
17326THY    CP329222   6.078   7.815   2.994 -0.6913  0.4206 -0.3031
17326THY    HP529223   6.045   7.736   2.926 -0.8631 -0.1801  0.2741
17326THY    HP629224   6.143   7.886   2.942 -1.0218 -0.7805 -0.8678
17326THY    HP729225   5.986   7.856   3.038 -0.4467 -0.0645  0.8037
17326THY    CA329226   6.284   7.961   3.179 -0.2639 -0.0001  0.2364
17326THY    HA329227   6.337   7.963   3.084 -0.5392 -0.1480  0.8121
17326THY    CA429228   6.303   8.060   3.274 -0.1529  0.0144 -0.0507
17326THY    HA429229   6.363   8.148   3.250  1.7397  1.5506 -0.8509
17326THY    CA529230   6.235   8.061   3.397  0.2652 -0.0658 -0.3988
17326THY    CM129231   6.256   8.166   3.508 -0.0364  0.0489 -0.2408
17326THY    HM129232   6.305   8.249   3.458 -0.2222 -1.3957 -0.9664
17326THY    HM229233   6.315   8.124   3.590  1.5510 -1.3200 -0.7985
17326THY    HM329234   6.165   8.211   3.550 -0.8362 -0.5790 -1.2125
17326THY    CA629235   6.159   7.953   3.433  0.5708  0.0299  0.0877
17326THY    HA629236   6.100   7.959   3.524  0.1219 -0.3498  2.2666
17327THY      O29237   7.406   6.513   4.473 -0.5361 -0.0020 -0.6357
17327THY     HO29238   7.448   6.492   4.388  0.9606  0.6115 -0.2356
17327THY    CA129239   7.280   6.470   4.466  0.7727 -0.2336 -0.4916
17327THY    CA229240   7.205   6.425   4.581  0.7195 -0.8239 -0.0841
17327THY    CP129241   7.269   6.417   4.716  0.1084 -0.5525  0.0383
17327THY    HP129242   7.373   6.452   4.711  0.9197 -0.9759 -2.2598
17327THY    CP229243   7.279   6.270   4.757  0.0210 -0.3692  0.0545
17327THY    HP229244   7.316   6.209   4.675 -0.3517 -0.5875  0.1232
17327THY    HP329245   7.185   6.227   4.793  0.8221  2.0364  0.1426
17327THY    HP429246   7.345   6.268   4.845 -1.4112  0.7336 -1.4412
17327THY    CP329247   7.201   6.499   4.826  0.3647  0.6418 -0.2382
17327THY    HP529248   7.102   6.455   4.841  1.0233  2.3001 -1.2858
17327THY    HP629249   7.215   6.605   4.803  1.0919  1.6566 -0.0914
17327THY    HP729250   7.256   6.488   4.921  0.8776  0.7208  2.3962
17327THY    CA329251   7.066   6.399   4.556 -0.5118 -0.0506  0.2207
17327THY    HA329252   6.993   6.380   4.634  1.2110  1.3168 -1.0635
17327THY    CA429253   7.015   6.404   4.426  0.2181  0.0876 -0.0401
17327THY    HA429254   6.908   6.398   4.407  0.4461 -2.4302  2.1758
17327THY    CA529255   7.099   6.430   4.315 -0.1273 -0.7554 -0.0038
17327THY    CM129256   7.030   6.434   4.181 -0.1880  0.1595  0.2618
17327THY    HM129257   7.099   6.431   4.095 -0.6762 -0.2174 -1.9340
17327THY    HM229258   6.972   6.526   4.174  0.4143  3.3161  1.0151
17327THY    HM329259   6.962   6.352   4.156 -1.0008 -0.3921  1.0854
17327THY    CA629260   7.226   6.472   4.333 -0.9778  0.4425 -1.0702
17327THY    HA629261   7.288   6.501   4.249 -0.0353  2.0083  1.8844
17328THY      O29262   3.230   3.861   6.576 -0.3412 -0.3910  0.2456
17328THY     HO29263   3.188   3.782   6.613 -1.8152 -1.1912  0.6394
17328THY    CA129264   3.158   3.962   6.639  0.2954  1.3829 -0.2657
17328THY    CA229265   3.172   4.091   6.592  0.1142 -0.1996  0.3142
17328THY    CP129266   3.271   4.120   6.483 -0.5275 -0.0118 -0.0195
17328THY    HP129267   3.357   4.057   6.507 -1.4573 -1.3023 -1.8649
17328THY    CP229268   3.324   4.267   6.492 -0.1461  0.3127 -0.2986
17328THY    HP229269   3.348   4.302   6.593  0.3248 -0.4413  1.7087
17328THY    HP329270   3.253   4.339   6.449 -0.0523 -0.7396 -0.8139
17328THY    HP429271   3.416   4.284   6.435 -1.3229 -1.4795  0.4361
17328THY    CP329272   3.217   4.096   6.336  0.1836 -0.2225 -0.0082
17328THY    HP529273   3.271   4.144   6.254 -0.1724 -0.3058  0.2573
17328THY    HP629274   3.116   4.138   6.326 -0.0266  0.8374 -0.2371
17328THY    HP729275   3.210   3.990   6.311 -0.4109 -1.5003  0.3070
17328THY    CA329276   3.097   4.195   6.665 -0.1397  0.8702  0.4395
17328THY    HA329277   3.106   4.299   6.638  0.3254 -0.7678 -0.0083
17328THY    CA429278   2.996   4.151   6.755  0.1483 -0.0001 -0.2552
17328THY    HA429279   2.918   4.214   6.796 -0.8384  0.8405 -1.9805
17328THY    CA529280   2.985   4.012   6.787  0.9313 -0.6339 -0.2492
17328THY    CM129281   2.895   3.954   6.900 -0.3269 -0.2571  0.0322
17328THY    HM129282   2.924   3.990   6.999 -0.5783  0.5493 -1.8658
17328THY    HM229283   2.911   3.847   6.919  2.7576  2.8531  0.8572
17328THY    HM329284   2.792   3.973   6.869 -0.9544  1.5778 -0.1579
17328THY    CA629285   3.059   3.921   6.724  0.6618 -0.4820 -0.3126
17328THY    HA629286   3.039   3.818   6.755 -1.5573  1.9703  0.7200
17329THY      O29287   8.119   8.747   4.403  0.1548 -0.3875 -0.1144
17329THY     HO29288   8.198   8.726   4.457 -0.0828  0.4922  1.1265
17329THY    CA129289   8.039   8.829   4.468  0.2062 -0.3723 -0.2843
17329THY    CA229290   7.908   8.869   4.429  0.1798  0.5408 -0.1505
17329THY    CP129291   7.855   8.818   4.295 -0.4285  0.1915 -0.3421
17329THY    HP129292   7.930   8.773   4.229  0.3215  0.7824  0.0254
17329THY    CP229293   7.808   8.932   4.204  0.2254  0.5206 -0.4384
17329THY    HP229294   7.708   8.967   4.233 -0.0772 -0.2602 -0.6114
17329THY    HP329295   7.797   8.901   4.099 -0.2642  0.0113  1.3587
17329THY    HP429296   7.886   9.007   4.216  1.2563  1.3598 -1.6090
17329THY    CP329297   7.744   8.725   4.314 -0.0042  1.1918  0.3156
17329THY    HP529298   7.773   8.636   4.370 -1.9335  0.7009 -0.6570
17329THY    HP629299   7.704   8.686   4.220 -0.5740  1.6572 -0.2232
17329THY    HP729300   7.661   8.780   4.359 -1.4947  0.1208 -0.9884
17329THY    CA329301   7.829   8.957   4.508  0.9127 -0.1081  0.5089
17329THY    HA329302   7.725   8.972   4.481  1.0963 -0.3494  1.4275
17329THY    CA429303   7.890   9.021   4.616 -0.2709 -0.2580  0.1033
17329THY    HA429304   7.838   9.094   4.678 -0.2550  1.7913 -1.5465
17329THY    CA529305   8.022   8.985   4.654 -0.2378 -0.3784  0.2367
17329THY    CM129306   8.090   9.053   4.764 -0.0031 -0.5603  0.0208
17329THY    HM129307   8.078   9.162   4.762 -1.0483 -2.5205 -0.0846
17329THY    HM229308   8.199   9.052   4.748  0.0091 -0.4948  0.1731
17329THY    HM329309   8.053   9.012   4.858 -2.4408 -2.0644 -1.4659
17329THY    CA629310   8.089   8.890   4.576  0.0090 -0.2932  0.2099
17329THY    HA629311   8.186   8.860   4.616  0.1803  0.3202  1.4823
17330THY      O29312   8.019   4.373   4.945 -0.2293 -0.1562  0.1707
17330THY     HO29313   8.112   4.390   4.923 -0.2307 -0.5813 -0.3310
17330THY    CA129314   7.978   4.278   4.863 -0.1797  0.2399 -0.2354
17330THY    CA229315   7.860   4.207   4.888  0.2693 -0.5175  0.1612
17330THY    CP129316   7.775   4.237   5.007  0.0512  0.1751  0.0705
17330THY    HP129317   7.805   4.331   5.055  1.9389 -1.5072  0.4015
17330THY    CP229318   7.781   4.136   5.129 -0.2188  0.1535  0.3216
17330THY    HP229319   7.752   4.037   5.094 -2.1842  0.2322  0.8212
17330THY    HP329320   7.712   4.169   5.208  0.3217  0.4233  0.8208
17330THY    HP429321   7.874   4.132   5.187  0.1001 -0.4372 -1.9226
17330THY    CP329322   7.624   4.249   4.967  0.2297 -0.9907 -0.8325
17330THY    HP529323   7.560   4.286   5.048  2.9046  1.7584 -1.8565
17330THY    HP629324   7.587   4.148   4.946  0.7025 -0.8305 -1.0429
17330THY    HP729325   7.618   4.325   4.888  2.6479  0.2496  0.8179
17330THY    CA329326   7.826   4.101   4.804  0.9597 -0.4768  0.3952
17330THY    HA329327   7.740   4.038   4.829 -0.3946 -0.8221  2.0304
17330THY    CA429328   7.899   4.070   4.694 -0.7270  0.3071  0.2161
17330THY    HA429329   7.859   3.999   4.622 -0.2033  0.3606 -0.1428
17330THY    CA529330   8.021   4.139   4.667  0.2592 -0.3706 -0.0734
17330THY    CM129331   8.102   4.093   4.548  0.2891  0.6530  0.4896
17330THY    HM129332   8.192   4.033   4.565  0.0017  0.3107 -0.0463
17330THY    HM229333   8.128   4.182   4.490  0.8552  0.1781  0.0238
17330THY    HM329334   8.041   4.035   4.478 -0.2238  1.9158 -0.5482
17330THY    CA629335   8.058   4.247   4.753  0.6781  0.8861  0.1421
17330THY    HA629336   8.151   4.302   4.740 -0.3557 -1.1094  1.5370
17331THY      O29337   0.339   0.861   5.655  0.3378  0.1161 -0.0634
17331THY     HO29338   0.380   0.780   5.620 -1.7674 -0.1215 -1.1005
17331THY    CA129339   0.434   0.954   5.690  0.8177 -0.1256 -0.2699
17331THY    CA229340   0.406   1.098   5.679 -0.4122 -0.0399  1.0063
17331THY    CP129341   0.265   1.130   5.627  0.4477 -0.6694  0.0167
17331THY    HP129342   0.207   1.042   5.595  0.9677 -0.8815 -0.2512
17331THY    CP229343   0.262   1.216   5.506  0.0706  0.5803 -0.5077
17331THY    HP229344   0.293   1.317   5.534  0.4159  0.5652 -0.6055
17331THY    HP329345   0.160   1.224   5.467 -0.0331  0.2378 -2.7650
17331THY    HP429346   0.324   1.174   5.426 -0.8296 -0.3955 -0.0244
17331THY    CP329347   0.204   1.195   5.744  0.1644 -0.1090 -1.3948
17331THY    HP529348   0.204   1.119   5.823  0.5230  1.9461  0.6343
17331THY    HP629349   0.102   1.227   5.718  0.3173  0.8259 -0.0566
17331THY    HP729350   0.262   1.282   5.776  0.7740  0.8360 -2.1306
17331THY    CA329351   0.508   1.190   5.691  0.1830 -0.1256 -0.1259
17331THY    HA329352   0.502   1.298   5.678  1.3348  0.7390  0.0625
17331THY    CA429353   0.636   1.144   5.730  0.0363 -0.7508 -0.6724
17331THY    HA429354   0.715   1.218   5.739  0.2257  1.3199 -1.0745
17331THY    CA529355   0.662   1.002   5.742 -0.0126 -0.3325 -0.6684
17331THY    CM129356   0.800   0.970   5.782  0.4069  0.4210  1.0168
17331THY    HM129357   0.824   1.017   5.878 -0.4046  2.2618 -1.9993
17331THY    HM229358   0.872   0.985   5.701 -1.1699 -1.4998 -1.1212
17331THY    HM329359   0.803   0.861   5.793 -1.4386 -0.4075  0.8302
17331THY    CA629360   0.561   0.908   5.713 -0.0584  0.2739 -0.5894
17331THY    HA629361   0.580   0.802   5.712 -0.8839  0.4010 -0.7445
17332THY      O29362   3.228   7.583   2.456  0.4736 -0.1883 -0.2690
17332THY     HO29363   3.290   7.612   2.386 -0.5300 -1.0565 -0.1485
17332THY    CA129364   3.260   7.455   2.489  0.0103 -0.1571  0.6080
17332THY    CA229365   3.205   7.395   2.605 -0.8613  0.9987  0.3220
17332THY    CP129366   3.091   7.470   2.672 -0.2003  0.0679 -0.3507
17332THY    HP129367   3.043   7.538   2.600 -1.6974  0.1962 -1.2308
17332THY    CP229368   3.141   7.543   2.800 -0.0271  0.6275 -0.0409
17332THY    HP229369   3.163   7.476   2.884 -0.1381 -0.6487 -1.7185
17332THY    HP329370   3.062   7.617   2.817 -0.0632 -1.7663  0.5361
17332THY    HP429371   3.231   7.604   2.787 -0.1459 -0.9551 -0.1694
17332THY    CP329372   2.971   7.385   2.701 -0.1135 -0.3948  0.2144
17332THY    HP529373   2.977   7.313   2.783  2.1431  0.3676  1.1810
17332THY    HP629374   2.943   7.332   2.609  0.3156 -0.5017  0.1668
17332THY    HP729375   2.897   7.454   2.741  0.4111  2.5316 -0.7762
17332THY    CA329376   3.242   7.262   2.639 -0.3884  0.0863  0.3090
17332THY    HA329377   3.192   7.209   2.719 -0.1976  1.4249  2.0898
17332THY    CA429378   3.337   7.194   2.558  0.3685  0.1288 -0.4024
17332THY    HA429379   3.360   7.090   2.580  1.4655 -0.2369 -0.2456
17332THY    CA529380   3.393   7.255   2.446 -0.4892 -1.2451 -0.4501
17332THY    CM129381   3.475   7.170   2.355  0.4468 -0.3202 -0.5947
17332THY    HM129382   3.521   7.226   2.273 -0.1869  1.1235  2.1998
17332THY    HM229383   3.420   7.084   2.315  2.3838 -0.0900 -2.0032
17332THY    HM329384   3.563   7.132   2.408  0.4942  1.4698  1.8184
17332THY    CA629385   3.345   7.386   2.411  0.0350  0.0411  0.7490
17332THY    HA629386   3.383   7.433   2.321 -0.0097 -0.9608 -1.0318
17333THY      O29387   2.111   2.519   7.038  0.6527  0.0970 -0.3148
17333THY     HO29388   2.050   2.446   7.018  0.0767  2.2105 -0.4740
17333THY    CA129389   2.237   2.494   6.990  0.7315  0.4150 -0.1055
17333THY    CA229390   2.339   2.585   7.011 -0.2014 -0.5710 -0.0740
17333THY    CP129391   2.325   2.718   7.083  0.5031  1.1404 -0.4388
17333THY    HP129392   2.223   2.732   7.123 -0.2998 -1.3256  1.4033
17333THY    CP229393   2.353   2.841   6.996 -0.7523  0.1559 -0.0519
17333THY    HP229394   2.275   2.860   6.921 -1.0804  0.6428  0.5342
17333THY    HP329395   2.443   2.820   6.936  0.7071  2.2165  0.0820
17333THY    HP429396   2.374   2.929   7.056 -0.9476  0.0848  0.0433
17333THY    CP329397   2.422   2.727   7.202  0.0918  1.0440  0.7971
17333THY    HP529398   2.405   2.645   7.273  0.9548 -1.0416 -1.2811
17333THY    HP629399   2.413   2.821   7.257 -1.9000  0.4290  1.0023
17333THY    HP729400   2.529   2.718   7.181 -0.0085  1.1753 -1.0135
17333THY    CA329401   2.463   2.541   6.970  0.4753  0.4556  0.0608
17333THY    HA329402   2.545   2.610   6.983 -0.3018 -0.0512  1.1103
17333THY    CA429403   2.478   2.422   6.904  0.0997 -0.0624 -0.5761
17333THY    HA429404   2.576   2.391   6.871 -0.2415  0.5734 -2.4501
17333THY    CA529405   2.372   2.338   6.880 -0.7221 -0.0841  0.7250
17333THY    CM129406   2.396   2.213   6.813 -0.1122  0.3070 -0.6538
17333THY    HM129407   2.480   2.160   6.860  0.1864 -1.0259 -1.4186
17333THY    HM229408   2.419   2.230   6.707  0.4103  0.6113  0.5901
17333THY    HM329409   2.303   2.155   6.813 -1.1817 -1.7979  0.9474
17333THY    CA629410   2.248   2.373   6.925 -0.1473  0.1580  0.0655
17333THY    HA629411   2.168   2.300   6.921  1.0047 -1.1539 -1.1950
17334THY      O29412   6.378   6.268   2.195  0.0181 -0.0805 -0.3234
17334THY     HO29413   6.407   6.237   2.107  0.2113 -0.0936 -0.1141
17334THY    CA129414   6.458   6.372   2.214 -0.4871  0.2480 -0.6571
17334THY    CA229415   6.420   6.466   2.304  0.0081 -0.4818  0.0860
17334THY    CP129416   6.289   6.451   2.390 -0.5222 -0.2535  0.1541
17334THY    HP129417   6.230   6.366   2.353  1.5172 -1.4452 -0.8506
17334THY    CP229418   6.208   6.576   2.382  0.2858  0.7570  0.1013
17334THY    HP229419   6.265   6.670   2.392  0.1275 -2.0221  0.5753
17334THY    HP329420   6.136   6.573   2.464  0.5971  1.1366  1.7886
17334THY    HP429421   6.153   6.571   2.287 -1.6351  1.8627 -0.7950
17334THY    CP329422   6.321   6.418   2.542  0.1407 -0.2997  0.5715
17334THY    HP529423   6.231   6.405   2.604  1.0552  0.8865 -0.3564
17334THY    HP629424   6.372   6.510   2.573 -2.0691 -0.0685  1.7997
17334THY    HP729425   6.366   6.320   2.556 -2.5772  1.8737 -0.5044
17334THY    CA329426   6.508   6.572   2.333  0.1742 -0.4108  0.3024
17334THY    HA329427   6.481   6.643   2.410 -0.3288 -0.4006  0.1013
17334THY    CA429428   6.620   6.585   2.253  0.2545  0.1603 -0.4197
17334THY    HA429429   6.688   6.668   2.268  0.0472 -1.2502  0.0334
17334THY    CA529430   6.654   6.499   2.154 -0.4214  0.7897 -0.3326
17334THY    CM129431   6.776   6.518   2.076  0.0012 -0.2608  0.3677
17334THY    HM129432   6.803   6.431   2.016 -2.8644 -2.5562  0.8798
17334THY    HM229433   6.861   6.548   2.138 -0.9913  0.7535  1.1954
17334THY    HM329434   6.756   6.601   2.007  0.3786 -1.9539 -0.8900
17334THY    CA629435   6.575   6.385   2.135 -0.1750 -0.6385  0.1043
17334THY    HA629436   6.609   6.305   2.070 -3.0211 -0.9469 -0.9748
17335THY      O29437   0.588   4.716   3.823  0.0386 -0.2236  0.0991
17335THY     HO29438   0.590   4.756   3.734  0.8117 -0.1252  0.2867
17335THY    CA129439   0.461   4.705   3.864  0.2257 -1.0733  0.8517
17335THY    CA229440   0.426   4.724   4.005 -0.0075  0.0776  0.5379
17335THY    CP129441   0.524   4.774   4.107 -0.8305  0.5780 -0.2841
17335THY    HP129442   0.624   4.761   4.063 -1.7627 -1.6102 -0.5080
17335THY    CP229443   0.543   4.689   4.227 -0.4107 -0.5044  0.2287
17335THY    HP229444   0.459   4.711   4.294 -0.7880 -1.5062  2.0048
17335THY    HP329445   0.644   4.698   4.267 -0.5243 -0.5067  1.8454
17335THY    HP429446   0.533   4.583   4.200  1.0015 -1.0282  0.2178
17335THY    CP329447   0.492   4.923   4.149 -1.2171  0.0092 -0.1792
17335THY    HP529448   0.584   4.963   4.194 -2.4901  1.4504  1.2302
17335THY    HP629449   0.408   4.935   4.218 -0.7173  0.3782  1.4951
17335THY    HP729450   0.463   4.975   4.057  0.3033  0.2916  1.2577
17335THY    CA329451   0.296   4.691   4.041 -0.0354 -0.0985  0.5300
17335THY    HA329452   0.266   4.711   4.144 -0.1690  0.1666 -0.9484
17335THY    CA429453   0.201   4.649   3.948  0.0618 -0.1861 -0.0912
17335THY    HA429454   0.098   4.635   3.981  0.2620  0.1831 -0.7191
17335THY    CA529455   0.232   4.648   3.815 -0.0474  0.8504  0.3557
17335THY    CM129456   0.125   4.618   3.714  0.1683 -0.6970  0.0574
17335THY    HM129457   0.094   4.513   3.711 -1.0061 -0.0486  0.3632
17335THY    HM229458   0.169   4.660   3.623 -0.7014 -1.1207  0.0757
17335THY    HM329459   0.036   4.680   3.730 -0.0510  2.0385 -0.8050
17335THY    CA629460   0.366   4.661   3.772  0.1796 -0.4237 -0.5934
17335THY    HA629461   0.399   4.649   3.669 -0.1726 -0.6229  0.0535
17336THY      O29462   6.607   6.433   5.629  0.0721 -0.1176 -0.5320
17336THY     HO29463   6.635   6.455   5.538 -0.8338 -0.4211 -0.6176
17336THY    CA129464   6.513   6.328   5.626  0.2924 -0.2316 -0.3873
17336THY    CA229465   6.395   6.337   5.705  0.3840 -0.0718 -0.3048
17336THY    CP129466   6.391   6.444   5.813  0.8718 -0.3304  0.3196
17336THY    HP129467   6.497   6.471   5.824  1.0270 -0.1878 -0.3296
17336THY    CP229468   6.320   6.397   5.941  0.2276 -0.0837 -0.1854
17336THY    HP229469   6.343   6.456   6.030 -1.7530 -0.5859  1.4553
17336THY    HP329470   6.349   6.293   5.964  0.6980  1.2320  0.2176
17336THY    HP429471   6.211   6.392   5.934  0.3317 -0.9011 -2.2731
17336THY    CP329472   6.309   6.559   5.766  0.1611 -0.6375  0.1885
17336THY    HP529473   6.286   6.637   5.840 -0.7773 -1.0110  0.2806
17336THY    HP629474   6.208   6.529   5.735  0.0204  0.2240 -0.2700
17336THY    HP729475   6.353   6.613   5.682  2.0061  1.1762  1.6518
17336THY    CA329476   6.285   6.246   5.683  0.1824 -0.6815  0.0834
17336THY    HA329477   6.191   6.269   5.732  0.7241  0.4207 -0.0129
17336THY    CA429478   6.301   6.144   5.590  0.6953  0.6360 -0.3622
17336THY    HA429479   6.222   6.072   5.569  0.9804 -1.3298 -0.1367
17336THY    CA529480   6.415   6.141   5.513  0.6975  0.4692  0.3354
17336THY    CM129481   6.428   6.032   5.405  0.1141 -0.1913 -0.2218
17336THY    HM129482   6.332   6.029   5.353  1.7850 -3.5119  0.0237
17336THY    HM229483   6.461   5.937   5.448 -0.0148 -1.6673 -0.9636
17336THY    HM329484   6.503   6.059   5.331 -1.3308 -1.6702 -0.1071
17336THY    CA629485   6.521   6.232   5.525 -0.1459  0.1751 -0.1895
17336THY    HA629486   6.609   6.208   5.466  0.1178  1.1746 -1.8963
17337THY      O29487   0.915   1.633   4.764  0.2436  0.4066 -0.6693
17337THY     HO29488   0.945   1.708   4.709 -1.0850 -0.1188 -0.4930
17337THY    CA129489   0.782   1.660   4.767 -0.0652  0.3970 -0.2362
17337THY    CA229490   0.693   1.601   4.858  0.8532 -0.2134  0.2251
17337THY    CP129491   0.743   1.480   4.945  0.0336  0.7783 -0.9615
17337THY    HP129492   0.828   1.423   4.906  2.2334  0.4415  2.2100
17337THY    CP229493   0.630   1.384   4.967  0.2778  0.6651  0.4309
17337THY    HP229494   0.675   1.294   5.011  1.2313  0.8366  0.9759
17337THY    HP329495   0.572   1.357   4.878  1.4086 -0.0596  0.3510
17337THY    HP429496   0.557   1.438   5.028 -1.5525 -2.0842  1.2744
17337THY    CP329497   0.801   1.532   5.079  0.2843  0.1510 -0.1455
17337THY    HP529498   0.900   1.578   5.077  0.2895 -1.2988 -0.1692
17337THY    HP629499   0.807   1.446   5.147  0.9068 -0.3728 -0.5220
17337THY    HP729500   0.730   1.604   5.122 -0.3334 -0.8857 -0.1192
17337THY    CA329501   0.554   1.642   4.865 -0.4023  0.3650  0.0520
17337THY    HA329502   0.487   1.605   4.943 -1.2974 -0.2241  0.4044
17337THY    CA429503   0.513   1.737   4.768  0.2781  0.1074 -0.6108
17337THY    HA429504   0.409   1.770   4.762  1.0651 -1.5502  1.8549
17337THY    CA529505   0.604   1.803   4.683 -0.4511  0.5021  0.8801
17337THY    CM129506   0.559   1.920   4.590  0.0036  0.0236  0.3080
17337THY    HM129507   0.519   2.001   4.651 -0.6171 -0.1292  0.1280
17337THY    HM229508   0.474   1.890   4.526 -0.0326 -0.2580  1.0022
17337THY    HM329509   0.634   1.958   4.520 -0.8186  0.2081  2.3657
17337THY    CA629510   0.736   1.761   4.681  0.3028 -0.7498 -0.1256
17337THY    HA629511   0.801   1.803   4.606 -1.4945 -1.1365  2.1538
17338THY      O29512   7.750   6.492   2.218 -0.0888 -0.1296 -0.0578
17338THY     HO29513   7.771   6.471   2.125 -1.8132 -0.4978 -0.2329
17338THY    CA129514   7.673   6.603   2.217 -0.4602 -0.0339  0.1133
17338THY    CA229515   7.655   6.682   2.331 -0.2191  0.4904 -0.1193
17338THY    CP129516   7.733   6.652   2.459 -0.2135 -0.3788 -0.2873
17338THY    HP129517   7.786   6.557   2.443 -0.7444  2.6439 -1.1838
17338THY    CP229518   7.638   6.629   2.575 -0.1252  0.2662  0.1147
17338THY    HP229519   7.591   6.724   2.604  0.8656 -2.0288  1.3856
17338THY    HP329520   7.688   6.588   2.664  0.4270  0.1960  0.6143
17338THY    HP429521   7.554   6.564   2.547 -1.1841 -1.4187  2.1081
17338THY    CP329522   7.847   6.756   2.496  0.1073  0.3896 -0.6154
17338THY    HP529523   7.909   6.759   2.406 -0.3310  0.0925 -0.1763
17338THY    HP629524   7.909   6.737   2.584 -0.6292  1.5065  1.7742
17338THY    HP729525   7.792   6.851   2.505  2.0662 -0.2737  0.6399
17338THY    CA329526   7.561   6.790   2.324 -0.7103  0.2683  0.8186
17338THY    HA329527   7.537   6.849   2.412 -1.2717  0.7874 -0.1609
17338THY    CA429528   7.503   6.822   2.206 -0.2339 -0.5998  0.1878
17338THY    HA429529   7.421   6.892   2.211 -0.1021 -1.1389  0.3808
17338THY    CA529530   7.533   6.752   2.081 -0.0785 -0.0790  0.0848
17338THY    CM129531   7.450   6.792   1.960  0.0988  0.6604 -0.1401
17338THY    HM129532   7.373   6.868   1.984  1.1895  1.8241  0.6438
17338THY    HM229533   7.410   6.704   1.908  1.0644  2.8380 -1.9762
17338THY    HM329534   7.521   6.832   1.888  0.6785  0.7168 -1.0405
17338THY    CA629535   7.615   6.639   2.088 -0.1959  0.0105 -0.1104
17338THY    HA629536   7.643   6.585   1.998  2.9010 -0.2833  1.7476
17339THY      O29537   0.676   1.157   2.282  0.3133  0.2018 -0.0072
17339THY     HO29538   0.642   1.248   2.279 -2.0515  1.5444 -0.7708
17339THY    CA129539   0.599   1.078   2.197  0.6414 -0.3372  0.6587
17339THY    CA229540   0.644   0.952   2.154 -0.3628 -0.0766 -0.3608
17339THY    CP129541   0.776   0.901   2.204 -0.1234  0.2326 -0.5085
17339THY    HP129542   0.814   0.971   2.280 -1.9245 -0.1676  0.9933
17339THY    CP229543   0.869   0.887   2.086  0.0602  0.5372 -0.1563
17339THY    HP229544   0.829   0.807   2.022  1.7286 -0.9816  0.1444
17339THY    HP329545   0.966   0.857   2.128 -0.1268  1.3107  0.3058
17339THY    HP429546   0.876   0.984   2.034 -0.0234 -1.5034 -1.1898
17339THY    CP329547   0.770   0.774   2.278 -0.2692  0.1448 -0.2995
17339THY    HP529548   0.683   0.776   2.346  0.1508  0.6911 -0.3018
17339THY    HP629549   0.858   0.767   2.343 -0.7438  1.3527  2.8983
17339THY    HP729550   0.747   0.686   2.218  1.3995 -1.4534  0.3001
17339THY    CA329551   0.564   0.865   2.080  0.0658 -0.0513  0.0662
17339THY    HA329552   0.606   0.773   2.042 -1.1675 -1.4502  0.0534
17339THY    CA429553   0.435   0.902   2.044  0.1455 -0.0824  0.2006
17339THY    HA429554   0.379   0.840   1.974 -1.5165 -0.1913  1.7287
17339THY    CA529555   0.388   1.029   2.081  0.1283 -0.6499  0.4160
17339THY    CM129556   0.262   1.077   2.027  1.5458  0.4307 -0.5273
17339THY    HM129557   0.183   1.039   2.093  1.1725  1.4271  1.7706
17339THY    HM229558   0.249   1.044   1.924  0.9225 -0.4435  2.2041
17339THY    HM329559   0.256   1.186   2.036 -0.7112 -1.3812 -0.4248
17339THY    CA629560   0.467   1.115   2.161  0.2733 -0.6465  0.0686
17339THY    HA629561   0.428   1.207   2.204  3.3485  1.4748  0.5062
17340THY      O29562   4.962   6.221   6.826  0.1325 -0.8287 -0.0373
17340THY     HO29563   4.945   6.129   6.800 -2.0705  0.2889  0.0053
17340THY    CA129564   4.898   6.246   6.947 -0.5761 -0.5625  0.4524
17340THY    CA229565   4.928   6.362   7.028  0.2768 -0.4376  0.2078
17340THY    CP129566   5.031   6.464   6.970 -0.2020 -1.0476  0.0907
17340THY    HP129567   5.093   6.426   6.889 -0.5737 -0.6002 -1.5478
17340THY    CP229568   5.140   6.496   7.074  0.0867 -0.0783  0.6397
17340THY    HP229569   5.210   6.412   7.084  0.2371 -1.8215  0.5154
17340THY    HP329570   5.108   6.513   7.178 -1.8760 -0.7485  1.3205
17340THY    HP429571   5.195   6.586   7.043 -0.5876  2.1725  1.9129
17340THY    CP329572   4.958   6.587   6.922  0.2268  0.4186 -0.2858
17340THY    HP529573   4.881   6.625   6.990  0.9029  0.5826  0.8471
17340THY    HP629574   4.907   6.569   6.826 -3.6508  2.1992  0.1533
17340THY    HP729575   5.028   6.670   6.903 -0.1596 -2.0456 -0.4357
17340THY    CA329576   4.869   6.369   7.154  0.4322 -1.4006 -0.3703
17340THY    HA329577   4.904   6.447   7.222 -1.4150  1.2767 -1.7071
17340THY    CA429578   4.777   6.269   7.191  0.0712 -0.7111  0.3172
17340THY    HA429579   4.746   6.269   7.296 -0.2028 -0.7730 -1.1060
17340THY    CA529580   4.737   6.160   7.112  0.0193  0.8381  0.2773
17340THY    CM129581   4.629   6.063   7.143  0.2798 -0.2833  0.6297
17340THY    HM129582   4.570   6.095   7.230 -1.0819 -1.4814  1.5264
17340THY    HM229583   4.659   5.963   7.176 -0.4470 -0.1361  0.4510
17340THY    HM329584   4.554   6.049   7.064 -0.6988  0.3146  2.2428
17340THY    CA629585   4.795   6.159   6.983 -1.1739  0.1033  0.0501
17340THY    HA629586   4.769   6.079   6.914 -1.0129 -1.0249  0.9421
17341THY      O29587   3.274   1.714   4.666 -0.2475  0.3208  0.0036
17341THY     HO29588   3.284   1.647   4.736 -2.0859  1.8220  1.1894
17341THY    CA129589   3.338   1.678   4.550  0.1349  0.4042 -0.4056
17341THY    CA229590   3.424   1.769   4.482  0.7229  0.2978  0.6407
17341THY    CP129591   3.449   1.904   4.543  0.2533  0.2291 -0.1343
17341THY    HP129592   3.385   1.928   4.629  0.8385  0.7844 -0.5228
17341THY    CP229593   3.430   2.014   4.436  0.1842 -0.1915  0.2343
17341THY    HP229594   3.507   2.000   4.359  1.4654  0.7484  1.7511
17341THY    HP329595   3.432   2.111   4.487  2.0005 -2.1420  1.3192
17341THY    HP429596   3.333   1.993   4.388  0.3453 -0.0770 -0.7975
17341THY    CP329597   3.597   1.909   4.590  0.3461  0.1906 -0.2129
17341THY    HP529598   3.616   2.009   4.631 -1.2921 -1.2219  0.7409
17341THY    HP629599   3.671   1.900   4.510  0.2152 -0.2533  2.0116
17341THY    HP729600   3.608   1.829   4.664 -1.8912 -0.9156 -1.6335
17341THY    CA329601   3.476   1.724   4.362 -0.0138 -0.2072 -0.4126
17341THY    HA329602   3.546   1.787   4.306 -0.4933 -0.3058  0.0401
17341THY    CA429603   3.449   1.603   4.308  0.6252  0.0639 -0.2478
17341THY    HA429604   3.499   1.577   4.216 -1.0268 -1.1018  0.5291
17341THY    CA529605   3.361   1.515   4.378 -0.4345 -0.3026  0.6144
17341THY    CM129606   3.329   1.382   4.319 -0.4899 -0.5692  0.0710
17341THY    HM129607   3.220   1.375   4.332 -0.3351  2.6252  1.8489
17341THY    HM229608   3.391   1.309   4.372 -1.0029  0.8078  0.6029
17341THY    HM329609   3.367   1.374   4.216 -0.5053 -0.4729 -1.3839
17341THY    CA629610   3.311   1.556   4.500  0.0810 -0.4252  0.1357
17341THY    HA629611   3.251   1.493   4.564  1.2412 -0.4453 -1.0432
17342THY      O29612   0.978   5.680   7.267  0.2790 -0.0350 -0.0625
17342THY     HO29613   0.931   5.702   7.350 -0.7211 -1.0076  1.6838
17342THY    CA129614   1.001   5.793   7.190 -0.0287 -0.4002 -0.3488
17342THY    CA229615   0.991   5.782   7.056 -0.1256  0.1507  0.0893
17342THY    CP129616   0.949   5.649   6.986 -0.5158  0.4665 -0.1454
17342THY    HP129617   0.918   5.576   7.062  2.7873  1.1910 -0.9580
17342THY    CP229618   1.068   5.586   6.904 -0.2262 -0.4495 -0.1807
17342THY    HP229619   1.038   5.487   6.867 -0.0179  0.0573 -0.4351
17342THY    HP329620   1.153   5.572   6.971 -2.1973  2.1845 -0.4158
17342THY    HP429621   1.069   5.650   6.815 -2.3524 -0.7713 -0.5075
17342THY    CP329622   0.824   5.680   6.900 -0.2120 -0.2861 -0.2022
17342THY    HP529623   0.856   5.753   6.824  0.1928  1.0407  1.0471
17342THY    HP629624   0.752   5.731   6.964  2.7936  1.6996  1.8385
17342THY    HP729625   0.779   5.592   6.853 -0.9174  1.9205 -1.0627
17342THY    CA329626   1.034   5.896   6.986 -0.0288 -0.0100  0.1559
17342THY    HA329627   1.043   5.893   6.877  0.8594 -0.0322  2.1029
17342THY    CA429628   1.084   6.014   7.051  0.3303 -0.4690 -0.0522
17342THY    HA429629   1.122   6.095   6.990  0.2545 -2.6539 -1.5666
17342THY    CA529630   1.097   6.011   7.190 -0.0565 -0.4144 -0.3727
17342THY    CM129631   1.163   6.128   7.263 -0.5296 -0.0189 -0.1571
17342THY    HM129632   1.144   6.230   7.229  0.4071  1.6080  0.5963
17342THY    HM229633   1.270   6.113   7.243 -0.3947 -1.1532  1.9325
17342THY    HM329634   1.144   6.118   7.370  2.4670  0.5327 -0.8030
17342THY    CA629635   1.049   5.898   7.259 -0.0545 -0.0594 -0.5310
17342THY    HA629636   1.064   5.891   7.366  0.6473 -0.0641  0.6283
17343THY      O29637   6.414   1.180   5.495  0.0146 -0.8554  0.4221
17343THY     HO29638   6.501   1.210   5.464  0.2791  0.2932  0.9031
17343THY    CA129639   6.328   1.194   5.400  0.2198  0.0837 -0.0004
17343THY    CA229640   6.184   1.193   5.419 -0.5954  0.8354 -0.0896
17343THY    CP129641   6.134   1.156   5.560  0.3983 -0.9483 -0.3806
17343THY    HP129642   6.182   1.219   5.637  0.7104 -1.1899 -0.3173
17343THY    CP229643   6.172   1.019   5.608  1.0621  0.3419  0.5578
17343THY    HP229644   6.148   0.994   5.712  3.5920  0.7916 -0.3294
17343THY    HP329645   6.281   1.010   5.609  0.9942 -0.5515 -0.7595
17343THY    HP429646   6.129   0.941   5.543 -2.8217  0.8629  2.0206
17343THY    CP329647   5.984   1.178   5.580 -0.5777 -0.2104 -0.4575
17343THY    HP529648   5.945   1.167   5.682 -3.5753 -1.0706  1.0317
17343THY    HP629649   5.920   1.124   5.509 -0.8854 -1.0058  0.8930
17343THY    HP729650   5.948   1.280   5.561 -0.8565  2.5164  0.0223
17343THY    CA329651   6.100   1.222   5.306 -0.0367 -0.6229  0.5235
17343THY    HA329652   5.992   1.225   5.312  0.0181  1.3459 -0.0197
17343THY    CA429653   6.155   1.223   5.178 -0.8081  0.7791  0.9101
17343THY    HA429654   6.094   1.246   5.091 -0.6394  0.6584  0.8967
17343THY    CA529655   6.299   1.213   5.157 -0.4704 -0.5051  0.4938
17343THY    CM129656   6.368   1.214   5.024 -0.6054 -0.2315 -0.5785
17343THY    HM129657   6.417   1.311   5.012 -1.8844  0.0444  0.1208
17343THY    HM229658   6.287   1.200   4.951  0.3484 -1.2995 -0.6825
17343THY    HM329659   6.431   1.124   5.016 -0.7358 -1.3511 -0.5902
17343THY    CA629660   6.384   1.205   5.272 -0.2208 -0.6652  0.7648
17343THY    HA629661   6.490   1.213   5.249 -0.3269 -1.7485 -0.5342
17344THY      O29662   9.065   3.005   7.286 -0.3927 -0.1985  0.2304
17344THY     HO29663   9.132   2.959   7.339 -2.6912  2.5745 -0.2320
17344THY    CA129664   9.019   2.924   7.185  0.0737  0.0576 -0.1032
17344THY    CA229665   8.920   2.963   7.087 -0.3399 -0.2675 -1.1307
17344THY    CP129666   8.872   3.113   7.101  0.4026 -0.5337  0.2783
17344THY    HP129667   8.929   3.171   7.175  2.7834  0.0885 -2.5883
17344THY    CP229668   8.728   3.110   7.155  0.0431  0.7260 -0.2093
17344THY    HP229669   8.667   3.055   7.083  2.1222 -1.4924  0.2105
17344THY    HP329670   8.699   3.216   7.159  2.2812 -2.1987  0.6696
17344THY    HP429671   8.726   3.070   7.257 -0.7072  1.4169  1.4713
17344THY    CP329672   8.888   3.184   6.967  0.0377  0.0876  0.0129
17344THY    HP529673   8.825   3.135   6.892 -1.5859 -0.4910  2.7594
17344THY    HP629674   8.992   3.191   6.932  0.0148  0.0646  0.2781
17344THY    HP729675   8.848   3.286   6.975 -2.1791 -0.7567 -0.7466
17344THY    CA329676   8.875   2.870   6.991  0.5710 -0.7908 -0.6802
17344THY    HA329677   8.805   2.899   6.912 -0.6223  0.4507 -0.0557
17344THY    CA429678   8.923   2.740   6.996  0.3346 -0.6943 -0.0370
17344THY    HA429679   8.892   2.667   6.922  0.9925 -1.4536  0.4319
17344THY    CA529680   9.028   2.709   7.079  0.2024 -0.0284 -0.1227
17344THY    CM129681   9.083   2.567   7.072 -0.3209 -0.4618 -0.3088
17344THY    HM129682   9.016   2.498   7.019 -2.9811  2.9615 -0.6220
17344THY    HM229683   9.102   2.524   7.171  0.1455  0.1706  1.2853
17344THY    HM329684   9.184   2.570   7.031  0.5578  1.6227  0.7223
17344THY    CA629685   9.072   2.798   7.175 -0.2656  0.3041 -0.1976
17344THY    HA629686   9.153   2.771   7.242 -1.9714  1.5859 -2.6954
17345THY      O29687   4.850   5.082   4.388 -0.4285 -0.2739  0.4989
17345THY     HO29688   4.909   5.130   4.326  1.6982  1.6836  0.5976
17345THY    CA129689   4.886   4.953   4.386  0.4238 -0.8189 -0.4700
17345THY    CA229690   4.841   4.866   4.483 -0.4389  0.1710  0.1727
17345THY    CP129691   4.752   4.919   4.593 -0.3667  0.3069  0.8787
17345THY    HP129692   4.746   5.029   4.591 -0.6642 -0.9705  0.8553
17345THY    CP229693   4.804   4.871   4.729  0.1390 -0.7918 -0.5321
17345THY    HP229694   4.757   4.939   4.801 -1.9477 -1.6347 -1.0087
17345THY    HP329695   4.914   4.878   4.732  0.1005  1.4321  0.0841
17345THY    HP429696   4.789   4.763   4.740 -0.3041 -0.4732 -0.4405
17345THY    CP329697   4.610   4.875   4.563 -0.3591  0.0127  0.3112
17345THY    HP529698   4.582   4.907   4.462 -1.9523  0.7418  1.3438
17345THY    HP629699   4.531   4.916   4.627  1.3362  1.4214  1.4824
17345THY    HP729700   4.603   4.765   4.571  1.4301 -0.1141  0.1649
17345THY    CA329701   4.879   4.733   4.485  0.0319 -0.4243  0.1658
17345THY    HA329702   4.839   4.671   4.565  1.4894  1.8127  1.9377
17345THY    CA429703   4.960   4.685   4.380  0.5318 -0.1999  0.0338
17345THY    HA429704   4.986   4.580   4.367 -0.4562 -2.3429 -0.0135
17345THY    CA529705   5.006   4.770   4.284 -1.1566  0.4809 -0.3224
17345THY    CM129706   5.100   4.725   4.177 -0.1722  0.2021  0.5632
17345THY    HM129707   5.203   4.748   4.204 -0.3384  0.0178  1.5797
17345THY    HM229708   5.081   4.769   4.078  0.8489 -0.3956 -0.2856
17345THY    HM329709   5.102   4.616   4.166 -3.1971 -0.8966  0.5034
17345THY    CA629710   4.969   4.906   4.285 -0.3202 -0.2410  0.5575
17345THY    HA629711   5.009   4.970   4.208  2.3260  1.7022  1.4116
17346THY      O29712   6.426   4.780   6.214 -0.2762  0.3652  0.3288
17346THY     HO29713   6.432   4.698   6.266 -1.4089  0.9283  0.5915
17346THY    CA129714   6.299   4.775   6.172 -0.2826 -0.0194  1.0678
17346THY    CA229715   6.232   4.889   6.146 -0.4832  0.0468 -0.2577
17346THY    CP129716   6.302   5.024   6.172 -0.3620  0.5948  0.1693
17346THY    HP129717   6.412   5.021   6.176 -0.2927 -0.4984  0.6924
17346THY    CP229718   6.254   5.069   6.314 -0.4309  0.8430 -0.1682
17346THY    HP229719   6.316   5.147   6.359  0.4391 -1.3549  0.4923
17346THY    HP329720   6.274   4.990   6.387  0.7010  1.1611  0.3983
17346THY    HP429721   6.148   5.096   6.302 -0.1054 -0.6511  0.5693
17346THY    CP329722   6.266   5.131   6.068 -0.3268  0.5019  0.5226
17346THY    HP529723   6.305   5.103   5.969  0.4733  1.1126 -0.5573
17346THY    HP629724   6.320   5.223   6.095  0.4373  2.3416 -0.4310
17346THY    HP729725   6.160   5.155   6.059  0.0705 -2.1718  1.6826
17346THY    CA329726   6.096   4.875   6.107 -0.5695 -0.0005  0.2114
17346THY    HA329727   6.032   4.960   6.086 -1.7303  0.2625 -0.5708
17346THY    CA429728   6.037   4.748   6.087 -0.1633  0.3352  0.3362
17346THY    HA429729   5.937   4.736   6.045 -0.3763  1.0949 -0.6644
17346THY    CA529730   6.111   4.636   6.117  0.4179  0.0331  0.0286
17346THY    CM129731   6.050   4.499   6.108  0.1995 -0.1455  0.7230
17346THY    HM129732   5.950   4.497   6.151 -2.3616 -5.2787  0.6637
17346THY    HM229733   6.107   4.426   6.167  1.3738  0.0378  1.7624
17346THY    HM329734   6.049   4.458   6.006  1.3775  0.2065 -0.2539
17346THY    CA629735   6.244   4.650   6.157  0.0624  0.2894  0.1781
17346THY    HA629736   6.308   4.562   6.163  2.2762 -4.8065  1.0385
17347THY      O29737   0.322   1.100   4.591  0.1234  0.7143  0.3765
17347THY     HO29738   0.279   1.075   4.674  1.7482  1.3383 -0.4436
17347THY    CA129739   0.432   1.014   4.585  0.1118 -0.0876 -0.4031
17347THY    CA229740   0.466   0.935   4.471 -0.4070 -0.1325 -0.2583
17347THY    CP129741   0.382   0.941   4.343  0.2082  0.5091 -0.3790
17347THY    HP129742   0.285   0.985   4.371 -0.2428 -0.2727 -0.8499
17347THY    CP229743   0.351   0.796   4.293 -0.2097 -0.1554  0.1032
17347THY    HP229744   0.314   0.730   4.373  2.0723 -0.5819 -1.8229
17347THY    HP329745   0.436   0.746   4.244 -0.6357 -0.6048 -0.1886
17347THY    HP429746   0.272   0.801   4.217  0.3425 -0.8242 -0.9855
17347THY    CP329747   0.432   1.034   4.234  0.8617  0.7712  0.0238
17347THY    HP529748   0.526   1.005   4.184 -0.6536 -3.5660  1.7904
17347THY    HP629749   0.444   1.126   4.292  0.2953  1.7601 -0.5167
17347THY    HP729750   0.354   1.034   4.157 -0.2528  1.8776  0.1998
17347THY    CA329751   0.586   0.853   4.485 -0.3488 -0.3579  0.7293
17347THY    HA329752   0.616   0.801   4.395 -1.8621 -0.3245 -0.2466
17347THY    CA429753   0.665   0.859   4.599 -0.1244  0.0759  0.1745
17347THY    HA429754   0.762   0.809   4.597  0.3899 -1.4676  1.1572
17347THY    CA529755   0.624   0.935   4.709  0.1680  0.6832  0.1021
17347THY    CM129756   0.719   0.945   4.822  0.4978  0.1335 -0.1795
17347THY    HM129757   0.698   1.034   4.883  2.0166 -1.5815  1.4639
17347THY    HM229758   0.824   0.931   4.796  0.4757  0.2757 -0.6085
17347THY    HM329759   0.699   0.862   4.890  2.3657 -0.0050 -0.7790
17347THY    CA629760   0.511   1.012   4.703  0.1567 -0.3455 -0.0261
17347THY    HA629761   0.491   1.092   4.773 -0.9749  0.0812 -0.6464
17348THY      O29762   8.509   4.061   3.628  0.3028 -0.1130  0.6915
17348THY     HO29763   8.577   4.061   3.558  0.8851  0.4319  0.4630
17348THY    CA129764   8.395   4.114   3.592  0.0453 -0.3762 -0.8148
17348THY    CA229765   8.269   4.080   3.648  0.0627  0.6408  0.1536
17348THY    CP129766   8.266   3.980   3.765  0.1089 -0.1651 -0.3914
17348THY    HP129767   8.347   4.014   3.830 -0.9958  1.1743 -0.2525
17348THY    CP229768   8.314   3.837   3.720 -0.0929  0.4076 -0.6007
17348THY    HP229769   8.402   3.842   3.654  1.8936  2.8347 -1.7098
17348THY    HP329770   8.233   3.788   3.664  0.2081  0.4123 -1.1083
17348THY    HP429771   8.344   3.781   3.809  0.7800  0.5428  0.0538
17348THY    CP329772   8.134   3.967   3.845 -0.3388 -0.2324 -0.3075
17348THY    HP529773   8.053   3.975   3.771  0.0097 -0.6534 -0.5992
17348THY    HP629774   8.133   4.045   3.922  0.0181  0.0922 -0.6229
17348THY    HP729775   8.125   3.877   3.906 -0.4223  0.2099 -0.0000
17348THY    CA329776   8.156   4.141   3.593 -0.5032 -0.2705 -0.3600
17348THY    HA329777   8.055   4.113   3.622 -1.3592 -1.0959  1.6520
17348THY    CA429778   8.164   4.242   3.495 -0.4854 -0.8253 -0.6827
17348THY    HA429779   8.078   4.299   3.459  0.4818  0.7346  1.9267
17348THY    CA529780   8.293   4.285   3.457  0.2571 -0.7664 -0.3661
17348THY    CM129781   8.296   4.394   3.356  0.5142 -0.0998 -0.4689
17348THY    HM129782   8.224   4.469   3.390 -0.0497 -0.3827 -0.8696
17348THY    HM229783   8.259   4.357   3.259  0.4602 -0.3563  0.2386
17348THY    HM329784   8.399   4.431   3.365  0.6860  0.7803 -1.1386
17348THY    CA629785   8.408   4.217   3.499  0.7222 -0.2851  0.3399
17348THY    HA629786   8.506   4.248   3.465  1.7881  0.7249 -1.7199
17349THY      O29787   4.407   4.605   3.875  0.3984  0.3570 -0.5405
17349THY     HO29788   4.441   4.553   3.800 -1.6432 -0.5345 -0.6876
17349THY    CA129789   4.514   4.652   3.937  0.7481  0.4724  0.4448
17349THY    CA229790   4.515   4.709   4.066 -0.0687  0.3793 -0.3821
17349THY    CP129791   4.388   4.716   4.146 -0.3049  0.8800 -0.0341
17349THY    HP129792   4.309   4.643   4.122 -0.8171  1.2492  0.3834
17349THY    CP229793   4.331   4.855   4.152  0.2640  0.2528  0.1425
17349THY    HP229794   4.235   4.850   4.205 -1.5405 -2.5394  2.1242
17349THY    HP329795   4.306   4.886   4.050  0.5814  0.3227  0.6409
17349THY    HP429796   4.397   4.919   4.211 -0.3258  0.7329  0.3123
17349THY    CP329797   4.427   4.668   4.287  0.1669  0.2633  0.2945
17349THY    HP529798   4.452   4.561   4.292 -0.4150  1.0707  0.1890
17349THY    HP629799   4.337   4.679   4.348  0.9898  1.3550  1.2117
17349THY    HP729800   4.507   4.724   4.336 -1.0861  2.1884  0.5046
17349THY    CA329801   4.633   4.766   4.110  0.5153  0.2653 -0.5925
17349THY    HA329802   4.640   4.816   4.205 -0.2400 -0.5178  1.0653
17349THY    CA429803   4.743   4.771   4.025  0.3151  0.4151 -0.1730
17349THY    HA429804   4.835   4.826   4.046  1.3498  0.3517 -1.8053
17349THY    CA529805   4.743   4.713   3.904 -0.2443 -0.2330  0.0653
17349THY    CM129806   4.855   4.724   3.810  0.8244  0.3026 -0.4117
17349THY    HM129807   4.852   4.816   3.751  2.0674  1.8453  0.6819
17349THY    HM229808   4.853   4.637   3.743 -0.6746 -1.3069  0.8064
17349THY    HM329809   4.945   4.731   3.873  0.7755  0.1851  1.7024
17349THY    CA629810   4.627   4.654   3.853 -0.5550 -1.0331  0.3620
17349THY    HA629811   4.626   4.616   3.751  2.2779 -0.2273 -2.2985
17350THY      O29812   1.668   5.117   5.279  0.1707 -0.6587 -0.6216
17350THY     HO29813   1.648   5.206   5.311  0.0856 -0.4871 -0.7026
17350THY    CA129814   1.801   5.092   5.302 -0.2754  0.5455  0.1469
17350THY    CA229815   1.856   4.967   5.290  0.3398  0.3617  0.5460
17350THY    CP129816   1.789   4.841   5.264  0.2172 -0.0889 -0.0094
17350THY    HP129817   1.682   4.861   5.278  0.7827  1.4343  2.2280
17350THY    CP229818   1.813   4.723   5.364 -0.6457  0.3743  0.0601
17350THY    HP229819   1.810   4.763   5.466 -0.5365  0.3153  0.2203
17350THY    HP329820   1.910   4.677   5.342 -0.7581  0.3148 -0.1521
17350THY    HP429821   1.731   4.650   5.371  0.7089 -0.5036 -1.6352
17350THY    CP329822   1.822   4.790   5.124 -0.1952  0.0619 -0.2075
17350THY    HP529823   1.763   4.704   5.089 -0.1118 -1.1668  0.2069
17350THY    HP629824   1.927   4.758   5.124 -0.8153 -1.0649 -2.4278
17350THY    HP729825   1.802   4.872   5.053  0.5813  1.5259  1.2962
17350THY    CA329826   1.993   4.961   5.285 -0.3922  0.4933  0.0724
17350THY    HA329827   2.036   4.863   5.270 -1.3285  2.8073 -0.7597
17350THY    CA429828   2.076   5.066   5.323 -0.1114  0.2956  0.1099
17350THY    HA429829   2.182   5.065   5.302 -0.5554 -2.7415  2.2217
17350THY    CA529830   2.019   5.190   5.349  0.2683  0.2348 -0.1354
17350THY    CM129831   2.106   5.302   5.397  0.8271  0.4103 -0.0345
17350THY    HM129832   2.157   5.276   5.491  2.5722 -0.8733 -1.5161
17350THY    HM229833   2.050   5.395   5.414  0.6773  1.1649 -0.2556
17350THY    HM329834   2.185   5.335   5.329 -0.5949 -2.0402 -1.3443
17350THY    CA629835   1.880   5.201   5.332 -0.6336 -0.4488  0.6054
17350THY    HA629836   1.825   5.290   5.360 -1.5829 -0.5527  0.0635
17351THY      O29837   4.807   8.321   4.837  0.3414  0.0205  0.3603
17351THY     HO29838   4.746   8.247   4.858 -0.7238 -0.1171  1.1761
17351THY    CA129839   4.936   8.269   4.832  0.5373 -0.5791  1.3545
17351THY    CA229840   5.049   8.332   4.775 -0.4536  0.1024  0.4596
17351THY    CP129841   5.032   8.471   4.716  0.7671 -1.1583 -0.6803
17351THY    HP129842   4.986   8.536   4.791  2.6395 -2.1687  1.9575
17351THY    CP229843   4.943   8.475   4.597  0.7608 -0.0249 -0.5522
17351THY    HP229844   4.983   8.424   4.509  1.2751 -0.2540  0.2366
17351THY    HP329845   4.910   8.576   4.568  2.2013  1.1187  0.2913
17351THY    HP429846   4.853   8.422   4.631  1.2602  0.8359 -0.8842
17351THY    CP329847   5.165   8.541   4.688  0.2632 -0.2176  0.1984
17351THY    HP529848   5.155   8.640   4.644  1.5283 -0.4706  0.2366
17351THY    HP629849   5.229   8.491   4.613 -1.1326 -1.4438  0.2073
17351THY    HP729850   5.226   8.563   4.777  3.3624 -2.5305  1.7715
17351THY    CA329851   5.167   8.263   4.776  0.2472 -0.1101 -0.0964
17351THY    HA329852   5.262   8.295   4.734 -1.0390 -2.3538  1.0404
17351THY    CA429853   5.180   8.128   4.828 -0.0570  0.4984  0.2791
17351THY    HA429854   5.276   8.079   4.836 -0.0572 -1.4254 -0.0984
17351THY    CA529855   5.061   8.064   4.871 -0.0245 -0.1632 -0.0208
17351THY    CM129856   5.049   7.923   4.911 -0.5203 -0.0701  0.0146
17351THY    HM129857   5.083   7.906   5.014  1.9303 -0.0058  3.9325
17351THY    HM229858   5.112   7.846   4.866  0.2906 -0.1401  0.7014
17351THY    HM329859   4.946   7.887   4.917 -0.7014  1.1699  0.6839
17351THY    CA629860   4.944   8.137   4.873  0.8120  0.1189  0.1543
17351THY    HA629861   4.849   8.090   4.896 -0.3190 -2.8576  0.6973
17352THY      O29862   8.841   5.370   5.131 -0.6605  0.4507  0.4012
17352THY     HO29863   8.928   5.410   5.110 -0.6215  0.0232  0.0971
17352THY    CA129864   8.836   5.343   5.260  0.1206  0.8778  0.3091
17352THY    CA229865   8.721   5.337   5.335 -0.1857 -0.8153 -0.3098
17352THY    CP129866   8.588   5.377   5.276  0.5028  0.3564 -0.2399
17352THY    HP129867   8.588   5.360   5.168  0.1303  0.4536 -0.8815
17352THY    CP229868   8.561   5.523   5.300 -0.6183 -0.5133 -0.1909
17352THY    HP229869   8.562   5.534   5.409  0.9529 -0.5203  0.0388
17352THY    HP329870   8.470   5.563   5.254  0.4143 -1.7588  0.8443
17352THY    HP429871   8.643   5.587   5.264 -0.9523 -0.5459  0.2251
17352THY    CP329872   8.472   5.288   5.328  0.1098  0.2704 -0.2039
17352THY    HP529873   8.390   5.293   5.255 -0.4695  0.5330 -3.4642
17352THY    HP629874   8.445   5.298   5.434 -0.7532 -0.0129  0.5937
17352THY    HP729875   8.505   5.185   5.311  1.4231 -1.7574  0.4938
17352THY    CA329876   8.725   5.301   5.474  0.2219  1.1755  0.2565
17352THY    HA329877   8.644   5.300   5.546  0.5458  1.5395 -0.3095
17352THY    CA429878   8.854   5.273   5.528 -0.4339 -0.3924 -0.5732
17352THY    HA429879   8.857   5.247   5.634 -0.9183  0.0616  1.0979
17352THY    CA529880   8.970   5.278   5.453 -0.3042 -0.2396 -0.5000
17352THY    CM129881   9.108   5.248   5.516 -0.1271  0.3350  0.1474
17352THY    HM129882   9.160   5.345   5.520  0.4165  0.7976 -0.1601
17352THY    HM229883   9.161   5.164   5.471  2.2793 -0.5698  2.0362
17352THY    HM329884   9.100   5.216   5.620  0.8755  0.0875 -0.9645
17352THY    CA629885   8.962   5.308   5.322  0.3654 -0.0060 -0.5748
17352THY    HA629886   9.052   5.303   5.261  0.3841 -0.1057  0.6455
17353THY      O29887   5.681   6.476   6.187  0.0036  0.6001 -0.0907
17353THY     HO29888   5.685   6.403   6.122  0.9906  0.4575  0.0770
17353THY    CA129889   5.793   6.481   6.260  0.0962  0.1362 -0.2626
17353THY    CA229890   5.819   6.557   6.376 -0.2373  0.6246  0.3053
17353THY    CP129891   5.702   6.651   6.424  0.1332  0.3462  0.3376
17353THY    HP129892   5.617   6.635   6.356  0.1829  0.4538 -0.4349
17353THY    CP229893   5.725   6.799   6.411 -0.4603  0.6498  0.5958
17353THY    HP229894   5.764   6.816   6.310  0.3835  0.3369 -2.6248
17353THY    HP329895   5.796   6.845   6.482 -1.0139  0.3886  1.9080
17353THY    HP429896   5.639   6.865   6.428  0.5384 -1.2269  2.5099
17353THY    CP329897   5.648   6.615   6.557 -0.6571 -0.1806  0.3447
17353THY    HP529898   5.610   6.513   6.568  1.0658  0.6502 -0.2477
17353THY    HP629899   5.570   6.689   6.580  1.1530 -0.0337  2.3422
17353THY    HP729900   5.729   6.621   6.630  0.5102 -1.4736  1.1787
17353THY    CA329901   5.932   6.535   6.459 -0.6861 -0.1809 -0.0074
17353THY    HA329902   5.955   6.595   6.547 -0.6257 -0.4125  0.3146
17353THY    CA429903   6.026   6.446   6.409 -0.8501 -0.0420  0.0981
17353THY    HA429904   6.114   6.430   6.472 -1.0029  0.1877  0.1608
17353THY    CA529905   6.011   6.378   6.284 -0.0600 -0.4200 -0.7364
17353THY    CM129906   6.111   6.289   6.226 -0.2934  0.3353 -0.0196
17353THY    HM129907   6.164   6.233   6.304 -1.2452  0.7971 -0.2912
17353THY    HM229908   6.189   6.344   6.172 -2.6433 -0.7554  2.5052
17353THY    HM329909   6.054   6.216   6.166 -0.8497 -0.0014  0.6846
17353THY    CA629910   5.895   6.395   6.209  0.4329  0.4404 -0.3143
17353THY    HA629911   5.876   6.344   6.115  1.0398  1.7012 -3.0881
17354THY      O29912   5.461   8.581   2.826  0.5907  0.1371  0.2348
17354THY     HO29913   5.474   8.602   2.921 -1.7636  0.9285 -1.5106
17354THY    CA129914   5.539   8.472   2.811 -1.1572 -0.0594  0.1547
17354THY    CA229915   5.534   8.391   2.703 -0.0837  0.6420 -0.2248
17354THY    CP129916   5.435   8.420   2.584  0.3311 -0.0798 -0.3426
17354THY    HP129917   5.368   8.504   2.605 -1.4205  0.7256 -1.8692
17354THY    CP229918   5.346   8.294   2.553 -0.1709 -0.3414 -0.7197
17354THY    HP229919   5.274   8.330   2.479 -0.0259 -0.0690  0.1398
17354THY    HP329920   5.294   8.250   2.639 -1.6035 -0.2233  1.1051
17354THY    HP429921   5.412   8.214   2.520  1.8624  3.5777 -0.9059
17354THY    CP329922   5.507   8.469   2.463  0.1644 -0.1856  0.2901
17354THY    HP529923   5.583   8.398   2.429 -1.2541 -0.0514 -1.3743
17354THY    HP629924   5.525   8.577   2.467 -0.5054 -2.8791  0.5738
17354THY    HP729925   5.435   8.465   2.380 -1.4064  1.1431 -0.4250
17354THY    CA329926   5.629   8.290   2.679  0.2956 -1.0106  0.3761
17354THY    HA329927   5.632   8.229   2.589 -0.2351  0.1184 -1.3936
17354THY    CA429928   5.720   8.268   2.783 -0.8582  0.1293 -0.1832
17354THY    HA429929   5.801   8.196   2.772  0.1471  0.9903  0.7887
17354THY    CA529930   5.724   8.352   2.899  0.0791 -0.1193  0.1751
17354THY    CM129931   5.818   8.333   3.011 -0.2943 -0.0546  0.3752
17354THY    HM129932   5.900   8.403   2.991  0.8752 -0.7749 -1.1176
17354THY    HM229933   5.850   8.228   3.002 -3.2113  0.0476 -0.5945
17354THY    HM329934   5.771   8.343   3.110  0.8086  0.4433  0.8965
17354THY    CA629935   5.631   8.448   2.916 -0.1093 -0.8244 -0.2405
17354THY    HA629936   5.631   8.499   3.012  1.4081  0.2830 -2.2076
17355THY      O29937   3.871   8.845   4.009 -0.5347  0.2760  0.1086
17355THY     HO29938   3.823   8.927   4.028  0.5423 -0.4874  0.9440
17355THY    CA129939   3.925   8.809   4.121 -1.0551  0.0439 -0.3964
17355THY    CA229940   4.041   8.726   4.135  0.2342 -0.6735 -0.4873
17355THY    CP129941   4.113   8.676   4.010  0.8337  0.5328 -0.8789
17355THY    HP129942   4.100   8.753   3.933  0.7826  2.7530  1.4804
17355THY    CP229943   4.050   8.548   3.953 -1.0134 -0.0316 -0.1169
17355THY    HP229944   3.950   8.567   3.910 -0.8346 -0.4873 -0.2005
17355THY    HP329945   4.051   8.469   4.029 -0.5785  0.1654  0.0785
17355THY    HP429946   4.121   8.527   3.873  1.2790  1.3136  2.0312
17355THY    CP329947   4.260   8.674   4.028 -0.2758  0.1708 -0.3959
17355THY    HP529948   4.291   8.584   4.083 -0.8120  0.5699 -0.3449
17355THY    HP629949   4.298   8.766   4.074 -2.4116 -2.0173  1.7004
17355THY    HP729950   4.305   8.669   3.928 -2.9732 -1.0755 -1.7332
17355THY    CA329951   4.075   8.686   4.268 -0.0708 -0.3037 -0.0621
17355THY    HA329952   4.165   8.627   4.285 -1.0410 -0.1937 -1.5679
17355THY    CA429953   4.011   8.739   4.382  0.1286  0.2925  0.2632
17355THY    HA429954   4.037   8.707   4.482  0.9633 -0.6407 -2.2648
17355THY    CA529955   3.907   8.831   4.366  0.3488  0.5044  0.1145
17355THY    CM129956   3.839   8.887   4.483  0.0032 -0.2185  0.7273
17355THY    HM129957   3.744   8.839   4.511 -0.4292 -2.1037  0.3921
17355THY    HM229958   3.816   8.994   4.485  0.5809  0.7723  0.8456
17355THY    HM329959   3.908   8.878   4.568 -0.4704  0.1535  0.5701
17355THY    CA629960   3.867   8.865   4.240  0.2092  0.1531  0.1527
17355THY    HA629961   3.782   8.930   4.227 -0.1871  0.6235 -0.2640
17356THY      O29962   8.309   7.183   4.602 -0.5230  0.4960  0.4806
17356THY     HO29963   8.269   7.265   4.635  0.6567  0.0714  1.2554
17356THY    CA129964   8.440   7.187   4.652  0.8242 -0.1770 -0.4071
17356THY    CA229965   8.540   7.091   4.622  0.5142 -0.1879  0.1157
17356THY    CP129966   8.496   6.974   4.528  0.2633 -0.4703 -0.0653
17356THY    HP129967   8.389   6.951   4.540 -0.2037 -2.1808  1.0486
17356THY    CP229968   8.578   6.840   4.543  0.1362  0.0051 -0.3593
17356THY    HP229969   8.545   6.757   4.479  0.5033  0.4790 -0.8814
17356THY    HP329970   8.575   6.806   4.647  1.7389  1.1327  2.5587
17356THY    HP429971   8.685   6.866   4.537  0.0252  1.3427  0.5017
17356THY    CP329972   8.514   7.026   4.386  0.1992 -0.1807 -0.3457
17356THY    HP529973   8.474   6.950   4.317  0.9186 -2.4014  1.1743
17356THY    HP629974   8.613   7.061   4.356  1.6453  1.1593 -2.9946
17356THY    HP729975   8.447   7.112   4.378 -2.1679 -1.2008 -2.1554
17356THY    CA329976   8.669   7.109   4.676  0.0338  0.3716 -0.7581
17356THY    HA329977   8.753   7.046   4.646  1.7012  1.1144  0.9927
17356THY    CA429978   8.697   7.217   4.761  0.8948 -0.0077 -0.4542
17356THY    HA429979   8.790   7.219   4.818  0.1406  1.2934 -1.2604
17356THY    CA529980   8.601   7.314   4.784 -0.2962  0.3289 -0.3432
17356THY    CM129981   8.628   7.431   4.877  0.1867 -0.2757  0.0177
17356THY    HM129982   8.711   7.405   4.944  1.3038 -1.7124 -0.2764
17356THY    HM229983   8.540   7.453   4.938  1.6576  3.4446 -3.1589
17356THY    HM329984   8.663   7.519   4.822  2.7873  2.4180  0.8232
17356THY    CA629985   8.473   7.297   4.729  0.4750  0.6631 -0.8099
17356THY    HA629986   8.401   7.374   4.753  0.5042  0.5067 -0.7332
17357THY      O29987   5.150   7.591   3.002 -0.4290 -0.1183  0.5498
17357THY     HO29988   5.164   7.542   3.085 -1.0497 -0.1335  0.3384
17357THY    CA129989   5.280   7.625   2.959  0.9346  0.3753  0.4781
17357THY    CA229990   5.302   7.691   2.835 -0.2090  0.0735  0.2832
17357THY    CP129991   5.189   7.739   2.749  0.4067 -0.0659  0.3208
17357THY    HP129992   5.093   7.718   2.798  0.6648  0.8103  1.1069
17357THY    CP229993   5.197   7.671   2.614 -0.2832 -0.1885 -0.0420
17357THY    HP229994   5.284   7.700   2.554 -1.4638 -2.0403 -0.1427
17357THY    HP329995   5.111   7.707   2.557  0.4749 -1.1972  0.2277
17357THY    HP429996   5.199   7.563   2.635  0.0837  0.2107  0.0378
17357THY    CP329997   5.196   7.893   2.743 -0.4001  0.1499 -0.9615
17357THY    HP529998   5.297   7.931   2.721 -1.1302 -2.4878 -0.3317
17357THY    HP629999   5.169   7.925   2.844 -0.9823  0.1757 -1.5195
17357THY    HP730000   5.125   7.922   2.665 -2.1208  0.6305 -3.5633
17357THY    CA330001   5.437   7.719   2.800  0.4708  0.4945  0.0643
17357THY    HA330002   5.456   7.751   2.697  0.6517  0.8945  1.2967
17357THY    CA430003   5.532   7.714   2.904 -0.1529  0.2387  0.0483
17357THY    HA430004   5.632   7.753   2.891 -0.6290  2.5758  2.2845
17357THY    CA530005   5.505   7.654   3.029 -0.3072 -0.1998 -0.1279
17357THY    CM130006   5.618   7.643   3.131 -0.4792  0.2841  0.0695
17357THY    HM130007   5.644   7.734   3.187 -1.1208  0.2282  0.2898
17357THY    HM230008   5.708   7.614   3.076  0.7357  2.0791  0.3076
17357THY    HM330009   5.600   7.566   3.207  0.3216  1.5927  1.1218
17357THY    CA630010   5.382   7.599   3.044  0.0105 -0.7876 -0.4424
17357THY    HA630011   5.367   7.564   3.146  0.6659 -0.4260  0.3053
17358THY      O30012   1.731   8.632   4.095 -0.1625  0.1581 -0.5186
17358THY     HO30013   1.755   8.539   4.107  1.7134  1.8635  0.1151
17358THY    CA130014   1.854   8.690   4.086 -0.0447 -0.3158 -0.0682
17358THY    CA230015   1.870   8.833   4.067  0.6681 -0.1053 -0.1051
17358THY    CP130016   1.752   8.924   4.066  0.4592 -0.2488 -0.3363
17358THY    HP130017   1.677   8.889   4.139  0.4058 -0.6814 -1.1376
17358THY    CP230018   1.686   8.922   3.929  0.3215  0.1661  0.6761
17358THY    HP230019   1.600   8.990   3.935  0.1003  2.0155  0.2858
17358THY    HP330020   1.644   8.824   3.905 -1.0627 -1.5305  1.5988
17358THY    HP430021   1.756   8.951   3.850  0.0632  0.0803  1.0878
17358THY    CP330022   1.777   9.069   4.097  0.2528  0.4646 -0.0047
17358THY    HP530023   1.844   9.092   4.180  0.6836 -0.3582  1.8786
17358THY    HP630024   1.686   9.126   4.117  0.7096  0.9990  0.5539
17358THY    HP730025   1.832   9.108   4.010 -1.6538 -0.5495  0.5573
17358THY    CA330026   1.998   8.885   4.074 -0.1283  0.5040  0.3875
17358THY    HA330027   2.020   8.991   4.063 -0.3593  2.2014  0.6497
17358THY    CA430028   2.111   8.797   4.091  0.1589 -0.3470 -0.4291
17358THY    HA430029   2.209   8.843   4.091 -0.0842 -0.6096  0.0964
17358THY    CA530030   2.097   8.661   4.090 -0.6439  0.3689  0.5348
17358THY    CM130031   2.217   8.571   4.090 -0.6398  0.4522  0.6149
17358THY    HM130032   2.306   8.623   4.053 -0.9336  0.0476  0.8351
17358THY    HM230033   2.207   8.478   4.034 -0.6636  1.5723 -0.0744
17358THY    HM330034   2.242   8.531   4.188  0.4699  0.6976  1.8358
17358THY    CA630035   1.969   8.615   4.104  0.6695  0.4419  0.2766
17358THY    HA630036   1.960   8.507   4.115  1.5462 -0.4342  0.0977
17359THY      O30037   0.914   3.153   2.468 -0.2874 -0.0875 -0.1509
17359THY     HO30038   0.859   3.125   2.543 -1.6282 -0.0190  2.3661
17359THY    CA130039   1.037   3.099   2.493  1.2692 -0.0962  0.0726
17359THY    CA230040   1.142   3.143   2.412 -0.0349 -0.4007 -0.1154
17359THY    CP130041   1.125   3.245   2.309  0.1080  0.2416 -0.1535
17359THY    HP130042   1.030   3.298   2.312  0.0705  0.0270 -0.2068
17359THY    CP230043   1.118   3.186   2.168  0.1667 -0.3522  0.1336
17359THY    HP230044   1.043   3.105   2.167 -0.5233  0.3522  0.7462
17359THY    HP330045   1.219   3.149   2.148  1.7965 -1.3199  4.4682
17359THY    HP430046   1.111   3.275   2.104 -2.1068  0.5660  0.7137
17359THY    CP330047   1.225   3.359   2.319  0.4398 -0.5116 -0.1632
17359THY    HP530048   1.318   3.313   2.282  0.4870  1.4735 -1.8086
17359THY    HP630049   1.234   3.411   2.415  0.8205 -1.0542  0.8106
17359THY    HP730050   1.198   3.436   2.246  1.0479  1.0405  1.5857
17359THY    CA330051   1.272   3.096   2.439  0.0626  0.2538  0.1618
17359THY    HA330052   1.358   3.108   2.375 -0.4066 -1.3943 -3.6386
17359THY    CA430053   1.279   2.993   2.537 -0.4504 -0.1821  0.2278
17359THY    HA430054   1.375   2.949   2.560  0.4419  1.5499  2.8586
17359THY    CA530055   1.164   2.935   2.600 -0.3905 -0.1265  0.2796
17359THY    CM130056   1.166   2.822   2.701  0.2589  0.4170 -0.3403
17359THY    HM130057   1.071   2.770   2.714  0.2802 -0.6275 -0.6690
17359THY    HM230058   1.178   2.859   2.803 -0.6378  0.5876 -0.4964
17359THY    HM330059   1.240   2.746   2.674 -1.0595 -0.1141 -1.4755
17359THY    CA630060   1.046   3.007   2.597 -0.0560 -0.0565 -0.0551
17359THY    HA630061   0.967   2.981   2.667 -1.2738 -0.6112  1.9237
17360THY      O30062   2.895   8.800   1.827 -0.5280  0.1552 -0.3120
17360THY     HO30063   2.860   8.718   1.787  2.0532 -2.3751 -0.3031
17360THY    CA130064   2.810   8.835   1.922  0.3306 -0.2664 -0.5275
17360THY    CA230065   2.856   8.909   2.033 -0.0850 -0.7618  0.7155
17360THY    CP130066   3.005   8.955   2.042  0.2427 -0.3050 -0.8145
17360THY    HP130067   3.063   8.905   1.964 -0.1259 -1.2877  0.2294
17360THY    CP230068   3.059   8.923   2.181 -0.0654  0.2155 -0.5890
17360THY    HP230069   3.058   8.816   2.206 -0.0334 -0.2818 -0.7054
17360THY    HP330070   3.016   8.989   2.257  0.9755  0.1192  0.2260
17360THY    HP430071   3.161   8.962   2.174 -0.0155  2.0250 -0.3156
17360THY    CP330072   3.018   9.103   2.020  0.0874 -0.4820 -0.4147
17360THY    HP530073   3.122   9.135   2.013  0.4346  1.0014 -1.1135
17360THY    HP630074   2.972   9.161   2.101  1.9121  1.7298 -1.8834
17360THY    HP730075   2.964   9.138   1.931  0.3634  0.1411  1.7220
17360THY    CA330076   2.759   8.949   2.129  0.0170  0.1617 -0.0654
17360THY    HA330077   2.792   9.012   2.212  0.9632  0.1127 -0.4785
17360THY    CA430078   2.626   8.915   2.106 -0.2173 -0.0330 -0.0273
17360THY    HA430079   2.546   8.948   2.172 -0.2171 -0.5253  1.0254
17360THY    CA530080   2.585   8.835   2.003 -0.5629 -0.1523  0.3153
17360THY    CM130081   2.437   8.795   1.989 -0.2056 -0.5803 -0.5935
17360THY    HM130082   2.373   8.845   2.063  2.7437  2.0755 -0.4125
17360THY    HM230083   2.423   8.693   2.027 -0.9906  0.0843 -0.2465
17360THY    HM330084   2.394   8.799   1.888  0.6834 -1.1079 -2.6896
17360THY    CA630085   2.678   8.791   1.914  0.5465  0.5902 -0.6557
17360THY    HA630086   2.654   8.729   1.828  0.7165 -1.1829  1.6355
17361THY      O30087   8.959   0.736   7.189 -0.1012 -0.3697 -0.7212
17361THY     HO30088   8.932   0.696   7.104  1.1836 -2.4901  2.5269
17361THY    CA130089   9.093   0.704   7.199  0.7990 -0.2412  0.3728
17361THY    CA230090   9.172   0.740   7.307 -0.1330 -0.7697 -0.0972
17361THY    CP130091   9.113   0.826   7.418  0.5248  0.3998 -0.2590
17361THY    HP130092   9.030   0.874   7.364  2.4930 -0.3959  2.4691
17361THY    CP230093   9.202   0.941   7.472  0.2831  0.0229 -0.3415
17361THY    HP230094   9.154   1.002   7.550  0.2517  0.1792 -0.5659
17361THY    HP330095   9.231   1.007   7.389 -1.9214 -1.4422 -1.0832
17361THY    HP430096   9.289   0.890   7.513  0.2483  0.6675  0.1060
17361THY    CP330097   9.059   0.750   7.542  0.3984 -0.3921  0.1082
17361THY    HP530098   9.048   0.826   7.621 -1.0457 -0.0522 -0.4232
17361THY    HP630099   9.139   0.680   7.569  1.6995  0.2771  1.7788
17361THY    HP730100   8.959   0.710   7.522  0.6976 -0.1776 -0.7522
17361THY    CA330101   9.306   0.694   7.323  0.2255  0.3630 -0.0145
17361THY    HA330102   9.360   0.716   7.414  1.3679 -0.8717  2.8097
17361THY    CA430103   9.367   0.624   7.220 -0.1746 -0.0293  0.0153
17361THY    HA430104   9.469   0.588   7.223 -0.1192  0.5343  0.2075
17361THY    CA530105   9.287   0.592   7.103 -0.5084 -0.2826 -0.4977
17361THY    CM130106   9.343   0.513   6.993 -0.0890  0.2197  0.0160
17361THY    HM130107   9.302   0.412   6.993  0.1412 -0.6723 -0.0830
17361THY    HM230108   9.450   0.495   7.008 -0.1803  0.3657 -0.4184
17361THY    HM330109   9.335   0.557   6.893 -0.2731 -0.1707 -0.8965
17361THY    CA630110   9.147   0.617   7.104 -0.5581 -0.2483  0.4300
17361THY    HA630111   9.088   0.582   7.020  0.5396 -0.5911 -0.6722
17362THY      O30112   9.103   4.602   4.434  0.2108  0.0982  0.6593
17362THY     HO30113   9.173   4.670   4.437  1.4995 -0.2773 -0.6081
17362THY    CA130114   9.135   4.514   4.522 -0.6719  0.2829  0.1623
17362THY    CA230115   9.069   4.389   4.536 -0.2658  0.6857 -0.6944
17362THY    CP130116   8.956   4.343   4.439  0.2863  0.2660 -0.0215
17362THY    HP130117   8.921   4.420   4.370 -1.8616  0.5186 -0.7083
17362THY    CP230118   8.836   4.300   4.536  0.2669  1.3781  0.0475
17362THY    HP230119   8.756   4.261   4.472  0.2419  1.8609 -0.7012
17362THY    HP330120   8.793   4.385   4.591 -1.9369 -1.3238  0.8517
17362THY    HP430121   8.864   4.217   4.601  0.6610 -0.5834 -1.4370
17362THY    CP330122   9.011   4.232   4.344  0.9386 -0.1168  0.2221
17362THY    HP530123   9.021   4.132   4.386 -0.4123 -1.0450 -0.3312
17362THY    HP630124   9.114   4.260   4.321  1.6655 -0.5574 -2.5212
17362THY    HP730125   8.945   4.229   4.256  0.2284  0.2753  2.2747
17362THY    CA330126   9.133   4.287   4.617 -0.7222  0.1069 -0.6037
17362THY    HA330127   9.094   4.186   4.618 -1.7345  1.4641 -0.2226
17362THY    CA430128   9.253   4.322   4.694  1.1721 -0.5747  0.3266
17362THY    HA430129   9.302   4.257   4.766 -0.2960 -0.8116 -1.1190
17362THY    CA530130   9.305   4.446   4.676  0.5135  0.0716 -0.6139
17362THY    CM130131   9.425   4.488   4.755 -0.6858  0.8456  0.3309
17362THY    HM130132   9.426   4.433   4.849  2.3312  1.4006  1.1632
17362THY    HM230133   9.432   4.597   4.770 -2.0178  1.9619  0.2947
17362THY    HM330134   9.514   4.456   4.700 -0.1917  0.9623  1.4392
17362THY    CA630135   9.244   4.544   4.604 -0.0377 -0.1630 -0.9403
17362THY    HA630136   9.302   4.636   4.603  1.0899  1.3477 -1.5900
17363THY      O30137   0.348   0.732   6.092 -0.1843  0.5219 -0.2978
17363THY     HO30138   0.355   0.788   6.012  3.1296  0.9790  0.1510
17363THY    CA130139   0.434   0.785   6.193 -0.8501  0.2241  0.7044
17363THY    CA230140   0.421   0.748   6.330 -0.2783  0.0909 -0.2577
17363THY    CP130141   0.307   0.655   6.364 -0.2724 -0.3162 -0.4207
17363THY    HP130142   0.235   0.663   6.282  0.2482 -0.7017  0.5065
17363THY    CP230143   0.227   0.691   6.498  0.4442 -0.1360  0.1447
17363THY    HP230144   0.299   0.701   6.579  1.2596 -0.6356 -1.3275
17363THY    HP330145   0.152   0.614   6.521 -1.5763 -0.2987  1.9562
17363THY    HP430146   0.158   0.776   6.492 -2.6183 -0.9121 -2.1825
17363THY    CP330147   0.355   0.510   6.367 -0.4196  0.0855 -0.3586
17363THY    HP530148   0.443   0.484   6.428 -0.0766 -0.7046 -1.1041
17363THY    HP630149   0.382   0.476   6.266  0.0463  0.6453 -1.7438
17363THY    HP730150   0.272   0.446   6.401 -0.1135 -0.2284 -0.9318
17363THY    CA330151   0.513   0.810   6.423 -0.4859 -0.6786  0.9485
17363THY    HA330152   0.503   0.787   6.529 -0.8156 -1.0267 -0.6212
17363THY    CA430153   0.608   0.902   6.372 -0.7192  0.4460  0.0454
17363THY    HA430154   0.668   0.961   6.441 -1.0324 -0.3566  1.3665
17363THY    CA530155   0.640   0.925   6.236 -0.1282 -0.1814 -0.5739
17363THY    CM130156   0.732   1.037   6.185  0.5142 -0.4585  0.1250
17363THY    HM130157   0.822   0.997   6.137  1.5707 -1.1084  2.9990
17363THY    HM230158   0.749   1.105   6.269  0.4108 -0.2125 -0.1498
17363THY    HM330159   0.685   1.087   6.099 -0.6317  0.3990  0.5744
17363THY    CA630160   0.540   0.872   6.149 -0.1366 -0.4257 -0.1213
17363THY    HA630161   0.539   0.901   6.044  0.4732 -0.0473  1.3639
17364THY      O30162   3.619   8.954   5.856  0.2885  0.6807 -0.0348
17364THY     HO30163   3.694   8.983   5.802 -0.8298  0.4282  2.6067
17364THY    CA130164   3.533   9.055   5.870  0.3454 -0.1024  0.9324
17364THY    CA230165   3.392   9.026   5.887 -0.2466 -0.2644 -0.8152
17364THY    CP130166   3.337   8.883   5.876  0.4696 -0.1815 -0.3782
17364THY    HP130167   3.409   8.804   5.850 -1.6429  2.7321 -3.5479
17364THY    CP230168   3.244   8.868   5.760 -0.3779 -0.4125  0.1524
17364THY    HP230169   3.293   8.917   5.675 -1.6893  0.6117  3.5273
17364THY    HP330170   3.150   8.918   5.787 -1.1635 -0.8131 -1.0760
17364THY    HP430171   3.227   8.762   5.740  0.0360 -1.0806  0.2067
17364THY    CP330172   3.269   8.834   6.014 -0.4113  0.3920  0.0550
17364THY    HP530173   3.185   8.766   5.994 -0.0478 -2.8153  0.3864
17364THY    HP630174   3.252   8.925   6.072  0.8446  0.5120  0.2217
17364THY    HP730175   3.339   8.777   6.075 -0.0061  0.9154  1.0986
17364THY    CA330176   3.302   9.131   5.892 -0.0531  0.1224  0.0799
17364THY    HA330177   3.196   9.106   5.895 -0.0368 -0.9843 -0.1598
17364THY    CA430178   3.347   9.260   5.885  0.2256  0.5801  0.1662
17364THY    HA430179   3.277   9.342   5.891  1.1556  1.4612  0.9196
17364THY    CA530180   3.485   9.292   5.873 -1.3021 -0.1857  0.6959
17364THY    CM130181   3.535   9.432   5.871 -0.4094 -0.0075 -0.1548
17364THY    HM130182   3.462   9.495   5.819 -0.9425  0.7279 -0.1522
17364THY    HM230183   3.624   9.435   5.806  0.7899  1.5842  1.2828
17364THY    HM330184   3.565   9.479   5.966  1.2102  0.3190 -1.6995
17364THY    CA630185   3.578   9.188   5.878  0.2075 -0.2977  0.2059
17364THY    HA630186   3.685   9.208   5.872  0.4952  0.1911 -1.1386
17365THY      O30187   0.481   7.972   7.059 -0.1616  0.4795 -0.1842
17365THY     HO30188   0.521   7.978   6.971 -1.1639  0.0852  1.1780
17365THY    CA130189   0.437   8.099   7.084 -0.2449 -0.8112 -0.4683
17365THY    CA230190   0.419   8.160   7.214 -0.3333 -0.2483  0.1487
17365THY    CP130191   0.461   8.086   7.340 -0.5464  0.2635 -0.1186
17365THY    HP130192   0.477   7.980   7.316 -1.0069 -0.4185 -0.0413
17365THY    CP230193   0.349   8.091   7.453 -0.0722 -0.3833 -0.6758
17365THY    HP230194   0.362   8.016   7.532  2.2958 -0.1068 -0.0467
17365THY    HP330195   0.247   8.093   7.412  0.0148 -0.6380  2.5328
17365THY    HP430196   0.361   8.191   7.494  0.3500 -1.1610 -0.4000
17365THY    CP330197   0.597   8.136   7.396  0.0724  0.2161  0.3610
17365THY    HP530198   0.686   8.109   7.339  0.2357  1.0842 -1.0155
17365THY    HP630199   0.610   8.076   7.487 -0.1849  1.0165  1.4710
17365THY    HP730200   0.597   8.243   7.423 -1.2233  1.8342 -0.0076
17365THY    CA330201   0.362   8.291   7.229 -0.0655 -0.1754  0.5197
17365THY    HA330202   0.340   8.325   7.329 -1.4321  0.3092 -1.5680
17365THY    CA430203   0.307   8.349   7.113  0.3960  0.2569  0.1459
17365THY    HA430204   0.262   8.447   7.124  2.4230  1.7077  0.9947
17365THY    CA530205   0.321   8.283   6.995  0.1237  0.4359 -0.1758
17365THY    CM130206   0.249   8.327   6.867 -0.8331 -0.4112  0.3050
17365THY    HM130207   0.320   8.332   6.785 -0.0011  0.2066 -0.8361
17365THY    HM230208   0.194   8.420   6.885 -1.2754  0.4497 -0.1040
17365THY    HM330209   0.169   8.256   6.843  0.9049 -2.9352 -0.9357
17365THY    CA630210   0.387   8.161   6.976  0.1190 -0.0393  0.2442
17365THY    HA630211   0.380   8.113   6.878 -1.9373 -0.3905  1.1686
17366THY      O30212   2.527   7.030   7.058  0.4763 -0.3422 -0.1536
17366THY     HO30213   2.446   7.031   7.111  1.1868  0.8114 -1.2122
17366THY    CA130214   2.603   6.924   7.102 -0.0838  0.0122  0.2659
17366THY    CA230215   2.741   6.912   7.088 -0.2044  0.7234 -1.0236
17366THY    CP130216   2.813   7.024   7.003 -0.3061  0.1676 -0.5547
17366THY    HP130217   2.737   7.096   6.972  0.0973  1.0437  0.2700
17366THY    CP230218   2.881   6.970   6.878  0.1288  0.0497  0.7665
17366THY    HP230219   2.806   6.924   6.813 -0.3765  0.9163  0.3353
17366THY    HP330220   2.954   6.891   6.897 -1.5794  2.5681 -0.3694
17366THY    HP430221   2.917   7.058   6.824 -0.0870 -0.2663  0.6585
17366THY    CP330222   2.926   7.091   7.096 -0.2419  0.4106  0.0225
17366THY    HP530223   2.888   7.095   7.199 -0.2256  0.4522 -0.7619
17366THY    HP630224   2.963   7.188   7.060  1.0779  0.4964 -0.4265
17366THY    HP730225   3.011   7.022   7.092 -1.8573 -2.0088 -2.0146
17366THY    CA330226   2.814   6.816   7.153  0.2272  1.2537  0.6159
17366THY    HA330227   2.922   6.820   7.159  0.5298 -0.1673 -2.3327
17366THY    CA430228   2.750   6.720   7.237  0.5354  0.3795  0.1008
17366THY    HA430229   2.803   6.647   7.297  0.5373 -0.4935 -0.6383
17366THY    CA530230   2.603   6.717   7.251 -0.2290 -0.2549 -0.1990
17366THY    CM130231   2.535   6.614   7.334 -0.2932 -0.2238 -0.1448
17366THY    HM130232   2.547   6.644   7.438 -2.5262  0.1866 -0.4936
17366THY    HM230233   2.583   6.516   7.342 -1.3124 -3.3328 -1.0372
17366THY    HM330234   2.428   6.593   7.317 -0.1680  0.8714 -1.8021
17366THY    CA630235   2.537   6.817   7.173 -0.5778 -0.1947 -0.3155
17366THY    HA630236   2.431   6.825   7.197  0.0107  1.9573  2.5366
17367THY      O30237   6.045   6.613   3.468  0.1405  0.1676 -0.3392
17367THY     HO30238   6.011   6.530   3.430  3.2854 -2.8702 -0.4489
17367THY    CA130239   6.071   6.603   3.600  0.0217 -0.0001  0.3728
17367THY    CA230240   6.082   6.719   3.682 -0.2624  0.0754 -0.0783
17367THY    CP130241   6.087   6.862   3.622  0.0077 -0.7313  0.8772
17367THY    HP130242   6.093   6.846   3.514 -1.5754 -0.9783  1.6921
17367THY    CP230243   6.204   6.953   3.669  0.3631  0.7449  0.0664
17367THY    HP230244   6.189   7.008   3.763  2.7959  0.1675  1.8910
17367THY    HP330245   6.221   7.031   3.595 -0.4344  2.0848  1.5773
17367THY    HP430246   6.295   6.894   3.682  1.1758  0.7550  1.2833
17367THY    CP330247   5.950   6.917   3.651 -0.8102  0.7317 -0.1101
17367THY    HP530248   5.928   6.905   3.757 -2.1788  0.9104  3.0621
17367THY    HP630249   5.875   6.863   3.590 -1.1671  0.2047  0.9467
17367THY    HP730250   5.948   7.023   3.622 -0.9889  0.2478 -0.2403
17367THY    CA330251   6.087   6.708   3.820 -0.1209  0.0480 -0.4411
17367THY    HA330252   6.119   6.786   3.888  0.3723  0.9673 -1.4353
17367THY    CA430253   6.079   6.585   3.877  0.1671 -0.1392 -0.1029
17367THY    HA430254   6.106   6.574   3.982 -0.0811 -0.0553  0.0656
17367THY    CA530255   6.060   6.469   3.798 -0.9118 -0.4682  0.2833
17367THY    CM130256   6.050   6.333   3.863 -0.5032  0.5702  0.2600
17367THY    HM130257   5.953   6.282   3.850  0.1772  0.4309 -1.0500
17367THY    HM230258   6.069   6.355   3.968  2.1047 -0.0434  1.2912
17367THY    HM330259   6.137   6.268   3.845  0.4961  2.1116  1.1121
17367THY    CA630260   6.053   6.478   3.665  0.2488  0.2129 -0.0060
17367THY    HA630261   6.030   6.385   3.613 -1.8425 -0.6467  0.9225
17368THY      O30262   3.371   3.944   5.101 -0.0997  0.1262  0.6205
17368THY     HO30263   3.342   3.868   5.155  1.2991 -0.9346 -0.7468
17368THY    CA130264   3.266   4.001   5.053 -0.7178  0.1393  0.0429
17368THY    CA230265   3.271   4.136   5.001  0.0099 -0.7786 -0.1088
17368THY    CP130266   3.406   4.212   4.997 -0.1659  0.2565 -0.4615
17368THY    HP130267   3.491   4.144   4.980 -0.2263 -0.7649 -0.2895
17368THY    CP230268   3.439   4.265   5.136 -0.6564  0.2860 -0.2319
17368THY    HP230269   3.539   4.307   5.149 -1.3314  0.4083  1.4016
17368THY    HP330270   3.427   4.190   5.215 -1.0131 -1.1323 -1.7232
17368THY    HP430271   3.366   4.344   5.158 -0.1467  1.0526  0.0349
17368THY    CP330272   3.412   4.320   4.889 -0.4019  0.6582 -0.2912
17368THY    HP530273   3.341   4.397   4.920 -1.6548 -2.3257 -0.0982
17368THY    HP630274   3.379   4.296   4.787  1.1523 -0.2430  1.1514
17368THY    HP730275   3.515   4.356   4.893 -0.2572 -4.8644  0.7917
17368THY    CA330276   3.155   4.191   4.958 -0.3260  0.2319 -0.5033
17368THY    HA330277   3.144   4.294   4.926 -0.2679  2.1303  0.1150
17368THY    CA430278   3.031   4.118   4.954  0.1228 -0.0815 -0.1981
17368THY    HA430279   2.940   4.163   4.917  0.2011  0.0959  0.1127
17368THY    CA530280   3.029   3.983   4.992 -0.4698 -0.6826 -0.0683
17368THY    CM130281   2.897   3.902   5.006 -0.1459 -0.0246  0.2356
17368THY    HM130282   2.865   3.893   5.110  1.8070  0.5980  0.1117
17368THY    HM230283   2.922   3.803   4.966 -0.5785  1.2288 -0.3949
17368THY    HM330284   2.817   3.954   4.953 -0.0891  1.0952  1.5078
17368THY    CA630285   3.152   3.925   5.036  0.0487 -0.3711  0.0691
17368THY    HA630286   3.147   3.821   5.070  1.1697 -0.6545 -0.0858
17369THY      O30287   8.804   9.387   6.010 -0.2748 -0.2245  0.3818
17369THY     HO30288   8.748   9.371   6.088 -1.1281 -0.7859  0.6220
17369THY    CA130289   8.819   9.270   5.949  0.3242 -0.5060 -0.1694
17369THY    CA230290   8.842   9.264   5.813 -0.5877  0.4131 -0.1943
17369THY    CP130291   8.873   9.388   5.715 -0.0642 -0.2265 -0.5313
17369THY    HP130292   8.863   9.478   5.776 -2.1304 -1.8689  0.4171
17369THY    CP230293   8.761   9.397   5.610  0.4550  0.1813  0.2149
17369THY    HP230294   8.757   9.499   5.571 -1.0766  1.1276  0.5472
17369THY    HP330295   8.666   9.378   5.660 -0.3814 -1.3630  0.2338
17369THY    HP430296   8.774   9.320   5.533 -0.5480 -0.7588  0.9498
17369THY    CP330297   9.016   9.384   5.654 -0.2514  0.4820 -0.1492
17369THY    HP530298   9.092   9.407   5.729 -0.6995  0.3688  1.8467
17369THY    HP630299   9.024   9.475   5.593 -2.9777  1.1024  0.5829
17369THY    HP730300   9.049   9.295   5.599 -1.1744 -1.6258  0.7501
17369THY    CA330301   8.837   9.133   5.745  0.0037 -0.6259 -0.5026
17369THY    HA330302   8.847   9.118   5.638 -1.0543 -0.8095  0.0403
17369THY    CA430303   8.824   9.015   5.828  0.1692  0.0695  0.4599
17369THY    HA430304   8.815   8.913   5.793 -0.2464  0.3855  0.3822
17369THY    CA530305   8.811   9.028   5.971  0.7208  0.0219  0.3050
17369THY    CM130306   8.802   8.906   6.059 -0.4427  0.1805  0.5717
17369THY    HM130307   8.727   8.915   6.138 -1.4884 -0.6200 -0.7689
17369THY    HM230308   8.895   8.893   6.116 -0.6576  0.5700  0.7335
17369THY    HM330309   8.774   8.816   6.004 -0.4014  0.2315  0.5282
17369THY    CA630310   8.811   9.160   6.029 -0.6028 -0.1720 -0.3755
17369THY    HA630311   8.809   9.168   6.137 -1.2329 -0.1208 -1.0838
17370THY      O30312   6.166   5.515   6.771  0.2759 -0.1459  0.6906
17370THY     HO30313   6.187   5.563   6.689  3.1113  0.3112  0.4161
17370THY    CA130314   6.033   5.487   6.771 -0.0557  0.5895 -0.0419
17370THY    CA230315   5.970   5.381   6.839 -0.3116  0.5115  0.0169
17370THY    CP130316   6.060   5.290   6.919  0.3842  0.2262 -0.0399
17370THY    HP130317   6.163   5.325   6.932  0.6403 -0.3191 -0.5740
17370THY    CP230318   6.066   5.152   6.855 -0.6553 -0.7056  0.4306
17370THY    HP230319   5.966   5.107   6.851 -0.7903 -0.4787  0.7091
17370THY    HP330320   6.132   5.088   6.914 -1.2419  0.9025  1.2414
17370THY    HP430321   6.095   5.160   6.750 -0.6746 -0.7838 -0.4798
17370THY    CP330322   6.009   5.261   7.063 -0.6534 -0.6208  0.3123
17370THY    HP530323   5.926   5.190   7.073 -0.7373 -1.5386  0.2702
17370THY    HP630324   5.975   5.354   7.110  1.4040  2.5197 -0.3602
17370THY    HP730325   6.091   5.216   7.121  0.3014  0.3280  3.0893
17370THY    CA330326   5.827   5.371   6.847  0.0830  0.6994  0.2890
17370THY    HA330327   5.778   5.289   6.899 -0.8974 -0.0884  0.3520
17370THY    CA430328   5.753   5.480   6.800  0.8737 -0.0738  0.3687
17370THY    HA430329   5.645   5.480   6.810  0.5657 -2.2437  2.9116
17370THY    CA530330   5.817   5.582   6.730 -0.1045  0.1249 -0.0654
17370THY    CM130331   5.746   5.695   6.662  0.3848 -0.0182 -0.5012
17370THY    HM130332   5.643   5.673   6.631  0.9131 -3.2684  1.0288
17370THY    HM230333   5.807   5.743   6.585  2.0983  2.9813  2.5920
17370THY    HM330334   5.729   5.766   6.744 -0.7692 -1.1921  0.6264
17370THY    CA630335   5.954   5.583   6.712 -0.4767 -0.0631 -0.4075
17370THY    HA630336   6.002   5.670   6.668  1.6853 -2.2024 -2.5318
17371THY      O30337   5.305   1.666   5.657 -0.0298  0.0172 -0.5123
17371THY     HO30338   5.212   1.678   5.685 -0.0778 -0.3585  0.0282
17371THY    CA130339   5.296   1.569   5.563  0.1230  0.5586 -0.9401
17371THY    CA230340   5.403   1.522   5.489 -0.3471 -0.3846  0.4450
17371THY    CP130341   5.545   1.563   5.522 -0.3114  0.6481  0.0575
17371THY    HP130342   5.547   1.642   5.599  1.7161  0.4461  0.2637
17371THY    CP230343   5.619   1.627   5.405 -0.5763  0.5796  0.1988
17371THY    HP230344   5.714   1.668   5.442  1.6188 -0.7408 -3.2557
17371THY    HP330345   5.567   1.705   5.348 -0.5714  0.6970  0.2892
17371THY    HP430346   5.665   1.549   5.343  1.7808  2.8877 -0.4159
17371THY    CP330347   5.627   1.450   5.589 -0.8322 -0.3883  0.3106
17371THY    HP530348   5.697   1.399   5.522 -0.6250 -0.1463  0.2769
17371THY    HP630349   5.569   1.377   5.645  2.1440  0.4500 -1.5604
17371THY    HP730350   5.704   1.494   5.653 -0.5626 -0.8825  0.5708
17371THY    CA330351   5.391   1.425   5.384 -0.6350 -0.1575 -0.1226
17371THY    HA330352   5.477   1.400   5.322 -0.8419 -0.3337 -0.3881
17371THY    CA430353   5.260   1.384   5.354 -0.1066  0.5948  0.1782
17371THY    HA430354   5.238   1.305   5.283  0.8785 -0.7154  1.0343
17371THY    CA530355   5.152   1.423   5.434 -0.3270 -0.6924 -0.0491
17371THY    CM130356   5.009   1.362   5.421  0.0052 -0.5853 -0.0630
17371THY    HM130357   4.935   1.440   5.444  1.7424  0.6333  1.3336
17371THY    HM230358   5.010   1.271   5.481 -0.2775  0.4463  0.5953
17371THY    HM330359   4.987   1.342   5.316 -1.5939 -0.4516  0.7832
17371THY    CA630360   5.167   1.524   5.529  0.5217 -0.4928 -0.7876
17371THY    HA630361   5.080   1.551   5.589  1.9622  0.3058  2.5634
17372THY      O30362   1.070   2.361   5.039 -0.2986 -0.0920 -0.1712
17372THY     HO30363   1.025   2.275   5.037 -0.2069 -3.0136 -0.2557
17372THY    CA130364   0.973   2.446   5.000 -0.4244  0.2885 -0.4190
17372THY    CA230365   0.999   2.567   4.938  0.1132 -0.4692 -1.2586
17372THY    CP130366   1.143   2.620   4.923  0.0989 -0.0634  0.4668
17372THY    HP130367   1.216   2.544   4.954 -1.4172  1.5269 -0.4233
17372THY    CP230368   1.165   2.760   4.984 -0.0106 -0.5160  0.4102
17372THY    HP230369   1.121   2.839   4.922  1.2164 -2.2128 -0.1805
17372THY    HP330370   1.271   2.778   5.007 -0.5853  1.9341  1.0415
17372THY    HP430371   1.120   2.752   5.084  1.3242  0.1742  1.1750
17372THY    CP330372   1.172   2.645   4.776 -0.2210  0.7473 -0.1335
17372THY    HP530373   1.272   2.689   4.765 -0.6564 -1.5761  0.4528
17372THY    HP630374   1.090   2.704   4.732 -2.9954  2.3418 -2.5462
17372THY    HP730375   1.168   2.555   4.714 -1.9293 -1.1562  1.1442
17372THY    CA330376   0.894   2.648   4.905 -0.0013  0.0388 -0.7137
17372THY    HA330377   0.905   2.744   4.855 -3.6686 -1.2872 -0.8459
17372THY    CA430378   0.761   2.615   4.948 -0.1306  0.0986 -0.1287
17372THY    HA430379   0.686   2.689   4.923 -0.3611 -0.7374 -0.6361
17372THY    CA530380   0.731   2.494   5.018 -0.1334  0.4288 -0.4238
17372THY    CM130381   0.592   2.450   5.065 -0.5700 -0.1465  0.5378
17372THY    HM130382   0.565   2.492   5.163 -0.1728 -1.1573  3.3260
17372THY    HM230383   0.598   2.341   5.073  0.5434  2.9778  0.7207
17372THY    HM330384   0.520   2.490   4.993 -0.6140  0.9334  2.5436
17372THY    CA630385   0.844   2.410   5.035  0.1769  0.8375  0.0164
17372THY    HA630386   0.826   2.318   5.089 -0.4259 -1.4653 -1.2976
17373THY      O30387   6.290   0.591   4.668 -0.2347 -0.0702 -0.2368
17373THY     HO30388   6.237   0.517   4.634  0.0070 -0.1306 -0.3833
17373THY    CA130389   6.234   0.707   4.626 -0.0926 -0.7179 -0.0904
17373THY    CA230390   6.301   0.826   4.633 -0.8285 -0.3067  0.3511
17373THY    CP130391   6.433   0.838   4.701  0.1721 -0.6020  0.5269
17373THY    HP130392   6.464   0.743   4.746 -0.7627  0.8732  0.8882
17373THY    CP230393   6.434   0.953   4.805  0.0735 -0.0149 -0.0188
17373THY    HP230394   6.377   0.924   4.895  1.5792  1.1451  0.4781
17373THY    HP330395   6.399   1.055   4.782  1.7782  1.3815  0.9463
17373THY    HP430396   6.537   0.967   4.840 -0.6238  2.1073  0.3334
17373THY    CP330397   6.537   0.871   4.598  0.4998 -0.5349 -0.2573
17373THY    HP530398   6.632   0.898   4.644 -0.6339  0.8828  1.5486
17373THY    HP630399   6.504   0.958   4.539 -3.0750  1.2910 -0.1833
17373THY    HP730400   6.544   0.790   4.524 -2.1426 -1.1613 -0.0020
17373THY    CA330401   6.233   0.940   4.597  0.4433  0.2732  0.9383
17373THY    HA330402   6.284   1.036   4.591  1.1396  0.0801  0.5569
17373THY    CA430403   6.099   0.936   4.557  0.4679  0.1474 -0.7258
17373THY    HA430404   6.040   1.025   4.540 -0.4419 -2.3301 -1.7060
17373THY    CA530405   6.029   0.816   4.556 -0.2496 -0.2667  0.2831
17373THY    CM130406   5.882   0.810   4.517  0.0724  0.0751  0.3725
17373THY    HM130407   5.877   0.858   4.418  2.1013 -0.2923 -0.0929
17373THY    HM230408   5.820   0.864   4.589  1.0522 -0.7779  2.7616
17373THY    HM330409   5.847   0.706   4.515 -0.0777  1.7061  0.3746
17373THY    CA630410   6.105   0.701   4.583 -0.0587 -0.2716  0.3413
17373THY    HA630411   6.061   0.603   4.572  1.1574  1.0454 -0.3897
17374THY      O30412   2.875   6.425   5.512  0.1275 -0.5499  0.2080
17374THY     HO30413   2.943   6.429   5.443  0.7273  0.0549  0.7474
17374THY    CA130414   2.783   6.516   5.498 -0.6556 -0.0067 -0.2584
17374THY    CA230415   2.679   6.530   5.585 -0.3080  0.2560  0.4604
17374THY    CP130416   2.661   6.429   5.693 -0.3012  0.0023 -0.0318
17374THY    HP130417   2.760   6.417   5.739  0.5685 -1.6792  0.4568
17374THY    CP230418   2.617   6.293   5.635  0.0942 -0.1615  0.0236
17374THY    HP230419   2.632   6.207   5.702 -0.7904  0.5693  0.4288
17374THY    HP330420   2.668   6.270   5.541 -1.1469 -0.7589 -0.3560
17374THY    HP430421   2.511   6.285   5.610 -0.3503  1.5815 -0.0907
17374THY    CP330422   2.564   6.465   5.806  0.3821 -0.0741 -0.4057
17374THY    HP530423   2.602   6.548   5.866  3.7295 -0.2285 -1.6576
17374THY    HP630424   2.545   6.381   5.875 -6.3225 -1.5745 -0.6422
17374THY    HP730425   2.459   6.479   5.778 -0.5078  2.1508 -1.9325
17374THY    CA330426   2.586   6.639   5.565  0.0055 -0.0089 -0.0727
17374THY    HA330427   2.495   6.643   5.623  0.6822  1.0422  0.9994
17374THY    CA430428   2.610   6.732   5.464  0.2097  1.1060  0.1799
17374THY    HA430429   2.532   6.807   5.450 -0.0573  1.5593 -0.0040
17374THY    CA530430   2.716   6.725   5.383 -0.4792 -0.1157 -0.3150
17374THY    CM130431   2.740   6.829   5.279 -0.3792  0.3592 -0.2365
17374THY    HM130432   2.649   6.856   5.225 -1.4137  1.0992 -2.0813
17374THY    HM230433   2.805   6.784   5.203  1.9972  1.4262  1.1912
17374THY    HM330434   2.801   6.913   5.315  1.0235 -2.3577  0.0138
17374THY    CA630435   2.810   6.617   5.403  0.6719 -0.0342 -0.2374
17374THY    HA630436   2.898   6.611   5.341 -0.1153 -1.0640 -1.7931
17375THY      O30437   2.494   4.440   3.037  0.2521  0.0749  0.4111
17375THY     HO30438   2.467   4.485   3.119  0.8018  0.9627 -0.8516
17375THY    CA130439   2.573   4.536   2.983 -0.3960  0.2412 -0.2749
17375THY    CA230440   2.603   4.552   2.846 -0.5707 -0.4997  0.1464
17375THY    CP130441   2.537   4.458   2.741 -0.6001  0.4718  0.6530
17375THY    HP130442   2.448   4.406   2.778 -0.4141  0.1259  0.0835
17375THY    CP230443   2.646   4.348   2.701  0.3114  0.1959 -0.4609
17375THY    HP230444   2.732   4.401   2.660 -0.1552  1.2439  1.1982
17375THY    HP330445   2.613   4.277   2.624  0.3540 -1.0084  0.7822
17375THY    HP430446   2.668   4.292   2.793  0.5554  1.4153  1.5385
17375THY    CP330447   2.501   4.541   2.614 -0.6829  1.2990  1.0979
17375THY    HP530448   2.434   4.620   2.650 -1.2571  0.7183  0.8814
17375THY    HP630449   2.442   4.489   2.538 -1.0969  3.0951 -1.1717
17375THY    HP730450   2.590   4.588   2.570  0.3791  2.8633  0.6402
17375THY    CA330451   2.713   4.628   2.809  0.3161  0.2717 -0.6973
17375THY    HA330452   2.747   4.620   2.706  0.1952  0.3027 -1.7060
17375THY    CA430453   2.772   4.720   2.903 -0.8526  0.5394  0.2020
17375THY    HA430454   2.851   4.786   2.867  0.6520  0.4884 -1.5316
17375THY    CA530455   2.726   4.725   3.034  0.7502  0.2620 -0.2069
17375THY    CM130456   2.779   4.819   3.135  0.2939 -0.1135 -0.3744
17375THY    HM130457   2.817   4.778   3.229 -0.6562 -0.6753 -2.6891
17375THY    HM230458   2.710   4.900   3.160  1.7396 -0.0143  0.8797
17375THY    HM330459   2.856   4.885   3.092 -0.8313  2.5315  2.9300
17375THY    CA630460   2.624   4.628   3.074 -0.1312  0.2120 -1.2108
17375THY    HA630461   2.610   4.624   3.181  0.6547  0.3543 -0.4238
17376THY      O30462   1.499   9.426   4.760 -0.4131 -0.5692  0.0505
17376THY     HO30463   1.486   9.515   4.797 -0.5221 -2.6760  0.9627
17376THY    CA130464   1.596   9.360   4.833  0.1340  0.6115 -0.1994
17376THY    CA230465   1.576   9.236   4.886  0.1111  0.3947  0.4320
17376THY    CP130466   1.439   9.165   4.872  0.2319 -0.5283 -0.2949
17376THY    HP130467   1.372   9.208   4.797  0.4904 -1.0109 -0.7245
17376THY    CP230468   1.360   9.180   5.004  0.1824  0.4022  0.4847
17376THY    HP230469   1.278   9.107   5.010 -0.8272 -0.1700  1.5186
17376THY    HP330470   1.317   9.281   4.994  0.1596 -1.7710  0.3055
17376THY    HP430471   1.429   9.172   5.088 -0.8764  1.1448 -1.4533
17376THY    CP330472   1.454   9.017   4.837 -0.3823  0.5325  0.0160
17376THY    HP530473   1.521   8.964   4.906  0.4877  0.7521  1.3599
17376THY    HP630474   1.492   8.999   4.736 -0.5390  0.1247  1.7683
17376THY    HP730475   1.352   8.979   4.851 -0.7212  1.0294  1.0697
17376THY    CA330476   1.681   9.174   4.969  0.6115  0.3386  0.6819
17376THY    HA330477   1.655   9.078   5.012  1.2520 -1.9695 -0.6119
17376THY    CA430478   1.798   9.239   4.987  0.7260 -1.2429 -0.0184
17376THY    HA430479   1.877   9.202   5.052  0.6441  0.2691  2.2319
17376THY    CA530480   1.821   9.358   4.921  0.1072 -0.2240 -0.9348
17376THY    CM130481   1.958   9.420   4.931  0.4310  0.0191 -0.3697
17376THY    HM130482   1.969   9.525   4.903  2.2598 -2.3177 -1.1152
17376THY    HM230483   2.026   9.370   4.862  0.5848 -0.4088  0.4258
17376THY    HM330484   2.005   9.412   5.030 -0.9383  0.6042 -1.8476
17376THY    CA630485   1.718   9.429   4.859  0.4651 -0.0559  0.3152
17376THY    HA630486   1.733   9.522   4.805  0.2315 -2.2237 -0.8327
17377THY      O30487   6.243   9.339   5.894 -0.1235  0.0053 -0.9029
17377THY     HO30488   6.223   9.291   5.812  1.9125 -2.0575  1.4401
17377THY    CA130489   6.311   9.253   5.970 -0.2776 -0.0193  0.5343
17377THY    CA230490   6.319   9.250   6.112 -0.4273  0.2445  0.0677
17377THY    CP130491   6.226   9.342   6.187  0.2923 -0.1984  0.0892
17377THY    HP130492   6.149   9.382   6.120 -0.5970  1.1986  0.8443
17377THY    CP230493   6.298   9.463   6.240 -0.5670 -0.6025 -0.2126
17377THY    HP230494   6.232   9.550   6.245 -0.7068  0.7665 -0.3772
17377THY    HP330495   6.388   9.488   6.182 -1.1019 -0.7326  1.6049
17377THY    HP430496   6.348   9.445   6.336 -1.0834 -0.3019 -0.0535
17377THY    CP330497   6.172   9.284   6.325 -0.2977  0.1678 -0.1381
17377THY    HP530498   6.111   9.362   6.374  0.3001  0.4413  0.1613
17377THY    HP630499   6.245   9.256   6.401 -0.0326 -0.7395 -2.0419
17377THY    HP730500   6.110   9.196   6.307 -0.1494 -0.7713 -0.0634
17377THY    CA330501   6.406   9.160   6.173  0.0831 -0.1918 -0.2678
17377THY    HA330502   6.415   9.147   6.280 -2.1235 -0.2140 -2.7921
17377THY    CA430503   6.495   9.084   6.097  0.2386  0.5901 -0.5835
17377THY    HA430504   6.572   9.027   6.147  1.8224  1.4198  2.1113
17377THY    CA530505   6.498   9.098   5.956  0.6655 -0.6423 -0.9738
17377THY    CM130506   6.594   9.031   5.874  0.6128 -0.0364  0.2202
17377THY    HM130507   6.605   9.071   5.773 -1.2976 -0.8617 -1.1405
17377THY    HM230508   6.564   8.926   5.865  0.0372  0.2650  0.3545
17377THY    HM330509   6.688   9.041   5.929  1.7525 -1.5289 -1.5811
17377THY    CA630510   6.400   9.173   5.890  0.3584 -0.2425 -0.2427
17377THY    HA630511   6.394   9.175   5.782 -1.8447 -0.1984 -1.1118
17378THY      O30512   8.204   4.512   2.719 -0.2421  0.6364 -0.3210
17378THY     HO30513   8.129   4.502   2.658  1.0763 -0.7006 -3.2227
17378THY    CA130514   8.209   4.407   2.801  0.0655 -0.1536 -0.1166
17378THY    CA230515   8.319   4.389   2.885  0.3045 -0.6090  0.2165
17378THY    CP130516   8.423   4.495   2.900  0.4675  0.1099  0.5409
17378THY    HP130517   8.420   4.569   2.819 -0.1017 -1.8767 -1.5605
17378THY    CP230518   8.561   4.432   2.917  0.0521  0.2764 -0.0210
17378THY    HP230519   8.631   4.516   2.910  0.6715  2.4959 -0.2829
17378THY    HP330520   8.587   4.359   2.841 -0.9799  0.9310 -1.1062
17378THY    HP430521   8.580   4.385   3.014 -0.2065  0.4191  0.1622
17378THY    CP330522   8.402   4.582   3.026 -0.0899 -0.5171 -0.0157
17378THY    HP530523   8.304   4.631   3.025  0.2719 -0.7239  0.7179
17378THY    HP630524   8.486   4.653   3.031  0.6604 -1.3089 -0.8137
17378THY    HP730525   8.417   4.522   3.116  1.9773 -1.1575 -0.5592
17378THY    CA330526   8.329   4.280   2.970 -0.4850 -0.2447  0.8549
17378THY    HA330527   8.412   4.273   3.040  0.7542 -1.6505  0.8866
17378THY    CA430528   8.233   4.179   2.962  0.2892  0.3031 -0.5193
17378THY    HA430529   8.250   4.085   3.014  0.2093  0.6719 -0.3327
17378THY    CA530530   8.138   4.188   2.869  0.3631 -0.0495  0.7614
17378THY    CM130531   8.036   4.079   2.863 -0.1530 -0.2292 -0.6669
17378THY    HM130532   8.056   4.005   2.784 -0.7452 -2.0431  1.0152
17378THY    HM230533   7.940   4.130   2.853  1.2179 -1.8826  1.8251
17378THY    HM330534   8.043   4.024   2.958  0.1938  1.6896  2.4422
17378THY    CA630535   8.120   4.298   2.794  0.1499  0.1593 -0.2706
17378THY    HA630536   8.032   4.311   2.732 -1.9312  2.8157 -0.8292
17379THY      O30537   8.006   7.887   2.344 -0.6203 -0.3635 -0.1180
17379THY     HO30538   8.045   7.967   2.305  0.2159 -0.6439 -0.6439
17379THY    CA130539   7.869   7.903   2.342  0.2103 -0.5304  0.0668
17379THY    CA230540   7.773   7.804   2.379  0.0167  0.0125 -0.1968
17379THY    CP130541   7.815   7.664   2.413  0.7138 -0.1475 -0.4103
17379THY    HP130542   7.914   7.655   2.458  0.6861 -0.1910 -0.9222
17379THY    CP230543   7.824   7.577   2.290  0.5027  0.5346  0.1221
17379THY    HP230544   7.898   7.496   2.287  0.4300 -1.4288  0.0867
17379THY    HP330545   7.860   7.641   2.209  0.3459  0.3627 -0.0022
17379THY    HP430546   7.727   7.536   2.258  1.0797 -0.7514 -0.2837
17379THY    CP330547   7.714   7.588   2.510 -0.4480 -0.5074  0.1136
17379THY    HP530548   7.616   7.566   2.466 -1.2514  0.0988  2.2446
17379THY    HP630549   7.701   7.648   2.601  2.7293  0.9592 -1.1372
17379THY    HP730550   7.767   7.496   2.539  2.0303 -2.0739  0.9561
17379THY    CA330551   7.634   7.834   2.373 -0.3810 -0.2302  0.0704
17379THY    HA330552   7.551   7.765   2.387 -0.0335 -0.6028 -0.4344
17379THY    CA430553   7.595   7.962   2.330  0.6926 -0.2656  0.4306
17379THY    HA430554   7.488   7.981   2.336  0.0299 -2.6976 -1.8507
17379THY    CA530555   7.691   8.059   2.294  0.0564 -0.2316  0.2938
17379THY    CM130556   7.652   8.196   2.251  0.2205  0.4437 -0.8416
17379THY    HM130557   7.719   8.246   2.180 -0.8725 -0.6505 -0.8746
17379THY    HM230558   7.640   8.261   2.339  0.9649 -1.4606  2.0658
17379THY    HM330559   7.559   8.199   2.192  0.8736 -0.6607  2.9694
17379THY    CA630560   7.828   8.022   2.292  1.1332 -0.5000 -1.0336
17379THY    HA630561   7.899   8.100   2.269  0.6392 -1.4063 -0.8448
17380THY      O30562   0.544   5.565   2.549  0.3361  0.1289  0.3017
17380THY     HO30563   0.505   5.654   2.554 -0.8745 -1.1199 -0.1313
17380THY    CA130564   0.457   5.476   2.615 -0.5901 -1.0378 -0.9707
17380THY    CA230565   0.495   5.346   2.640 -0.0510  0.1944  0.3612
17380THY    CP130566   0.640   5.295   2.622 -0.1986 -0.5197  0.2362
17380THY    HP130567   0.709   5.366   2.574  0.8454 -0.3018 -0.6139
17380THY    CP230568   0.648   5.179   2.522 -0.3198  0.1024 -0.4241
17380THY    HP230569   0.603   5.086   2.558 -1.0155  0.2670 -0.0318
17380THY    HP330570   0.754   5.157   2.508 -0.1684 -0.2449  0.5013
17380THY    HP430571   0.601   5.207   2.427 -1.4417  1.0183  0.9036
17380THY    CP330572   0.703   5.251   2.759  0.5627  0.1303 -0.8759
17380THY    HP530573   0.633   5.183   2.809 -1.2531 -2.0652 -0.7305
17380THY    HP630574   0.739   5.335   2.820  1.8125  0.4309 -1.6063
17380THY    HP730575   0.787   5.184   2.739  0.0475 -0.5460 -1.3290
17380THY    CA330576   0.398   5.249   2.686 -0.2441  0.0830  0.4239
17380THY    HA330577   0.435   5.156   2.729 -1.6834  1.5345  0.4780
17380THY    CA430578   0.265   5.293   2.707  0.1712  0.7651  0.2265
17380THY    HA430579   0.198   5.221   2.753 -0.2063  0.0744  0.1314
17380THY    CA530580   0.234   5.428   2.687  0.2933  0.5413 -0.4568
17380THY    CM130581   0.094   5.467   2.719 -0.0952 -0.2861  0.3258
17380THY    HM130582   0.017   5.428   2.651 -0.7891 -0.7327  2.3339
17380THY    HM230583   0.080   5.576   2.713 -1.3155 -0.5427  0.1674
17380THY    HM330584   0.056   5.428   2.814  2.3548  0.3680 -0.6485
17380THY    CA630585   0.324   5.521   2.639 -0.9203  0.0127  0.1723
17380THY    HA630586   0.292   5.621   2.613  2.3272 -3.1218  0.6167
17381THY      O30587   8.442   2.896   3.534 -0.0080  0.7853  0.4332
17381THY     HO30588   8.496   2.875   3.456 -0.4129  0.5954  0.0856
17381THY    CA130589   8.389   3.010   3.485  0.6199  0.1696 -0.3420
17381THY    CA230590   8.299   3.083   3.562  0.7756  0.1347  0.3779
17381THY    CP130591   8.254   3.042   3.699 -0.2864  0.1615  0.0675
17381THY    HP130592   8.255   2.933   3.698  0.3721 -0.6437  0.0707
17381THY    CP230593   8.115   3.081   3.733  0.0224 -0.7755 -0.1842
17381THY    HP230594   8.120   3.183   3.773 -1.3816  1.1865 -0.8202
17381THY    HP330595   8.078   3.023   3.818  1.7183  0.8714  1.0360
17381THY    HP430596   8.044   3.072   3.649  0.4594 -1.1893  0.2106
17381THY    CP330597   8.353   3.108   3.800  0.7634 -0.7763  0.3685
17381THY    HP530598   8.460   3.096   3.777  1.7818  3.0222  1.0093
17381THY    HP630599   8.324   3.065   3.897 -2.4995 -1.4898  0.7083
17381THY    HP730600   8.330   3.215   3.796 -1.6447 -2.0312 -0.1365
17381THY    CA330601   8.258   3.204   3.514  0.1788 -0.0262 -0.0487
17381THY    HA330602   8.191   3.276   3.561  1.2086  0.1211  0.8363
17381THY    CA430603   8.305   3.250   3.393  0.5899  0.6645  0.8792
17381THY    HA430604   8.268   3.345   3.354 -0.0085 -0.1916  0.3129
17381THY    CA530605   8.385   3.173   3.310  0.1342  0.0291 -0.2489
17381THY    CM130606   8.420   3.233   3.174 -0.2695  0.3614 -0.5042
17381THY    HM130607   8.326   3.256   3.123 -0.0147  0.0544 -0.1411
17381THY    HM230608   8.481   3.160   3.120 -1.1733 -1.3167 -0.0609
17381THY    HM330609   8.477   3.326   3.183 -2.1447 -0.0000  0.7248
17381THY    CA630610   8.432   3.045   3.357 -0.5852 -0.2741  0.1011
17381THY    HA630611   8.491   2.976   3.298 -0.5294 -0.6586  0.4687
17382THY      O30612   9.103   5.169   4.959  0.2977 -0.3230 -0.1540
17382THY     HO30613   9.021   5.161   4.907  0.7099 -0.8638 -0.9842
17382THY    CA130614   9.145   5.042   4.968  1.0448 -0.3731 -0.0766
17382THY    CA230615   9.271   5.012   5.022  0.3169 -1.2680 -0.4875
17382THY    CP130616   9.337   5.119   5.112  0.9529  0.1872  0.1283
17382THY    HP130617   9.271   5.203   5.137 -0.0689 -0.1470 -0.5634
17382THY    CP230618   9.462   5.171   5.035  0.0350  0.4104  0.2486
17382THY    HP230619   9.509   5.240   5.106  1.1115  1.3192 -1.3436
17382THY    HP330620   9.443   5.227   4.943 -0.6406  1.6142  2.0911
17382THY    HP430621   9.535   5.091   5.017 -0.3831 -0.9260  0.1493
17382THY    CP330622   9.386   5.067   5.251 -0.1919  0.3459  0.1526
17382THY    HP530623   9.443   4.976   5.228 -0.5643 -2.0587  0.4434
17382THY    HP630624   9.295   5.058   5.310  0.1973  0.9614  0.2366
17382THY    HP730625   9.460   5.133   5.297  0.3255  0.1017 -0.2447
17382THY    CA330626   9.323   4.882   5.005 -0.2621 -0.2424  0.2217
17382THY    HA330627   9.423   4.864   5.046  0.2968 -1.0300  1.4567
17382THY    CA430628   9.251   4.783   4.930  0.1752  0.1806 -0.0392
17382THY    HA430629   9.296   4.685   4.917 -0.4047  1.3439 -0.4726
17382THY    CA530630   9.117   4.809   4.895 -0.3702  0.6162 -0.2754
17382THY    CM130631   9.041   4.704   4.813 -0.0999  0.2170 -0.5625
17382THY    HM130632   8.933   4.707   4.831 -0.1821 -0.2668 -0.6357
17382THY    HM230633   9.079   4.605   4.843  1.2128 -1.4217 -0.6022
17382THY    HM330634   9.067   4.720   4.708  0.8502  0.6796  1.2427
17382THY    CA630635   9.068   4.943   4.905 -0.2425  0.1122  0.2652
17382THY    HA630636   8.979   4.962   4.847  0.0807  0.1253  1.9988
17383THY      O30637   1.892   2.338   6.930 -0.0449  0.0194 -0.0219
17383THY     HO30638   1.867   2.370   6.842  0.3213 -0.3588 -0.7565
17383THY    CA130639   1.891   2.203   6.918  0.2542 -0.0346  0.1447
17383THY    CA230640   1.927   2.114   7.024  0.2582  0.1360 -0.8537
17383THY    CP130641   1.960   2.169   7.167  0.2541 -0.3559 -0.3705
17383THY    HP130642   1.942   2.277   7.172 -2.9088 -0.3451 -0.8116
17383THY    CP230643   2.106   2.147   7.201  0.5700 -0.0719  0.3703
17383THY    HP230644   2.180   2.162   7.121  1.1579  0.7543  2.2286
17383THY    HP330645   2.127   2.042   7.221 -1.4418 -1.2695 -0.3058
17383THY    HP430646   2.135   2.222   7.276  0.4424  0.1659  0.1818
17383THY    CP330647   1.871   2.120   7.273 -0.5237 -0.1153  0.5653
17383THY    HP530648   1.901   2.015   7.286  1.2687 -1.6357  0.8399
17383THY    HP630649   1.767   2.138   7.245 -0.9143 -0.0941 -1.3783
17383THY    HP730650   1.903   2.178   7.360 -0.6516 -0.1774  0.7275
17383THY    CA330651   1.929   1.978   6.998  0.5140  0.2067 -0.1915
17383THY    HA330652   1.957   1.915   7.082  2.7543  1.4280  2.2568
17383THY    CA430653   1.873   1.928   6.874 -0.8819  0.0239  0.7406
17383THY    HA430654   1.864   1.821   6.858  1.3353  0.6236  0.4339
17383THY    CA530655   1.833   2.020   6.767  0.1507 -0.6270  0.6061
17383THY    CM130656   1.782   1.973   6.633  0.2532 -0.7604 -0.5603
17383THY    HM130657   1.693   1.909   6.645  1.0384  0.2431 -1.5048
17383THY    HM230658   1.848   1.920   6.563 -0.9277 -3.7475  1.6358
17383THY    HM330659   1.736   2.056   6.579  0.3586  1.5361  1.0680
17383THY    CA630660   1.850   2.157   6.794 -0.3020  0.1769 -0.3661
17383THY    HA630661   1.823   2.229   6.717 -1.2903  0.3863 -0.5072
17384THY      O30662   4.914   6.331   2.042 -0.1383  0.0951 -0.4932
17384THY     HO30663   4.981   6.262   2.060  1.7817  1.4458  1.5981
17384THY    CA130664   4.789   6.284   2.066  0.3636 -0.0060 -0.2340
17384THY    CA230665   4.688   6.382   2.088 -1.0232  0.2939  0.0330
17384THY    CP130666   4.716   6.531   2.092  0.1819 -0.6776  0.0822
17384THY    HP130667   4.816   6.565   2.066  1.2109  1.8257 -0.8164
17384THY    CP230668   4.702   6.574   2.236 -0.1817  0.2078 -0.3969
17384THY    HP230669   4.789   6.533   2.289  0.2276 -0.8283 -0.9081
17384THY    HP330670   4.605   6.544   2.276 -0.6563  1.2891  2.2887
17384THY    HP430671   4.705   6.683   2.251  0.9995 -0.1677 -0.3515
17384THY    CP330672   4.624   6.617   2.002  0.2798 -0.5139 -0.5565
17384THY    HP530673   4.638   6.724   2.016 -0.3883 -2.0887 -0.2253
17384THY    HP630674   4.516   6.606   2.021  0.3377  1.7530  1.8373
17384THY    HP730675   4.643   6.605   1.894 -1.1797 -0.7910 -0.6265
17384THY    CA330676   4.558   6.339   2.117  0.1567  0.1765  0.2410
17384THY    HA330677   4.474   6.407   2.129 -1.0615 -0.6166 -1.0569
17384THY    CA430678   4.531   6.202   2.116 -0.0115  0.0293 -0.2354
17384THY    HA430679   4.429   6.168   2.134 -0.4958  0.1996  1.2477
17384THY    CA530680   4.633   6.110   2.104  0.6959  0.5546  0.0911
17384THY    CM130681   4.602   5.963   2.112 -0.5023 -0.9438  0.4644
17384THY    HM130682   4.527   5.936   2.037 -1.5169  0.1615  0.1158
17384THY    HM230683   4.576   5.938   2.216  0.8286 -0.8919 -0.8026
17384THY    HM330684   4.690   5.901   2.095 -1.0638  0.8222 -0.8950
17384THY    CA630685   4.762   6.153   2.072  0.0064  0.5774  0.2652
17384THY    HA630686   4.842   6.080   2.079 -0.7333  3.1584 -0.4150
17385THY      O30687   0.869   0.447   7.469 -0.6355 -0.1881 -0.1800
17385THY     HO30688   0.930   0.472   7.398 -0.1895  0.3494  0.2795
17385THY    CA130689   0.816   0.563   7.504  0.6878 -0.5536  0.5419
17385THY    CA230690   0.742   0.578   7.624 -1.2928 -0.3832 -0.2193
17385THY    CP130691   0.748   0.462   7.732 -0.3529 -0.4402 -0.5356
17385THY    HP130692   0.829   0.392   7.711  0.1991  3.5609 -1.3008
17385THY    CP230693   0.620   0.391   7.764 -0.5372  0.0459 -0.3234
17385THY    HP230694   0.569   0.367   7.670  0.6015 -0.6933  0.0807
17385THY    HP330695   0.551   0.459   7.814  1.1491  0.3389  1.2278
17385THY    HP430696   0.635   0.300   7.823  0.9005  1.1752  0.6101
17385THY    CP330697   0.797   0.540   7.859 -0.0132  0.4939  0.0839
17385THY    HP530698   0.724   0.619   7.877 -2.3477  1.1771 -2.0887
17385THY    HP630699   0.885   0.601   7.836 -0.5380 -0.8511  0.3748
17385THY    HP730700   0.805   0.475   7.947 -2.0181 -0.5908 -1.7559
17385THY    CA330701   0.677   0.702   7.646 -0.0269  0.2631  0.0881
17385THY    HA330702   0.617   0.727   7.733  0.0806  0.2370  0.4308
17385THY    CA430703   0.683   0.798   7.549  0.1328 -0.6287  0.6389
17385THY    HA430704   0.625   0.889   7.558 -1.6821 -0.2268 -0.5032
17385THY    CA530705   0.760   0.777   7.437  0.3868  0.1468  0.4265
17385THY    CM130706   0.766   0.882   7.343  0.2198  0.4385  0.1241
17385THY    HM130707   0.860   0.898   7.290 -0.5237 -0.2858  2.4521
17385THY    HM230708   0.729   0.974   7.388 -0.5565 -1.6784  0.9225
17385THY    HM330709   0.694   0.856   7.264  0.4876 -0.1966  1.2539
17385THY    CA630710   0.824   0.658   7.411 -0.2321 -0.8491  0.2330
17385THY    HA630711   0.866   0.641   7.313  0.5189 -0.5354  0.2478
17386THY      O30712   5.128   4.199   6.270  0.1812 -0.1612  0.1678
17386THY     HO30713   5.142   4.220   6.176 -0.1208 -0.1084  0.6032
17386THY    CA130714   4.992   4.177   6.282 -0.6357 -0.4387  0.5848
17386THY    CA230715   4.938   4.099   6.388  0.2313  0.4190 -0.5779
17386THY    CP130716   5.034   4.054   6.491 -0.9565  0.2843  0.7659
17386THY    HP130717   5.126   4.114   6.491  0.5568 -1.3736 -1.4019
17386THY    CP230718   5.085   3.913   6.450  0.7623  0.6285  0.3166
17386THY    HP230719   5.167   3.881   6.515  0.0106  0.6407 -1.7911
17386THY    HP330720   5.131   3.924   6.351  1.3191  0.8776  0.2520
17386THY    HP430721   5.008   3.835   6.444  0.1748  2.1818  0.7426
17386THY    CP330722   4.985   4.058   6.633  0.5611  0.0930  0.4692
17386THY    HP530723   4.953   4.159   6.659 -4.3568 -1.0144 -0.5570
17386THY    HP630724   5.058   4.032   6.711  0.8402  0.1450  1.3931
17386THY    HP730725   4.897   3.994   6.644  1.1740 -0.3860 -0.4832
17386THY    CA330726   4.802   4.063   6.390  0.0583  0.6436 -0.2331
17386THY    HA330727   4.756   3.996   6.462 -1.2150  0.3828  0.3233
17386THY    CA430728   4.716   4.123   6.295 -0.0838 -0.0195  0.0002
17386THY    HA430729   4.610   4.102   6.288  0.0755 -1.6979 -0.3760
17386THY    CA530730   4.769   4.210   6.195 -0.0567  0.0961 -0.1026
17386THY    CM130731   4.672   4.263   6.095  0.4572 -0.2003  0.5892
17386THY    HM130732   4.624   4.174   6.053  0.9913 -1.9048  1.0661
17386THY    HM230733   4.714   4.319   6.010  0.3897  0.7835  2.1722
17386THY    HM330734   4.599   4.331   6.140  0.1743 -0.3804  0.4049
17386THY    CA630735   4.906   4.229   6.184  0.1399 -0.3034 -0.3298
17386THY    HA630736   4.941   4.280   6.095 -0.1864 -0.7468 -0.8670
17387THY      O30737   2.749   9.147   2.777  0.7110  0.7590  0.2932
17387THY     HO30738   2.832   9.140   2.827  1.7121 -0.5444  1.9307
17387THY    CA130739   2.763   9.061   2.667 -0.3306 -0.1772 -0.0143
17387THY    CA230740   2.659   9.007   2.591 -0.6387  0.1432  0.3010
17387THY    CP130741   2.518   9.029   2.635  0.2578  0.2338  0.1042
17387THY    HP130742   2.524   9.087   2.728  2.4776  0.3476 -0.2213
17387THY    CP230743   2.449   8.896   2.665  0.4311 -0.3100  0.1552
17387THY    HP230744   2.415   8.833   2.582 -1.0528 -0.0456  0.5579
17387THY    HP330745   2.365   8.907   2.736 -0.0269  0.3749 -5.0640
17387THY    HP430746   2.518   8.831   2.721  0.0412  0.1465  0.1246
17387THY    CP330747   2.436   9.113   2.533  1.3226  0.4633 -0.2150
17387THY    HP530748   2.450   9.086   2.427  1.2045  0.4868 -0.3714
17387THY    HP630749   2.470   9.215   2.551 -0.4736  2.1562  0.1459
17387THY    HP730750   2.330   9.117   2.560  1.2099  0.9414 -3.2808
17387THY    CA330751   2.687   8.918   2.481 -0.0719 -1.1506 -0.1319
17387THY    HA330752   2.604   8.879   2.423  0.3737 -0.3556 -2.4253
17387THY    CA430753   2.822   8.893   2.453 -0.3542  0.4249  0.2473
17387THY    HA430754   2.844   8.828   2.368 -1.7343 -1.5140  2.1603
17387THY    CA530755   2.930   8.942   2.535  0.0794 -1.2276  0.4258
17387THY    CM130756   3.068   8.902   2.519 -0.3714  0.0331 -0.0753
17387THY    HM130757   3.127   8.970   2.457 -0.0831  0.6731  0.2687
17387THY    HM230758   3.075   8.807   2.466 -2.0280  0.9042 -0.7334
17387THY    HM330759   3.111   8.885   2.619 -2.7122  1.0798 -0.3135
17387THY    CA630760   2.892   9.030   2.639 -0.2965 -0.2004 -0.1768
17387THY    HA630761   2.972   9.071   2.700 -1.0347  0.2151  0.6742
17388THY      O30762   6.155   1.882   4.674 -0.1229  0.1940  0.1504
17388THY     HO30763   6.210   1.803   4.688 -0.5662  0.6882 -0.0810
17388THY    CA130764   6.039   1.853   4.734  0.6229  0.4733  0.0969
17388THY    CA230765   5.922   1.918   4.683 -0.0881  0.2041 -0.0665
17388THY    CP130766   5.924   2.026   4.570  0.2253 -0.0567 -0.5764
17388THY    HP130767   6.007   2.003   4.503  1.3676  1.7366 -1.9896
17388THY    CP230768   5.930   2.169   4.625  0.1445 -0.2151 -0.1159
17388THY    HP230769   6.021   2.180   4.686 -0.6553  1.0553 -0.3945
17388THY    HP330770   5.845   2.191   4.691 -0.3124 -0.7353 -0.3158
17388THY    HP430771   5.916   2.242   4.544 -0.1891  0.9687  1.1758
17388THY    CP330772   5.796   2.012   4.481 -0.1270 -0.3622 -0.2163
17388THY    HP530773   5.820   2.059   4.385  0.1536 -0.7873 -1.2058
17388THY    HP630774   5.718   2.061   4.541 -1.9848  0.6812 -4.0737
17388THY    HP730775   5.776   1.908   4.454  3.0733  0.9230 -1.2961
17388THY    CA330776   5.804   1.881   4.748  0.1018 -0.4441  0.0565
17388THY    HA330777   5.704   1.913   4.718 -1.7045  1.7418 -2.9339
17388THY    CA430778   5.800   1.786   4.855 -0.4691 -0.1179  0.3953
17388THY    HA430779   5.712   1.758   4.912  1.3095  2.7562  0.2372
17388THY    CA530780   5.911   1.710   4.883 -0.1109  0.3295 -0.4114
17388THY    CM130781   5.906   1.599   4.985 -0.7661 -0.0069  0.1059
17388THY    HM130782   6.004   1.559   5.012  1.1165 -3.3279  2.0510
17388THY    HM230783   5.851   1.511   4.950 -1.4490  0.4415  0.3410
17388THY    HM330784   5.839   1.624   5.069 -0.7700 -0.0537  0.2545
17388THY    CA630785   6.032   1.748   4.829 -0.8231  0.2876 -0.6336
17388THY    HA630786   6.125   1.701   4.857 -0.0317 -0.1038  0.6347
17389THY      O30787   4.111   4.459   5.491 -0.0067  0.1681 -0.3504
17389THY     HO30788   4.161   4.541   5.475 -0.9704  0.1634  0.2484
17389THY    CA130789   4.028   4.489   5.595  0.5464  0.3808  0.3869
17389THY    CA230790   3.968   4.390   5.677  0.3669 -0.2058 -0.6646
17389THY    CP130791   3.985   4.239   5.649 -0.4427 -0.8190  0.2460
17389THY    HP130792   4.053   4.212   5.567 -1.9243 -1.3771 -2.0745
17389THY    CP230793   3.844   4.197   5.619 -0.1160 -0.4681 -0.6009
17389THY    HP230794   3.845   4.089   5.601 -1.3443 -2.8988 -0.2779
17389THY    HP330795   3.829   4.241   5.520 -1.1200  0.7653  2.0215
17389THY    HP430796   3.766   4.233   5.687  0.7754 -0.8435  2.2980
17389THY    CP330797   4.033   4.176   5.772 -0.2414 -1.0925  0.1659
17389THY    HP530798   4.066   4.071   5.768  0.3646  1.5344  0.1870
17389THY    HP630799   3.972   4.187   5.862  1.4871  0.0489  0.7444
17389THY    HP730800   4.117   4.233   5.812 -1.1979  2.0290 -0.4137
17389THY    CA330801   3.885   4.446   5.781 -0.5593  0.0224 -0.2140
17389THY    HA330802   3.842   4.378   5.854  0.3787 -0.3047 -1.1922
17389THY    CA430803   3.863   4.577   5.795  1.0983 -0.7791 -0.9843
17389THY    HA430804   3.802   4.617   5.876  0.6581 -1.0462 -1.1102
17389THY    CA530805   3.912   4.671   5.705 -0.3528  0.1287  0.0398
17389THY    CM130806   3.887   4.816   5.705 -0.5622 -0.0258 -0.3595
17389THY    HM130807   3.974   4.847   5.763 -0.1439 -1.3006  0.9722
17389THY    HM230808   3.791   4.833   5.756 -1.5700 -2.0810  0.5296
17389THY    HM330809   3.887   4.865   5.607  0.2299  0.3942  0.5166
17389THY    CA630810   3.999   4.626   5.609  0.8360  0.0590  0.2235
17389THY    HA630811   4.041   4.694   5.535 -0.0377 -0.0202  0.6939
17390THY      O30812   7.758   8.343   4.213 -0.6616  0.3812 -0.0019
17390THY     HO30813   7.815   8.411   4.174  1.0043  1.6848 -0.5862
17390THY    CA130814   7.782   8.334   4.347  0.0556 -0.8112 -0.2080
17390THY    CA230815   7.688   8.285   4.437  0.1420  0.2445 -0.2908
17390THY    CP130816   7.558   8.224   4.374 -0.3128 -0.0276 -0.0746
17390THY    HP130817   7.575   8.194   4.270  1.6705  0.0888  0.4981
17390THY    CP230818   7.440   8.314   4.393 -0.4666 -0.2139 -0.7282
17390THY    HP230819   7.465   8.411   4.348  2.2913  1.7480 -0.4029
17390THY    HP330820   7.418   8.325   4.500  1.0357  0.1272 -0.7859
17390THY    HP430821   7.353   8.275   4.340 -1.9134  1.4876  0.0164
17390THY    CP330822   7.535   8.090   4.437  0.1355 -0.2415  0.2675
17390THY    HP530823   7.615   8.019   4.412  0.5227 -2.2521  1.3472
17390THY    HP630824   7.437   8.046   4.414  0.4589 -2.6507  0.6708
17390THY    HP730825   7.542   8.102   4.546  1.2614 -0.4648  1.9475
17390THY    CA330826   7.704   8.311   4.574 -0.3208 -0.0238 -0.5274
17390THY    HA330827   7.630   8.280   4.648  2.0339  1.9943 -1.6922
17390THY    CA430828   7.818   8.379   4.626 -0.1877  0.5656 -0.7210
17390THY    HA430829   7.841   8.388   4.731  0.3597  0.3684  0.3545
17390THY    CA530830   7.914   8.419   4.539 -0.5698  0.3660 -0.5294
17390THY    CM130831   8.042   8.474   4.598 -0.1632 -0.4098 -0.0895
17390THY    HM130832   8.046   8.575   4.639  2.4193  0.7201 -0.5605
17390THY    HM230833   8.122   8.465   4.524  1.1124  0.7436  1.1555
17390THY    HM330834   8.073   8.418   4.688 -1.7677  0.4387  0.3193
17390THY    CA630835   7.899   8.400   4.399  0.1255 -0.0504 -0.4407
17390THY    HA630836   7.976   8.440   4.335  1.3045  0.3660 -1.9222
17391THY      O30837   8.473   8.255   5.978  1.0793  0.6672  0.1188
17391THY     HO30838   8.415   8.329   5.953 -1.7701  0.8625 -1.8667
17391THY    CA130839   8.596   8.267   5.919 -0.4337 -0.5684  0.4171
17391THY    CA230840   8.679   8.153   5.917 -0.5085  0.6033 -0.4430
17391THY    CP130841   8.645   8.029   5.990  0.5951  0.1027 -0.6607
17391THY    HP130842   8.597   8.060   6.083 -0.7807 -0.4478 -1.0778
17391THY    CP230843   8.758   7.951   6.063  0.5448  0.0292 -0.4856
17391THY    HP230844   8.719   7.874   6.130 -0.4556 -0.3445 -0.3079
17391THY    HP330845   8.817   8.023   6.121 -1.7870  2.2297 -0.2083
17391THY    HP430846   8.821   7.896   5.991  2.9363  1.6790 -0.0796
17391THY    CP330847   8.566   7.931   5.905  0.1245 -0.3316  0.7112
17391THY    HP530848   8.478   7.980   5.861  0.0437  0.4145  1.2439
17391THY    HP630849   8.526   7.842   5.955  0.1038 -1.6706 -0.0510
17391THY    HP730850   8.642   7.906   5.830  2.3097  1.3784  1.9134
17391THY    CA330851   8.809   8.165   5.843  0.2799 -0.7268  0.2236
17391THY    HA330852   8.872   8.077   5.833  0.4794  1.3046  0.0944
17391THY    CA430853   8.849   8.290   5.795 -0.1051 -0.3323  0.5287
17391THY    HA430854   8.945   8.293   5.745  0.7947  1.3162  0.1710
17391THY    CA530855   8.759   8.395   5.790 -0.1012 -0.2858 -0.1353
17391THY    CM130856   8.792   8.529   5.722  0.1896 -0.1741  0.5642
17391THY    HM130857   8.899   8.543   5.705  0.7543  1.9778 -0.6678
17391THY    HM230858   8.765   8.605   5.796 -0.4518  1.3630 -1.0886
17391THY    HM330859   8.746   8.526   5.622 -0.3802  0.1140 -0.7862
17391THY    CA630860   8.630   8.384   5.858  0.2477  0.5302 -0.0017
17391THY    HA630861   8.556   8.462   5.862 -0.7418  1.0084 -0.9400
17392THY      O30862   1.727   0.416   5.033 -0.1524  0.1300  0.2757
17392THY     HO30863   1.705   0.466   4.953  0.9625  0.0985  0.7590
17392THY    CA130864   1.611   0.402   5.104  0.0900 -0.6085 -0.2218
17392THY    CA230865   1.608   0.305   5.212  1.1823 -0.1469 -0.0997
17392THY    CP130866   1.732   0.227   5.247 -0.5008 -0.4379 -0.2647
17392THY    HP130867   1.800   0.226   5.162  0.1010 -0.0433  1.7905
17392THY    CP230868   1.696   0.070   5.266  0.4072 -0.0652 -0.5924
17392THY    HP230869   1.624   0.035   5.192 -1.3399  1.6040 -0.6799
17392THY    HP330870   1.661   0.054   5.369  2.2930  0.4944 -1.4839
17392THY    HP430871   1.792   0.017   5.262  0.5973  0.9188 -0.3512
17392THY    CP330872   1.801   0.276   5.376 -0.3561  0.1973  0.1103
17392THY    HP530873   1.721   0.289   5.450 -1.6663 -1.3497  1.2022
17392THY    HP630874   1.858   0.367   5.355  1.9812  1.1958 -1.0415
17392THY    HP730875   1.875   0.204   5.414  0.0888 -2.2874 -0.8574
17392THY    CA330876   1.489   0.282   5.284  0.5074 -0.0700 -1.0454
17392THY    HA330877   1.485   0.213   5.367 -2.3259  0.1055 -0.7995
17392THY    CA430878   1.373   0.356   5.243 -0.5915 -0.3961  0.0292
17392THY    HA430879   1.281   0.340   5.297 -0.7870 -0.6646  0.2585
17392THY    CA530880   1.378   0.454   5.137 -0.2068 -0.5486 -0.2087
17392THY    CM130881   1.257   0.534   5.112  0.5911  0.2959 -0.5576
17392THY    HM130882   1.269   0.604   5.028 -0.7686 -0.8655 -1.6671
17392THY    HM230883   1.224   0.586   5.202  1.5318  0.0187  0.5655
17392THY    HM330884   1.179   0.460   5.092  1.4809 -0.5827 -1.3064
17392THY    CA630885   1.495   0.474   5.071 -0.4171 -0.2601 -0.1724
17392THY    HA630886   1.504   0.546   4.990  1.2068  0.2336  0.2267
17393THY      O30887   1.361   4.337   2.318 -0.4898  0.0685  0.0659
17393THY     HO30888   1.434   4.276   2.338 -0.6800 -1.0574 -0.5765
17393THY    CA130889   1.323   4.309   2.190 -0.0387  0.5754 -0.2387
17393THY    CA230890   1.257   4.410   2.122  0.0653  0.4422  0.0183
17393THY    CP130891   1.237   4.552   2.181 -0.3447  0.2746 -0.1585
17393THY    HP130892   1.266   4.561   2.287  2.4353 -0.4964  1.0004
17393THY    CP230893   1.101   4.605   2.158  0.5537  0.6667 -0.8290
17393THY    HP230894   1.029   4.526   2.183 -0.2208  2.1101  0.2871
17393THY    HP330895   1.096   4.629   2.051  0.3045  0.5887 -1.2140
17393THY    HP430896   1.071   4.683   2.229  0.1054 -0.9039  0.4821
17393THY    CP330897   1.340   4.643   2.107  0.6275  0.1996 -0.0590
17393THY    HP530898   1.443   4.621   2.139  0.3368 -0.3568 -2.5224
17393THY    HP630899   1.310   4.747   2.128  1.3088  0.3799  0.1065
17393THY    HP730900   1.318   4.637   2.000 -0.8238  0.5557 -2.3779
17393THY    CA330901   1.219   4.380   1.983  0.2086 -0.2562 -0.6892
17393THY    HA330902   1.183   4.459   1.916  0.6897 -0.3297 -0.5329
17393THY    CA430903   1.237   4.244   1.932 -1.2308  0.2027 -0.0339
17393THY    HA430904   1.227   4.230   1.825  1.8198 -0.2286  0.4131
17393THY    CA530905   1.300   4.153   2.017 -0.1112 -0.3200  0.3254
17393THY    CM130906   1.334   4.019   1.969  0.1398 -0.9082  0.8849
17393THY    HM130907   1.332   3.943   2.047  0.8986 -1.7881 -0.0693
17393THY    HM230908   1.438   4.023   1.934  0.0517 -1.4719 -0.8564
17393THY    HM330909   1.262   3.990   1.892 -0.0271 -0.3559 -0.2002
17393THY    CA630910   1.337   4.183   2.149  0.6331  0.2481 -0.4821
17393THY    HA630911   1.376   4.109   2.218 -1.7097  1.8646 -0.3155
17394THY      O30912   1.675   8.378   4.185  0.5704  1.2365  0.1558
17394THY     HO30913   1.733   8.301   4.195 -0.4842  0.7179 -0.7266
17394THY    CA130914   1.572   8.326   4.112  0.1278  0.2399 -0.4667
17394THY    CA230915   1.443   8.362   4.135 -0.4982  0.6968 -0.1343
17394THY    CP130916   1.399   8.470   4.232 -0.1631  0.7046  1.0764
17394THY    HP130917   1.481   8.498   4.300  0.0147  0.6181  0.7656
17394THY    CP230918   1.293   8.428   4.327 -0.3935  0.2610 -0.4827
17394THY    HP230919   1.206   8.434   4.261 -0.4338  0.3857  0.4513
17394THY    HP330920   1.285   8.499   4.411  0.9876 -0.5287  0.6608
17394THY    HP430921   1.316   8.330   4.369 -1.7236 -1.9797 -1.8380
17394THY    CP330922   1.358   8.597   4.159  0.1823 -0.3921 -0.4398
17394THY    HP530923   1.284   8.578   4.081  1.7167 -1.9200 -0.3673
17394THY    HP630924   1.439   8.638   4.097  0.2795 -1.0324 -1.5659
17394THY    HP730925   1.320   8.668   4.234  0.8770  1.6345 -2.1127
17394THY    CA330926   1.339   8.305   4.060  0.2864  0.2585  0.3288
17394THY    HA330927   1.234   8.331   4.074 -0.0316 -1.4552  0.0782
17394THY    CA430928   1.369   8.208   3.963  0.8535  0.2213 -0.3128
17394THY    HA430929   1.292   8.157   3.905  0.9180  1.7295 -2.2294
17394THY    CA530930   1.498   8.173   3.940 -0.0567  0.0684  0.8402
17394THY    CM130931   1.529   8.089   3.816 -1.0415 -0.0624 -0.1402
17394THY    HM130932   1.468   8.099   3.725  2.4791 -2.5512  0.6672
17394THY    HM230933   1.533   7.985   3.851  1.3842 -0.2964 -0.1872
17394THY    HM330934   1.631   8.117   3.786 -1.7460 -0.7662  1.7871
17394THY    CA630935   1.599   8.232   4.015 -0.0012 -0.0569 -0.1739
17394THY    HA630936   1.703   8.211   3.990  0.1347 -0.5057  0.9758
17395THY      O30937   1.634   5.202   2.671 -0.0756 -0.6036 -0.0964
17395THY     HO30938   1.645   5.256   2.590  1.9733  1.7104  3.3638
17395THY    CA130939   1.759   5.209   2.729  0.8332  0.2294 -0.1084
17395THY    CA230940   1.779   5.243   2.861  0.7653 -0.4068 -0.6347
17395THY    CP130941   1.655   5.283   2.947 -0.2571  0.5543  0.4339
17395THY    HP130942   1.586   5.344   2.887 -1.7948  0.4626 -1.3191
17395THY    CP230943   1.687   5.375   3.057  0.2105 -0.6346 -0.7949
17395THY    HP230944   1.592   5.412   3.097  0.3735  2.0024 -2.8869
17395THY    HP330945   1.744   5.461   3.021  0.7646  0.0437 -0.8627
17395THY    HP430946   1.739   5.324   3.140 -1.5588  0.7288 -0.4691
17395THY    CP330947   1.582   5.157   2.998  0.0383  0.4607 -0.4594
17395THY    HP530948   1.509   5.181   3.076  0.2728  1.0967 -1.7506
17395THY    HP630949   1.644   5.088   3.056 -1.5077  1.8976 -0.7118
17395THY    HP730950   1.532   5.096   2.922 -1.0408  1.3740 -0.7365
17395THY    CA330951   1.908   5.246   2.908  0.1828  0.3577 -0.6705
17395THY    HA330952   1.928   5.275   3.011  0.1235  0.1796  0.0162
17395THY    CA430953   2.017   5.226   2.822  0.4049  0.4039  0.2300
17395THY    HA430954   2.119   5.234   2.858  0.3752  1.5568 -3.0671
17395THY    CA530955   1.987   5.193   2.687  0.0824 -0.0665 -0.2380
17395THY    CM130956   2.112   5.160   2.602  0.9743  0.1221  0.1316
17395THY    HM130957   2.202   5.183   2.660  1.2207 -0.1186 -0.2144
17395THY    HM230958   2.107   5.217   2.508  0.2683  0.1481  0.1200
17395THY    HM330959   2.120   5.053   2.583  0.5515  0.6524  0.0054
17395THY    CA630960   1.857   5.177   2.642  0.1302 -0.1722 -0.1398
17395THY    HA630961   1.833   5.150   2.540  0.5791  0.4767 -3.3663
17396THY      O30962   4.909   2.157   7.450  0.5100 -0.5643 -0.8342
17396THY     HO30963   4.907   2.242   7.497  2.1346 -1.0865 -0.4737
17396THY    CA130964   5.038   2.139   7.419  0.3055 -0.2435 -0.6139
17396THY    CA230965   5.093   2.030   7.349  0.2390  0.1101 -0.2949
17396THY    CP130966   5.014   1.915   7.290 -0.2560 -0.1289 -0.4100
17396THY    HP130967   4.909   1.932   7.314 -0.6503 -2.7598  1.4660
17396THY    CP230968   5.057   1.779   7.341 -0.5070 -0.5018  0.4694
17396THY    HP230969   4.984   1.704   7.310  1.5945 -1.1352 -1.4347
17396THY    HP330970   5.049   1.769   7.450 -3.8356 -0.7729 -1.1485
17396THY    HP430971   5.154   1.743   7.306  0.7271  4.1412 -1.3848
17396THY    CP330972   5.030   1.916   7.136  0.3224 -0.0766  0.4325
17396THY    HP530973   4.981   1.830   7.088 -0.4789  2.8053 -0.8394
17396THY    HP630974   5.137   1.908   7.118  0.4077 -0.2510  1.7014
17396THY    HP730975   4.984   2.011   7.105 -0.3804 -0.7249 -0.1049
17396THY    CA330976   5.234   2.024   7.334 -0.4966  0.2257 -0.4611
17396THY    HA330977   5.285   1.946   7.279 -0.6291 -0.9721  0.2758
17396THY    CA430978   5.310   2.133   7.383 -0.3325  0.3584  0.6168
17396THY    HA430979   5.418   2.125   7.374 -0.3322 -0.3190  1.3677
17396THY    CA530980   5.249   2.240   7.447 -0.0131 -0.2465  0.1426
17396THY    CM130981   5.321   2.349   7.516 -1.0487  0.5378  0.1949
17396THY    HM130982   5.424   2.360   7.479 -1.0078  0.8639  0.9191
17396THY    HM230983   5.306   2.320   7.621 -2.0449 -0.2440 -2.4383
17396THY    HM330984   5.282   2.446   7.485  1.2309 -0.3700  0.8916
17396THY    CA630985   5.118   2.241   7.474  0.4443 -0.0492  0.0294
17396THY    HA630986   5.060   2.313   7.532  0.2255 -1.2940  0.8836
17397THY      O30987   2.145   6.706   4.975  0.0597 -0.0410 -0.1480
17397THY     HO30988   2.095   6.650   5.036 -1.8644  0.4696  1.9730
17397THY    CA130989   2.236   6.780   5.044  0.8341 -0.7152  0.0097
17397THY    CA230990   2.354   6.817   4.982  0.1895  0.2863 -1.0054
17397THY    CP130991   2.387   6.763   4.834  0.2603 -0.8441  0.1997
17397THY    HP130992   2.310   6.701   4.787  1.8447 -3.7061  0.2133
17397THY    CP230993   2.513   6.673   4.815  0.1151  0.2128 -0.7723
17397THY    HP230994   2.524   6.647   4.709 -1.2040  0.2387 -1.5294
17397THY    HP330995   2.501   6.572   4.856  2.9750  0.5183 -1.0616
17397THY    HP430996   2.598   6.726   4.858 -0.2509  0.4753 -0.3920
17397THY    CP330997   2.395   6.889   4.744  0.2193  0.0686 -0.4714
17397THY    HP530998   2.323   6.963   4.782  1.3555  0.1163  0.6316
17397THY    HP630999   2.368   6.861   4.642 -0.7167  0.3660 -0.7087
17397THY    HP731000   2.495   6.932   4.754 -0.0883 -3.5353  1.4318
17397THY    CA331001   2.437   6.912   5.050 -0.4791 -0.0340  0.2156
17397THY    HA331002   2.537   6.938   5.014 -1.1389 -0.3309  2.5582
17397THY    CA431003   2.403   6.951   5.178  0.5204 -0.0874  0.6268
17397THY    HA431004   2.462   7.014   5.243 -0.3644  1.4495 -0.0732
17397THY    CA531005   2.284   6.904   5.246 -0.4460  0.7500  0.3303
17397THY    CM131006   2.247   6.955   5.377 -0.0452 -0.0247  0.2975
17397THY    HM131007   2.236   6.869   5.444 -1.8219  0.2976  0.7379
17397THY    HM231008   2.153   7.012   5.371  0.2503  1.7082  1.0132
17397THY    HM331009   2.317   7.024   5.426 -1.5881  0.3775  1.6421
17397THY    CA631010   2.205   6.809   5.183  0.7776  1.4861  0.3477
17397THY    HA631011   2.111   6.782   5.230  0.4120  0.5136 -0.1260
17398THY      O31012   5.924   5.239   2.048 -0.0397 -0.4099 -0.4184
17398THY     HO31013   5.896   5.332   2.045  1.3876  0.5598  0.0731
17398THY    CA131014   6.061   5.238   2.056 -1.0261 -0.0374 -0.6481
17398THY    CA231015   6.131   5.142   2.134  0.0548  0.6841  0.0753
17398THY    CP131016   6.050   5.050   2.224  0.3345  0.0219 -0.0825
17398THY    HP131017   5.946   5.036   2.191  0.5580  0.4055 -3.6463
17398THY    CP231018   6.033   5.100   2.361  0.2130 -0.0269 -1.1226
17398THY    HP231019   6.130   5.090   2.412 -0.9561  2.7106  0.2736
17398THY    HP331020   5.954   5.043   2.413  0.7146 -0.5880 -2.3613
17398THY    HP431021   5.999   5.204   2.350 -0.2252  3.0540 -0.8402
17398THY    CP331022   6.104   4.904   2.207  0.3894  0.0302  0.0788
17398THY    HP531023   6.041   4.837   2.266 -2.4613  0.4444  2.8803
17398THY    HP631024   6.212   4.901   2.219  0.3015  0.7329 -0.8854
17398THY    HP731025   6.092   4.875   2.102  0.7891 -0.1591  0.5911
17398THY    CA331026   6.271   5.144   2.140  0.0901  0.5282  0.2148
17398THY    HA331027   6.321   5.075   2.208  0.7398 -0.2656 -0.1037
17398THY    CA431028   6.344   5.229   2.053 -0.0484 -0.1074  0.0520
17398THY    HA431029   6.452   5.225   2.046  0.0456 -0.5650  2.4166
17398THY    CA531030   6.276   5.324   1.976  0.3504 -0.3935  0.8472
17398THY    CM131031   6.344   5.428   1.893 -0.3899  0.0434 -0.5979
17398THY    HM131032   6.342   5.528   1.937  3.9117 -0.0615 -0.3132
17398THY    HM231033   6.295   5.427   1.795 -2.2204  0.9056 -0.7033
17398THY    HM331034   6.449   5.404   1.874 -0.4169  1.8833 -2.4714
17398THY    CA631035   6.134   5.332   1.980  0.0868  0.2395  0.1436
17398THY    HA631036   6.087   5.408   1.918  2.0269  1.9007  2.8792
17399THY      O31037   4.132   4.811   6.537  0.1227  0.0381 -0.2264
17399THY     HO31038   4.040   4.785   6.552 -1.2408 -0.7594  3.4121
17399THY    CA131039   4.205   4.787   6.646  0.4068 -0.2850 -0.1813
17399THY    CA231040   4.345   4.796   6.650  0.1354 -0.5437  0.8896
17399THY    CP131041   4.428   4.847   6.535 -0.2894  0.7277 -0.3517
17399THY    HP131042   4.365   4.888   6.455 -1.4600  1.9198  0.2618
17399THY    CP231043   4.504   4.737   6.465 -0.3881  0.2763 -0.4544
17399THY    HP231044   4.562   4.781   6.382 -0.3726  0.2807 -0.4668
17399THY    HP331045   4.438   4.665   6.417  1.4174 -0.7881 -1.4801
17399THY    HP431046   4.573   4.697   6.540 -1.6195  2.0004  0.5464
17399THY    CP331047   4.525   4.964   6.564  0.6088 -0.1832 -0.3040
17399THY    HP531048   4.594   4.946   6.648 -0.6961  0.8317 -0.6768
17399THY    HP631049   4.462   5.051   6.584  0.6368  2.8265 -0.8691
17399THY    HP731050   4.581   4.993   6.474 -0.5321 -0.3288  1.6402
17399THY    CA331051   4.411   4.747   6.767 -0.3255 -0.1438 -0.0508
17399THY    HA331052   4.519   4.753   6.777 -0.3266 -0.2492  0.1723
17399THY    CA431053   4.345   4.695   6.873  0.3843 -0.6019 -0.3370
17399THY    HA431054   4.408   4.667   6.957  0.7369 -1.7672 -3.4902
17399THY    CA531055   4.206   4.704   6.878  0.5528  0.5538 -0.0132
17399THY    CM131056   4.125   4.636   6.990 -0.0212  0.4457 -1.1361
17399THY    HM131057   4.021   4.671   6.995  0.4995 -0.4432  0.6912
17399THY    HM231058   4.165   4.640   7.092  0.3907  0.2631 -0.0426
17399THY    HM331059   4.112   4.530   6.969 -1.6947  0.4872 -0.9598
17399THY    CA631060   4.139   4.745   6.757 -0.2840  0.4830  0.3598
17399THY    HA631061   4.031   4.737   6.760 -0.3564 -0.6181  0.8242
17400THY      O31062   0.340   4.611   7.850  0.0694 -0.0659 -1.0376
17400THY     HO31063   0.277   4.615   7.776  0.3458 -0.2437  1.9707
17400THY    CA131064   0.461   4.590   7.789 -0.1789 -0.0445 -0.2604
17400THY    CA231065   0.574   4.572   7.869  0.2623  0.0512 -0.1366
17400THY    CP131066   0.572   4.578   8.020  0.2571 -0.1213 -0.4739
17400THY    HP131067   0.481   4.625   8.059  0.9585 -1.3041  2.0344
17400THY    CP231068   0.683   4.672   8.068 -0.0544 -0.4402  0.4340
17400THY    HP231069   0.671   4.702   8.173 -0.1038 -0.3709  0.1745
17400THY    HP331070   0.671   4.761   8.005 -0.3009 -0.0824  0.6574
17400THY    HP431071   0.781   4.624   8.063 -0.4530 -2.7910 -0.2973
17400THY    CP331072   0.585   4.442   8.082 -0.5860  0.3043  1.0498
17400THY    HP531073   0.539   4.431   8.181 -0.3486  0.1632 -2.1097
17400THY    HP631074   0.689   4.407   8.088 -0.1732 -1.9781  1.7748
17400THY    HP731075   0.539   4.365   8.020 -0.4871  1.9301 -0.3694
17400THY    CA331076   0.702   4.537   7.815 -0.2003  0.2465  0.8471
17400THY    HA331077   0.792   4.529   7.875 -1.1240  1.4513 -1.4134
17400THY    CA431078   0.705   4.521   7.667 -0.1117 -0.4229  0.4458
17400THY    HA431079   0.790   4.479   7.615  0.2165  1.5097 -1.4364
17400THY    CA531080   0.593   4.555   7.596  0.2593  0.2648 -0.0189
17400THY    CM131081   0.599   4.553   7.447  0.1840  0.8628  0.8085
17400THY    HM131082   0.699   4.567   7.404  0.1389  0.8430  1.0669
17400THY    HM231083   0.541   4.634   7.401  1.8689 -2.0079  0.5258
17400THY    HM331084   0.561   4.458   7.408  3.3435  1.2348 -0.7441
17400THY    CA631085   0.473   4.590   7.655 -0.1447 -0.0555  0.1496
17400THY    HA631086   0.385   4.609   7.595 -0.4791  0.3256 -0.1598
17401THY      O31087   7.908   6.788   5.883 -0.5277  0.4213  0.1760
17401THY     HO31088   7.905   6.878   5.921 -0.6135  0.1899  0.2726
17401THY    CA131089   7.774   6.758   5.884 -0.3002 -0.2612  0.2938
17401THY    CA231090   7.726   6.641   5.820  0.6701  0.0264  0.7085
17401THY    CP131091   7.814   6.544   5.746 -0.7956  0.3690 -0.3058
17401THY    HP131092   7.749   6.463   5.710  0.4816  0.6876 -1.5256
17401THY    CP231093   7.924   6.479   5.836  0.3786  0.4390  0.0179
17401THY    HP231094   8.007   6.549   5.853  2.0522 -0.8929 -1.5126
17401THY    HP331095   7.967   6.403   5.770  4.2267  4.0926 -1.3441
17401THY    HP431096   7.876   6.423   5.917 -0.8678 -0.5538 -0.4079
17401THY    CP331097   7.880   6.600   5.613  0.2557 -0.2645  0.6986
17401THY    HP531098   7.799   6.633   5.546 -2.3345  1.8780 -0.8749
17401THY    HP631099   7.936   6.517   5.569 -0.0966  1.5486 -0.5580
17401THY    HP731100   7.960   6.670   5.638  1.6146 -2.0200 -0.1520
17401THY    CA331101   7.584   6.613   5.826 -0.7571 -0.0789 -0.4039
17401THY    HA331102   7.546   6.517   5.792  1.4093  1.6019 -1.9516
17401THY    CA431103   7.504   6.704   5.891 -0.2807  0.0108  0.0151
17401THY    HA431104   7.400   6.676   5.906 -0.9590 -3.2958  0.2977
17401THY    CA531105   7.547   6.819   5.946  0.5364 -0.7139  0.2310
17401THY    CM131106   7.447   6.898   6.029 -0.3857 -0.2690 -0.3270
17401THY    HM131107   7.359   6.919   5.966 -1.4289  1.3652  0.3821
17401THY    HM231108   7.494   6.986   6.074 -0.6126  1.3228 -0.9777
17401THY    HM331109   7.402   6.844   6.113 -0.5194  1.7326  2.7086
17401THY    CA631110   7.681   6.848   5.945 -0.6997 -0.7588 -0.1515
17401THY    HA631111   7.711   6.941   5.994 -0.2931  1.1795 -1.2387
17402THY      O31112   8.245   7.987   5.725  0.4867  0.3298 -0.0716
17402THY     HO31113   8.259   7.953   5.815 -0.0765  0.3089 -0.3734
17402THY    CA131114   8.125   7.937   5.687  0.8474  0.9339 -0.6748
17402THY    CA231115   8.085   7.932   5.551 -0.2922  0.3666 -0.1413
17402THY    CP131116   8.191   7.959   5.444 -0.4019  0.1093 -0.9758
17402THY    HP131117   8.293   7.971   5.482  0.3813 -2.1798  0.3472
17402THY    CP231118   8.157   8.095   5.363  0.1974  0.2514  0.3107
17402THY    HP231119   8.159   8.181   5.430 -0.2958  0.8179 -0.1107
17402THY    HP331120   8.056   8.091   5.322  0.6058 -0.7552 -2.7233
17402THY    HP431121   8.228   8.115   5.282 -0.9231 -1.3480 -1.7764
17402THY    CP331122   8.214   7.831   5.348 -0.2281  0.1436 -0.3916
17402THY    HP531123   8.231   7.747   5.416 -1.9245  2.7166  1.1916
17402THY    HP631124   8.296   7.836   5.276 -1.2911 -1.0549  0.7543
17402THY    HP731125   8.121   7.808   5.295 -2.2384  3.3591 -0.3172
17402THY    CA331126   7.952   7.900   5.519  0.1338 -0.3831 -0.2685
17402THY    HA331127   7.921   7.898   5.415 -0.6038 -0.2025  0.7849
17402THY    CA431128   7.865   7.856   5.618  0.3099 -0.0900  0.0267
17402THY    HA431129   7.762   7.835   5.589  0.3744 -0.6482  0.4527
17402THY    CA531130   7.910   7.858   5.756  0.5454  0.9007 -0.2370
17402THY    CM131131   7.816   7.831   5.872  0.1579  0.3101 -0.4213
17402THY    HM131132   7.797   7.725   5.892 -2.0262  0.1404 -0.1149
17402THY    HM231133   7.721   7.879   5.846  0.2329  0.0773 -0.3972
17402THY    HM331134   7.855   7.872   5.966 -0.6470  0.7146 -0.5493
17402THY    CA631135   8.040   7.901   5.786  0.7607  0.1164  0.0923
17402THY    HA631136   8.064   7.907   5.891 -0.7532  0.3964  3.3457
17403THY      O31137   4.735   2.725   3.808  0.5834  0.3681 -0.0203
17403THY     HO31138   4.827   2.693   3.815  0.8135  2.5160  0.9498
17403THY    CA131139   4.728   2.819   3.718 -0.2045  0.0972 -0.7732
17403THY    CA231140   4.609   2.890   3.689  0.0392  0.5641 -0.2516
17403THY    CP131141   4.476   2.863   3.766 -0.3070 -0.6551 -0.4660
17403THY    HP131142   4.506   2.822   3.863  4.3390 -1.6407  0.0544
17403THY    CP231143   4.388   2.763   3.696 -0.0445  0.4661 -0.3352
17403THY    HP231144   4.310   2.737   3.767 -0.4686  0.1591  0.0757
17403THY    HP331145   4.433   2.666   3.669 -0.1179 -2.0902  0.2568
17403THY    HP431146   4.336   2.796   3.605 -0.4992  1.3125  1.3757
17403THY    CP331147   4.396   2.991   3.790  0.2381 -0.1018  0.8821
17403THY    HP531148   4.345   3.024   3.699  0.8724  0.0972  2.5381
17403THY    HP631149   4.451   3.078   3.830  0.2645  0.2968  0.6861
17403THY    HP731150   4.315   2.958   3.856  0.4859 -0.0359  0.3996
17403THY    CA331151   4.608   2.964   3.570 -0.5169  0.7311 -0.1312
17403THY    HA331152   4.520   3.020   3.539  0.8411 -0.3176  1.5500
17403THY    CA431153   4.725   2.984   3.489 -0.4960 -0.3892 -0.8820
17403THY    HA431154   4.722   3.057   3.408  1.7904 -0.0713 -0.3543
17403THY    CA531155   4.842   2.937   3.540 -0.2387  0.2314 -0.1577
17403THY    CM131156   4.976   2.955   3.459  0.4142 -0.8373 -0.3423
17403THY    HM131157   4.968   3.058   3.423 -0.2967  0.1286 -0.0459
17403THY    HM231158   4.972   2.880   3.379 -0.5699  1.6664 -3.1356
17403THY    HM331159   5.068   2.941   3.517 -0.3141 -0.3719 -4.5739
17403THY    CA631160   4.845   2.850   3.654  0.1502  0.6935 -0.0932
17403THY    HA631161   4.938   2.801   3.682  0.1592  0.8515  0.0122
17404THY      O31162   1.386   8.863   6.044 -0.3105  0.6421  0.0722
17404THY     HO31163   1.470   8.845   5.998 -2.1809 -3.7671  1.0728
17404THY    CA131164   1.375   8.780   6.141 -0.1000 -0.2516  0.3540
17404THY    CA231165   1.291   8.815   6.251  0.5513 -0.1598  0.2154
17404THY    CP131166   1.217   8.947   6.253 -0.2546 -0.3668  0.0874
17404THY    HP131167   1.263   9.009   6.175  1.0399  0.0541 -0.3169
17404THY    CP231168   1.246   9.012   6.389 -0.3427 -0.6065 -0.3391
17404THY    HP231169   1.233   8.956   6.483 -0.1103  0.1840  0.8938
17404THY    HP331170   1.189   9.106   6.399  1.3505 -0.0073  0.6605
17404THY    HP431171   1.354   9.026   6.397 -0.4421 -1.7523  1.4340
17404THY    CP331172   1.067   8.944   6.223 -0.2896  0.3343 -0.2108
17404THY    HP531173   1.019   9.042   6.228 -2.0641 -0.4620 -0.9865
17404THY    HP631174   1.013   8.882   6.296  0.0559 -0.7640 -1.8741
17404THY    HP731175   1.034   8.904   6.126  0.8845 -0.5529  0.8967
17404THY    CA331176   1.266   8.714   6.352 -0.2303 -0.7163 -0.0149
17404THY    HA331177   1.195   8.727   6.433 -2.2422 -1.9846 -2.2891
17404THY    CA431178   1.329   8.590   6.337 -0.0784 -0.5476 -0.2455
17404THY    HA431179   1.310   8.519   6.416  0.7567 -0.4750 -0.4063
17404THY    CA531180   1.416   8.563   6.228  0.4024 -0.1991 -0.7628
17404THY    CM131181   1.475   8.426   6.217  0.1902  0.0635 -0.0476
17404THY    HM131182   1.525   8.410   6.121  0.1740 -0.1204  0.9604
17404THY    HM231183   1.397   8.349   6.216 -0.1707 -0.4547  0.3196
17404THY    HM331184   1.546   8.406   6.298 -1.3271  1.0741 -1.6157
17404THY    CA631185   1.439   8.658   6.132 -0.3123 -0.1719 -0.4426
17404THY    HA631186   1.500   8.635   6.045 -1.1741 -1.1691  0.9166
17405THY      O31187   6.677   8.497   5.612  0.5404 -0.3372 -0.2594
17405THY     HO31188   6.682   8.549   5.694 -1.6874  0.6500 -1.4671
17405THY    CA131189   6.652   8.573   5.507  0.9124 -0.0052  0.0975
17405THY    CA231190   6.607   8.521   5.381 -0.1791  0.5409  0.9288
17405THY    CP131191   6.585   8.365   5.364  0.4571  0.7832  0.1368
17405THY    HP131192   6.653   8.304   5.424 -1.0641  0.3300 -2.1407
17405THY    CP231193   6.618   8.331   5.208 -0.2089  0.2163  0.3770
17405THY    HP231194   6.525   8.345   5.153  0.0183 -0.3946 -0.4574
17405THY    HP331195   6.654   8.228   5.198 -3.5883  1.1779 -1.0419
17405THY    HP431196   6.696   8.394   5.165  2.5638  0.7345 -2.4626
17405THY    CP331197   6.439   8.325   5.409  0.7051  0.4972  0.2185
17405THY    HP531198   6.420   8.217   5.406  1.5150 -0.4188  0.0819
17405THY    HP631199   6.376   8.372   5.333  0.2335  0.0016 -1.1687
17405THY    HP731200   6.426   8.365   5.510  0.5495 -0.3637  2.4872
17405THY    CA331201   6.566   8.619   5.288  0.3249 -0.5604  0.9483
17405THY    HA331202   6.523   8.591   5.192 -1.6262  0.0144  1.7817
17405THY    CA431203   6.568   8.754   5.315 -0.0872  0.5082  0.7407
17405THY    HA431204   6.533   8.818   5.234 -2.1233 -0.7441 -1.7619
17405THY    CA531205   6.604   8.806   5.441 -0.5600  0.4403  0.2638
17405THY    CM131206   6.606   8.958   5.464 -0.0051  0.3208 -0.3221
17405THY    HM131207   6.708   8.979   5.498  0.0805  0.7028 -1.2726
17405THY    HM231208   6.532   8.981   5.541 -0.7643 -1.0017  2.0315
17405THY    HM331209   6.584   9.019   5.376 -0.7095 -0.3380 -1.4739
17405THY    CA631210   6.642   8.713   5.538  0.2118  0.0827  0.8678
17405THY    HA631211   6.657   8.752   5.638 -0.7333  1.5430 -2.2014
17406THY      O31212   7.751   5.140   5.829  0.2068 -0.0994  0.4009
17406THY     HO31213   7.667   5.103   5.861 -0.6339 -2.4383  0.1031
17406THY    CA131214   7.740   5.159   5.703  0.0330 -0.1305 -0.5973
17406THY    CA231215   7.847   5.197   5.624  0.4605 -0.1298  0.2370
17406THY    CP131216   7.984   5.230   5.680 -0.1034  0.5989  0.5084
17406THY    HP131217   7.969   5.283   5.775 -0.7453  0.2261  1.0022
17406THY    CP231218   8.067   5.320   5.598 -0.6463  0.3010 -0.1061
17406THY    HP231219   8.019   5.419   5.604 -2.0975 -1.3077 -0.6591
17406THY    HP331220   8.102   5.284   5.500  2.0152  0.3198  2.0662
17406THY    HP431221   8.155   5.330   5.663  0.1683 -0.4751 -1.8534
17406THY    CP331222   8.057   5.101   5.725 -0.3898  0.3024  0.0390
17406THY    HP531223   8.092   5.043   5.639 -3.1103 -0.9840  0.1644
17406THY    HP631224   7.991   5.042   5.790 -0.1433 -0.9493 -1.6959
17406THY    HP731225   8.146   5.136   5.779 -1.1453  1.6117  0.0126
17406THY    CA331226   7.832   5.203   5.487 -0.1435  0.1941 -0.1638
17406THY    HA331227   7.916   5.217   5.419 -1.2567 -1.2117 -0.1594
17406THY    CA431228   7.715   5.145   5.432  0.4639  0.4889  0.1805
17406THY    HA431229   7.702   5.132   5.325  0.9420  0.4895 -0.3489
17406THY    CA531230   7.609   5.102   5.513  0.0209  0.4695 -0.1961
17406THY    CM131231   7.482   5.066   5.446 -0.0135 -0.1884  0.4791
17406THY    HM131232   7.468   4.960   5.473 -1.2898 -0.0567  0.6658
17406THY    HM231233   7.489   5.086   5.339  0.4646 -0.4851 -1.1142
17406THY    HM331234   7.405   5.130   5.491  0.0373 -1.7236  1.6643
17406THY    CA631235   7.619   5.118   5.650  0.3761 -0.4249 -0.4670
17406THY    HA631236   7.528   5.110   5.707  0.0911 -0.2777  2.6559
17407THY      O31237   6.591   9.003   3.657  0.1172 -0.7732 -0.4635
17407THY     HO31238   6.507   9.025   3.613  0.7455 -0.6521  2.6651
17407THY    CA131239   6.678   9.092   3.609  0.3479 -0.5726  0.6675
17407THY    CA231240   6.778   9.136   3.698  0.3168  0.7996 -0.0731
17407THY    CP131241   6.777   9.096   3.852  0.2930  0.7365 -0.5826
17407THY    HP131242   6.728   8.998   3.866 -1.0752  0.1116 -0.0227
17407THY    CP231243   6.690   9.189   3.936 -0.6118  0.1347 -0.6098
17407THY    HP231244   6.682   9.158   4.041 -0.3923 -0.2933 -2.2030
17407THY    HP331245   6.584   9.183   3.908 -0.1700 -1.6584 -0.7499
17407THY    HP431246   6.722   9.294   3.932  0.9967  0.2559 -1.0592
17407THY    CP331247   6.914   9.088   3.902 -0.6486 -0.1609  0.3047
17407THY    HP531248   6.916   9.045   4.003 -1.2892  0.1203  0.9106
17407THY    HP631249   6.964   9.183   3.922 -0.7012  3.8798 -0.3557
17407THY    HP731250   6.973   9.034   3.827 -1.1028  0.6693 -1.4047
17407THY    CA331251   6.861   9.235   3.642 -0.1471  0.5748 -0.6774
17407THY    HA331252   6.944   9.274   3.700 -1.4060  0.2431  2.7855
17407THY    CA431253   6.841   9.282   3.511 -0.4125 -0.4173 -0.1822
17407THY    HA431254   6.913   9.354   3.475 -0.6601 -0.7331 -0.0890
17407THY    CA531255   6.741   9.239   3.433 -0.6550 -0.2921 -0.6807
17407THY    CM131256   6.700   9.309   3.302  0.0578  0.0474  0.7300
17407THY    HM131257   6.782   9.366   3.257  2.3589  1.3150 -1.3524
17407THY    HM231258   6.611   9.370   3.318 -0.9621  1.8347 -1.0936
17407THY    HM331259   6.680   9.233   3.225 -0.1979  2.3468 -1.7125
17407THY    CA631260   6.658   9.147   3.480  0.0068 -0.1696 -0.0536
17407THY    HA631261   6.571   9.117   3.421 -0.8507  0.5123  1.0092
17408THY      O31262   5.363   5.169   3.100  0.0309 -1.1338  0.5058
17408THY     HO31263   5.267   5.160   3.109  0.3204  0.0513 -3.2284
17408THY    CA131264   5.401   5.290   3.053 -0.2659 -0.3585 -0.7286
17408THY    CA231265   5.502   5.361   3.117  0.3881  0.0891  0.0006
17408THY    CP131266   5.572   5.316   3.249  0.0600 -0.4655  0.4022
17408THY    HP131267   5.578   5.207   3.233  1.4825  0.3677  0.3255
17408THY    CP231268   5.499   5.343   3.375  0.4123 -0.4266 -0.1069
17408THY    HP231269   5.516   5.272   3.457 -0.2991  0.9116  1.2066
17408THY    HP331270   5.392   5.342   3.350  0.3592 -0.1976 -0.2360
17408THY    HP431271   5.519   5.446   3.409  3.0482  1.0202 -0.9898
17408THY    CP331272   5.719   5.368   3.261  0.2323 -1.1695 -0.5863
17408THY    HP531273   5.734   5.475   3.277  0.3984  4.7249 -1.1670
17408THY    HP631274   5.758   5.346   3.161 -2.4231 -2.2251 -0.8420
17408THY    HP731275   5.764   5.332   3.354 -3.2810  1.3739  1.0392
17408THY    CA331276   5.536   5.482   3.057  0.1719 -1.5991 -0.4785
17408THY    HA331277   5.613   5.548   3.094 -0.4185 -1.7537  0.3087
17408THY    CA431278   5.476   5.528   2.942  0.5897  0.2108  0.1558
17408THY    HA431279   5.500   5.619   2.889 -0.5778 -0.1279  0.2866
17408THY    CA531280   5.369   5.457   2.884  0.0528  0.1955 -0.5214
17408THY    CM131281   5.296   5.509   2.764 -0.5788  0.4204  0.4147
17408THY    HM131282   5.216   5.576   2.796  0.4188  0.1707  1.7819
17408THY    HM231283   5.261   5.433   2.693 -0.7789 -2.6736  3.1616
17408THY    HM331284   5.363   5.566   2.697  2.3042  1.6877 -1.2331
17408THY    CA631285   5.331   5.338   2.944  0.2680  0.2808 -0.1405
17408THY    HA631286   5.259   5.272   2.896  1.2243 -0.7356 -0.4793
17409THY      O31287   0.814   5.275   6.005 -0.2610 -0.6439  0.2894
17409THY     HO31288   0.771   5.200   5.958  0.9494  0.3065 -1.0506
17409THY    CA131289   0.734   5.382   5.978 -0.0696 -0.3775  0.6175
17409THY    CA231290   0.762   5.513   6.038  0.2210  0.2070  0.0760
17409THY    CP131291   0.887   5.523   6.127  0.2758 -0.5864 -0.8780
17409THY    HP131292   0.950   5.434   6.119 -0.6791 -2.1961 -1.4555
17409THY    CP231293   0.842   5.522   6.277  0.4169 -0.0317 -0.0638
17409THY    HP231294   0.939   5.540   6.326  1.4575 -0.7212 -3.1468
17409THY    HP331295   0.792   5.435   6.320  0.8705  1.7871  0.5185
17409THY    HP431296   0.772   5.605   6.295  0.4727  2.1841 -0.4411
17409THY    CP331297   0.964   5.653   6.084 -1.0465 -0.3268 -0.2269
17409THY    HP531298   1.009   5.631   5.986  1.6979  0.7146  0.3254
17409THY    HP631299   1.055   5.670   6.143 -0.8944 -0.0515 -1.8521
17409THY    HP731300   0.904   5.745   6.082 -1.9184 -0.0474 -0.7840
17409THY    CA331301   0.669   5.619   6.022 -0.8507 -0.2951 -0.7303
17409THY    HA331302   0.685   5.718   6.063  0.1047  1.1054 -1.4358
17409THY    CA431303   0.552   5.604   5.947  0.5193  0.4722  0.0659
17409THY    HA431304   0.489   5.686   5.917 -1.0135  0.1092 -1.2018
17409THY    CA531305   0.523   5.478   5.889  0.1712 -0.3292 -0.2864
17409THY    CM131306   0.404   5.464   5.816 -0.3254  0.1226  0.1870
17409THY    HM131307   0.346   5.555   5.794 -1.8743 -0.1038 -0.8248
17409THY    HM231308   0.330   5.407   5.873 -0.5320  0.5389  0.8665
17409THY    HM331309   0.424   5.403   5.727  0.4231  0.7753 -0.5431
17409THY    CA631310   0.612   5.366   5.912 -0.0065 -0.4580  0.8662
17409THY    HA631311   0.589   5.263   5.887  0.1064 -0.3993  0.8262
17410THY      O31312   5.174   3.314   5.059 -0.2818 -0.3331  0.1810
17410THY     HO31313   5.190   3.265   4.978 -0.5734  1.7758 -3.7831
17410THY    CA131314   5.191   3.225   5.159  0.3049  0.8014  0.0517
17410THY    CA231315   5.234   3.256   5.289 -0.0768  0.0699 -0.3871
17410THY    CP131316   5.261   3.410   5.310 -0.4147 -0.1225 -0.2668
17410THY    HP131317   5.184   3.464   5.254 -0.0153 -0.6241 -0.2152
17410THY    CP231318   5.398   3.440   5.247  0.9832 -0.1822 -0.1857
17410THY    HP231319   5.383   3.454   5.140  0.6088 -0.1346 -0.2067
17410THY    HP331320   5.480   3.369   5.262  3.6312  0.5930  2.7985
17410THY    HP431321   5.442   3.529   5.294  0.4158  0.6447 -0.3248
17410THY    CP331322   5.260   3.450   5.465  0.1298  0.0702  0.6545
17410THY    HP531323   5.337   3.391   5.516 -1.4342  0.5021 -1.1081
17410THY    HP631324   5.163   3.431   5.511  0.0473 -0.3384  0.0758
17410THY    HP731325   5.277   3.558   5.478  1.1772 -1.3370  0.6895
17410THY    CA331326   5.257   3.160   5.389 -0.3183  0.2713 -0.6323
17410THY    HA331327   5.277   3.189   5.492 -1.3351  0.3938 -0.3026
17410THY    CA431328   5.245   3.026   5.357  0.2656  0.4461 -0.4503
17410THY    HA431329   5.256   2.951   5.435  0.1983  0.5616 -0.3398
17410THY    CA531330   5.198   2.998   5.234  0.3246 -0.2499  0.7706
17410THY    CM131331   5.171   2.854   5.208  0.3551  0.1875 -0.0534
17410THY    HM131332   5.180   2.783   5.292  1.4768 -0.2352 -0.4215
17410THY    HM231333   5.245   2.817   5.137  1.3583  1.3185 -0.2902
17410THY    HM331334   5.074   2.843   5.157  1.2070 -1.2706 -1.1420
17410THY    CA631335   5.170   3.091   5.132  0.5247  0.2745  0.0238
17410THY    HA631336   5.118   3.061   5.042  1.6132 -0.9015  1.4947
17411THY      O31337   2.171   4.278   2.877 -0.4090  0.6105 -0.5716
17411THY     HO31338   2.247   4.225   2.906  1.2347 -0.8866  0.8481
17411THY    CA131339   2.179   4.269   2.743  0.4820 -0.5026  0.1930
17411THY    CA231340   2.091   4.342   2.662  0.1869 -0.4439  0.4834
17411THY    CP131341   1.987   4.433   2.727 -0.4107  0.4511  0.0662
17411THY    HP131342   1.998   4.441   2.835 -4.2547  0.9065  1.5991
17411THY    CP231343   1.845   4.371   2.712  0.3054  0.9371  1.1906
17411THY    HP231344   1.771   4.422   2.774 -0.5965  0.8660  0.0187
17411THY    HP331345   1.838   4.264   2.735  1.2393 -0.4730  0.8018
17411THY    HP431346   1.817   4.375   2.606 -0.4663  1.1455  1.3302
17411THY    CP331347   2.001   4.572   2.670  0.6806  0.7510 -0.3151
17411THY    HP531348   1.934   4.649   2.710 -2.8295 -0.4933 -2.4608
17411THY    HP631349   1.990   4.594   2.563  4.8801  0.5056  1.4946
17411THY    HP731350   2.106   4.600   2.681  0.6072  0.2716  0.1700
17411THY    CA331351   2.099   4.333   2.525 -0.5863  0.0934  0.3097
17411THY    HA331352   2.032   4.379   2.454  0.2654  0.7780  2.7221
17411THY    CA431353   2.191   4.241   2.465  0.5553 -0.1499  0.2662
17411THY    HA431354   2.190   4.215   2.359 -0.5501  0.6301 -3.3122
17411THY    CA531355   2.280   4.172   2.549  0.4781  0.1501 -0.1806
17411THY    CM131356   2.379   4.075   2.480 -1.0368 -0.7717  0.2560
17411THY    HM131357   2.469   4.118   2.434  0.3828 -0.3668 -2.0773
17411THY    HM231358   2.329   4.026   2.396 -0.2030 -0.2561 -1.5327
17411THY    HM331359   2.405   4.005   2.560 -0.8333  0.9457  2.1745
17411THY    CA631360   2.272   4.183   2.693 -0.2443 -0.0338  0.0247
17411THY    HA631361   2.346   4.133   2.755 -0.0107  0.0965  0.5281
17412THY      O31362   5.188   8.279   4.157  0.5780 -0.0491  0.0019
17412THY     HO31363   5.251   8.333   4.108  2.0543  0.6855 -1.0011
17412THY    CA131364   5.274   8.175   4.191  0.2808  0.4119 -0.4675
17412THY    CA231365   5.248   8.074   4.284 -0.1972  0.1691 -0.8886
17412THY    CP131366   5.118   8.089   4.359  0.8190  0.4304  0.4325
17412THY    HP131367   5.050   8.144   4.292 -0.5379  0.3763 -1.2127
17412THY    CP231368   5.143   8.146   4.500  0.6717  0.2503 -0.1779
17412THY    HP231369   5.186   8.247   4.494  1.5805 -3.6311 -0.6084
17412THY    HP331370   5.208   8.081   4.559  2.8064 -0.1085  1.5134
17412THY    HP431371   5.047   8.168   4.546  2.1773  3.1733  0.7885
17412THY    CP331372   5.057   7.950   4.382  0.5153  0.1722 -0.2135
17412THY    HP531373   5.119   7.890   4.449  2.1301 -1.3678 -0.3629
17412THY    HP631374   5.045   7.892   4.290 -1.8868 -0.7662  1.5933
17412THY    HP731375   4.963   7.968   4.436  0.7304  0.4058  0.2436
17412THY    CA331376   5.351   7.982   4.316 -0.1937 -0.0748 -0.1680
17412THY    HA331377   5.336   7.904   4.390 -2.2438  1.4314  1.5204
17412THY    CA431378   5.468   7.975   4.240  0.4702  0.0585  0.7168
17412THY    HA431379   5.543   7.898   4.257 -0.1398 -0.3115  0.0334
17412THY    CA531380   5.491   8.070   4.141  0.6082  0.4028 -0.8940
17412THY    CM131381   5.624   8.073   4.073  0.5174  0.4511  0.0445
17412THY    HM131382   5.653   7.975   4.033 -1.5256 -0.3723 -0.2773
17412THY    HM231383   5.701   8.100   4.146 -1.4538  2.7508 -0.1912
17412THY    HM331384   5.618   8.144   3.990 -1.0987  0.4400 -0.0712
17412THY    CA631385   5.392   8.160   4.114  0.0106 -0.0927 -0.1575
17412THY    HA631386   5.415   8.232   4.035 -0.6241 -0.2284 -0.0973
17413THY      O31387   7.503   9.173   4.807  0.1168  0.2956 -1.0532
17413THY     HO31388   7.555   9.227   4.745 -1.6233 -1.0952 -0.8706
17413THY    CA131389   7.577   9.180   4.921  0.1270  0.2816  0.5250
17413THY    CA231390   7.529   9.132   5.048  0.2856 -0.2484 -0.7154
17413THY    CP131391   7.397   9.053   5.060 -0.1585  0.0470 -0.0481
17413THY    HP131392   7.370   9.021   4.959 -2.3864  0.5852 -0.0616
17413THY    CP231393   7.286   9.150   5.113  0.3424 -0.2362 -0.2088
17413THY    HP231394   7.189   9.100   5.124  0.5787  0.2019 -0.5757
17413THY    HP331395   7.281   9.241   5.052 -0.5417  1.6637  1.0997
17413THY    HP431396   7.330   9.179   5.210  1.0660 -1.2065  2.2281
17413THY    CP331397   7.413   8.917   5.134  0.6052 -0.1378 -0.5402
17413THY    HP531398   7.326   8.850   5.123  1.4755 -0.5541 -1.6318
17413THY    HP631399   7.429   8.945   5.238 -1.2406  0.2617 -0.8342
17413THY    HP731400   7.499   8.854   5.109  1.4945  1.9546 -0.2430
17413THY    CA331401   7.611   9.162   5.157 -0.4681 -0.9700  0.3340
17413THY    HA331402   7.570   9.132   5.254 -1.6987 -1.0169  1.7173
17413THY    CA431403   7.738   9.226   5.144 -0.7309 -0.6665  1.2432
17413THY    HA431404   7.805   9.250   5.226  0.9676 -1.6595  0.0039
17413THY    CA531405   7.794   9.246   5.020  1.0555  0.2977  0.1923
17413THY    CM131406   7.928   9.310   5.003 -0.4198 -0.0478  0.0436
17413THY    HM131407   7.943   9.402   5.061  2.4329 -0.8791  0.1915
17413THY    HM231408   7.930   9.360   4.905 -2.1121  0.9398  2.2489
17413THY    HM331409   8.017   9.248   5.012 -1.2620 -0.7514 -1.3084
17413THY    CA631410   7.703   9.243   4.908 -0.0722  0.2929  0.3329
17413THY    HA631411   7.736   9.290   4.816 -1.5511  0.6620  2.2340
17414THY      O31412   8.378   6.196   4.016 -0.7453 -0.0808  0.4511
17414THY     HO31413   8.380   6.139   3.937 -1.5067  0.2198 -0.0085
17414THY    CA131414   8.244   6.209   4.057  0.5402 -0.0514 -0.4777
17414THY    CA231415   8.199   6.324   4.124 -0.5455 -0.0554 -0.0890
17414THY    CP131416   8.286   6.446   4.124 -0.1992  0.2440 -0.4047
17414THY    HP131417   8.363   6.438   4.047  2.3251  2.8072 -3.2549
17414THY    CP231418   8.381   6.444   4.256  0.0827  0.3621 -0.1256
17414THY    HP231419   8.437   6.351   4.240 -0.9658 -0.4177 -0.6530
17414THY    HP331420   8.314   6.429   4.341  1.3878  1.6959  1.3234
17414THY    HP431421   8.441   6.535   4.271  0.6756  1.7852 -0.7214
17414THY    CP331422   8.210   6.574   4.118  0.7472 -0.0026 -0.4045
17414THY    HP531423   8.171   6.598   4.218  0.8224  0.2895 -1.4264
17414THY    HP631424   8.128   6.558   4.047  0.2316  0.8184 -1.6287
17414THY    HP731425   8.281   6.653   4.091  0.5177 -1.1900 -0.5848
17414THY    CA331426   8.064   6.327   4.155 -0.2075  0.9180 -0.1152
17414THY    HA331427   8.020   6.417   4.196 -0.4761  1.3429 -0.4365
17414THY    CA431428   7.981   6.216   4.134  0.3036  0.2023 -0.5429
17414THY    HA431429   7.880   6.227   4.171  1.0137  1.8488  1.2985
17414THY    CA531430   8.032   6.099   4.083 -0.3832  0.4284  0.2411
17414THY    CM131431   7.943   5.982   4.062 -0.2162  0.3550  0.0709
17414THY    HM131432   7.875   5.992   3.977  0.4014  0.0510  2.6475
17414THY    HM231433   7.889   5.958   4.154  1.1019  0.8522 -1.0978
17414THY    HM331434   8.013   5.899   4.047 -0.4981 -0.9910  0.0554
17414THY    CA631435   8.164   6.101   4.034  0.1894 -0.4186  0.2515
17414THY    HA631436   8.202   6.012   3.986  0.7223 -0.7734  0.6639
17415THY      O31437   7.648   6.728   4.948 -0.3273 -0.2248 -0.8887
17415THY     HO31438   7.675   6.693   5.035  0.7940 -0.4800 -0.6858
17415THY    CA131439   7.527   6.791   4.966  0.4434  0.0467  0.3071
17415THY    CA231440   7.451   6.835   4.860  0.6427 -0.2197  0.1462
17415THY    CP131441   7.504   6.846   4.720 -0.2554 -0.7346  0.6734
17415THY    HP131442   7.545   6.748   4.694 -0.0742  2.0278 -0.0707
17415THY    CP231443   7.610   6.960   4.709  0.0120 -0.2687  0.3295
17415THY    HP231444   7.633   6.976   4.603 -0.2030 -0.7143 -2.0288
17415THY    HP331445   7.696   6.928   4.769  1.6974 -1.7059  1.9680
17415THY    HP431446   7.566   7.053   4.747  2.0602 -0.8809  1.6159
17415THY    CP331447   7.405   6.867   4.605 -0.2987  0.5706  0.9439
17415THY    HP531448   7.461   6.852   4.512  2.1332  2.2204 -0.9671
17415THY    HP631449   7.347   6.960   4.605 -0.2485  0.7820  0.9756
17415THY    HP731450   7.333   6.785   4.612  0.5179 -1.4348 -0.0144
17415THY    CA331451   7.323   6.876   4.893 -0.0953 -0.4866  0.1699
17415THY    HA331452   7.259   6.919   4.816 -1.9487  1.6299  1.3717
17415THY    CA431453   7.278   6.878   5.025  0.0517  0.0469  0.2628
17415THY    HA431454   7.182   6.920   5.052  0.9401  1.7457  1.3163
17415THY    CA531455   7.358   6.829   5.124 -0.8490  0.1433  0.4418
17415THY    CM131456   7.313   6.842   5.272 -0.2335 -0.3766 -0.1560
17415THY    HM131457   7.218   6.894   5.282  1.2958  0.2650  2.6837
17415THY    HM231458   7.381   6.889   5.344  1.6677 -0.0295 -3.1386
17415THY    HM331459   7.290   6.741   5.307  0.1748 -0.8993 -0.4397
17415THY    CA631460   7.489   6.792   5.099  0.2198  0.0794  0.2518
17415THY    HA631461   7.554   6.764   5.180  0.8656 -0.4922  0.0691
17416THY      O31462   6.204   3.998   5.881 -0.3487  0.1987 -0.0406
17416THY     HO31463   6.183   3.904   5.891 -1.4526  0.6691  0.2428
17416THY    CA131464   6.210   4.037   6.008 -0.8710 -0.4574 -0.3089
17416THY    CA231465   6.280   4.163   6.041 -0.0561  0.0185 -0.2053
17416THY    CP131466   6.370   4.230   5.942  0.3413  0.1741  0.5427
17416THY    HP131467   6.319   4.213   5.846 -0.4786  0.6460  0.2894
17416THY    CP231468   6.510   4.155   5.928  0.7663 -0.0502  0.5525
17416THY    HP231469   6.500   4.046   5.914  1.1017  2.6842  0.0900
17416THY    HP331470   6.557   4.153   6.028 -0.4981  0.5739  1.0840
17416THY    HP431471   6.579   4.201   5.856  0.9094 -0.1727  0.1531
17416THY    CP331472   6.390   4.378   5.948  0.0932 -0.1542  0.6989
17416THY    HP531473   6.297   4.433   5.932  0.9446  0.0454  2.2385
17416THY    HP631474   6.448   4.404   5.858 -1.7857 -2.3802 -2.1294
17416THY    HP731475   6.435   4.415   6.041 -0.3745  0.1358  0.5414
17416THY    CA331476   6.263   4.213   6.171 -0.1438  0.2556  0.0316
17416THY    HA331477   6.316   4.301   6.205 -1.3943  0.7688  0.6139
17416THY    CA431478   6.182   4.131   6.262  0.2031  1.3301  0.4943
17416THY    HA431479   6.180   4.158   6.367 -1.4130  1.1544  1.1445
17416THY    CA531480   6.120   4.017   6.232  0.0079  0.1721 -0.2217
17416THY    CM131481   6.039   3.957   6.329  0.1275 -0.0289 -0.3017
17416THY    HM131482   6.056   3.849   6.341  3.4503  1.1308  0.2228
17416THY    HM231483   5.937   3.970   6.291  0.7746 -2.1826 -1.1593
17416THY    HM331484   6.044   4.002   6.429  1.8189 -0.0669 -0.3237
17416THY    CA631485   6.134   3.970   6.102 -0.1488  0.1205 -0.1324
17416THY    HA631486   6.079   3.881   6.075 -2.1390 -1.6153  1.4984
17417THY      O31487   3.437   5.536   2.372  0.6102  0.1467 -0.6226
17417THY     HO31488   3.399   5.571   2.454  1.3283 -0.3406  1.4578
17417THY    CA131489   3.569   5.575   2.378 -0.3872  0.3569 -0.1839
17417THY    CA231490   3.671   5.504   2.305  0.4867 -0.4255  0.1901
17417THY    CP131491   3.632   5.390   2.204 -0.5925  0.3415 -0.3308
17417THY    HP131492   3.529   5.406   2.170 -0.2002 -0.7764 -0.1310
17417THY    CP231493   3.648   5.255   2.279 -0.2754 -0.4271  0.3262
17417THY    HP231494   3.584   5.276   2.365  0.7382 -0.3235  3.4144
17417THY    HP331495   3.750   5.232   2.312  0.2503 -1.5284  0.9935
17417THY    HP431496   3.602   5.174   2.221  1.5943 -1.3772 -0.1212
17417THY    CP331497   3.727   5.394   2.074  0.7902  0.4483  0.3847
17417THY    HP531498   3.763   5.496   2.059  0.6062 -1.4725  0.1945
17417THY    HP631499   3.675   5.354   1.986  0.7440  0.4893  0.3539
17417THY    HP731500   3.809   5.326   2.100  0.7060  1.8360  0.7770
17417THY    CA331501   3.804   5.544   2.329 -0.5069  0.7113  0.7540
17417THY    HA331502   3.883   5.490   2.278 -0.7584  2.0011 -0.9181
17417THY    CA431503   3.832   5.642   2.429 -0.4896 -0.0014  0.6182
17417THY    HA431504   3.934   5.678   2.439  0.0521  0.9243 -1.1066
17417THY    CA531505   3.730   5.702   2.498 -0.1312  0.2117 -0.3967
17417THY    CM131506   3.766   5.804   2.605  0.1940 -0.1251  0.1947
17417THY    HM131507   3.852   5.871   2.589 -0.1598  0.4816  0.8042
17417THY    HM231508   3.801   5.747   2.692  1.4442 -0.3964  0.5085
17417THY    HM331509   3.681   5.867   2.634 -1.7602  1.1525 -2.8237
17417THY    CA631510   3.599   5.664   2.485  0.0513  0.1249  0.3252
17417THY    HA631511   3.516   5.715   2.532 -0.8412 -0.0777 -0.8969
17418THY      O31512   0.292   5.956   3.631 -0.0114 -0.6384  0.0421
17418THY     HO31513   0.258   5.970   3.721 -1.1669 -0.7294 -1.7954
17418THY    CA131514   0.431   5.968   3.638 -0.6818  0.5033 -0.5011
17418THY    CA231515   0.505   5.973   3.515 -0.0204 -0.2387  0.4978
17418THY    CP131516   0.428   5.969   3.378 -0.4311  0.4957  0.1246
17418THY    HP131517   0.333   6.018   3.402 -0.0475  0.4644  0.8939
17418THY    CP231518   0.403   5.832   3.319 -0.3806  0.0086  0.1398
17418THY    HP231519   0.343   5.769   3.386  1.6572  0.2598 -1.6548
17418THY    HP331520   0.498   5.782   3.298 -1.2247 -0.2935 -1.4120
17418THY    HP431521   0.355   5.837   3.220  0.6170 -0.4437  0.8870
17418THY    CP331522   0.488   6.062   3.282 -0.3723 -0.1557  0.8152
17418THY    HP531523   0.422   6.060   3.194  0.6962 -0.9682 -0.2779
17418THY    HP631524   0.584   6.030   3.241 -1.2891 -0.8042 -1.3323
17418THY    HP731525   0.491   6.166   3.316 -2.5883  1.7798  0.3499
17418THY    CA331526   0.643   5.969   3.517 -0.0986  0.8876 -0.2724
17418THY    HA331527   0.705   5.969   3.428  0.4207  1.2382  0.2759
17418THY    CA431528   0.709   5.959   3.645 -0.1475  0.8674 -0.4424
17418THY    HA431529   0.817   5.952   3.646 -0.0157  1.5568  1.2002
17418THY    CA531530   0.638   5.965   3.767 -0.0983 -0.3463 -0.0596
17418THY    CM131531   0.701   5.953   3.903 -0.0646  0.1457 -0.1196
17418THY    HM131532   0.797   5.904   3.885 -0.2479 -0.9689 -0.0951
17418THY    HM231533   0.639   5.886   3.962  0.3482 -0.1763 -0.7954
17418THY    HM331534   0.720   6.045   3.959  0.8239  0.1901 -0.3233
17418THY    CA631535   0.498   5.974   3.759  0.5088  0.0573 -0.2146
17418THY    HA631536   0.441   5.979   3.851  0.8248  0.2226  0.7287
17419THY      O31537   1.476   7.948   6.796 -0.2387 -0.2309  0.0773
17419THY     HO31538   1.540   7.901   6.853 -1.8185  1.6256  0.0514
17419THY    CA131539   1.453   7.859   6.704 -0.1264 -0.7954 -0.0014
17419THY    CA231540   1.426   7.900   6.576  0.4079  0.1674 -0.0319
17419THY    CP131541   1.446   8.047   6.537  0.0430  1.1733 -0.6510
17419THY    HP131542   1.456   8.107   6.628 -0.9521  1.2203 -0.5356
17419THY    CP231543   1.323   8.095   6.451 -0.4906 -1.2935 -0.5992
17419THY    HP231544   1.317   8.204   6.440 -2.5253 -0.0578 -0.5346
17419THY    HP331545   1.236   8.067   6.511 -0.5264  0.4118  2.6581
17419THY    HP431546   1.317   8.044   6.354  1.0999 -1.6655 -0.1379
17419THY    CP331547   1.576   8.076   6.462  0.2633  0.3405  0.0869
17419THY    HP531548   1.586   8.185   6.458  0.0477 -0.3116  0.0826
17419THY    HP631549   1.595   8.031   6.364  0.9233 -0.3647  1.8163
17419THY    HP731550   1.650   8.036   6.533 -0.6388  0.2854 -1.7520
17419THY    CA331551   1.378   7.809   6.486 -0.2151  0.1551  0.8581
17419THY    HA331552   1.358   7.834   6.383 -0.3408 -0.2054 -0.6132
17419THY    CA431553   1.359   7.671   6.523  0.1598  0.2849 -0.2035
17419THY    HA431554   1.324   7.590   6.459 -1.1609  2.3964 -1.3972
17419THY    CA531555   1.382   7.633   6.654  0.2890 -0.3592 -0.1014
17419THY    CM131556   1.331   7.497   6.709 -0.3490  0.5418  0.3218
17419THY    HM131557   1.271   7.439   6.638  0.2481 -0.3126  0.7358
17419THY    HM231558   1.280   7.521   6.803 -1.4427 -0.4656  2.1867
17419THY    HM331559   1.411   7.426   6.733 -0.8082  1.3531  0.0640
17419THY    CA631560   1.437   7.724   6.743  0.5208  0.2895  0.5486
17419THY    HA631561   1.446   7.688   6.845  0.7335 -0.4773 -1.7363
17420THY      O31562   2.373   4.504   3.288  0.6480  0.3191  0.2169
17420THY     HO31563   2.295   4.548   3.250  2.0627 -1.9810  0.8733
17420THY    CA131564   2.353   4.470   3.414  0.1592 -0.5513  1.6284
17420THY    CA231565   2.450   4.393   3.484  0.2323 -0.0148 -0.1869
17420THY    CP131566   2.586   4.358   3.414 -1.5329 -0.0751  0.0785
17420THY    HP131567   2.580   4.381   3.307  1.8344 -0.1294  1.3076
17420THY    CP231568   2.630   4.216   3.438 -0.2558 -0.1255 -0.3279
17420THY    HP231569   2.697   4.197   3.523  0.8614 -1.4616 -3.0070
17420THY    HP331570   2.685   4.173   3.354  0.8827  0.7870 -0.7340
17420THY    HP431571   2.536   4.162   3.451 -0.2863 -1.3268 -0.5955
17420THY    CP331572   2.696   4.459   3.455  0.2773  0.5485 -0.3154
17420THY    HP531573   2.736   4.437   3.555 -0.0129  0.3556 -1.8112
17420THY    HP631574   2.644   4.555   3.457 -1.9380  2.7064 -1.4537
17420THY    HP731575   2.777   4.468   3.382 -0.8250 -0.4865  1.9758
17420THY    CA331576   2.423   4.354   3.622  0.3709  0.3989  0.2372
17420THY    HA331577   2.493   4.291   3.676 -0.1804  0.1126 -0.6326
17420THY    CA431578   2.297   4.373   3.673 -0.3166  0.0125  0.0486
17420THY    HA431579   2.271   4.339   3.773 -0.2106  0.2831  0.7445
17420THY    CA531580   2.198   4.431   3.597 -0.8635 -0.4138  0.3598
17420THY    CM131581   2.053   4.438   3.652  0.2560  0.0633  0.0386
17420THY    HM131582   2.018   4.541   3.668  0.7348  1.4869 -0.0063
17420THY    HM231583   2.037   4.381   3.744 -1.5644 -0.9975 -1.2368
17420THY    HM331584   1.982   4.389   3.584  0.6630  0.1637 -0.7092
17420THY    CA631585   2.231   4.489   3.472 -0.2630 -0.4661  0.3528
17420THY    HA631586   2.149   4.532   3.415 -1.9038  1.5411  0.0430
17421THY      O31587   7.594   8.723   5.736  0.0578  0.0715 -0.6597
17421THY     HO31588   7.605   8.629   5.757 -0.1407  3.1490 -0.1236
17421THY    CA131589   7.580   8.729   5.604 -0.3360  0.2293 -0.0956
17421THY    CA231590   7.652   8.817   5.525 -0.3326  0.1358  0.3968
17421THY    CP131591   7.742   8.922   5.584 -0.6463 -0.2959  0.0588
17421THY    HP131592   7.737   8.924   5.694  1.5369 -0.1552  0.2053
17421THY    CP231593   7.710   9.058   5.528  0.1982  0.1646  1.1184
17421THY    HP231594   7.793   9.123   5.558  1.1133  1.7928 -0.7044
17421THY    HP331595   7.630   9.104   5.587  0.6830 -0.0483  2.2751
17421THY    HP431596   7.677   9.052   5.424  0.5555  0.1350 -0.9461
17421THY    CP331597   7.889   8.897   5.540 -0.1135  0.5399  0.0989
17421THY    HP531598   7.952   8.979   5.574  1.8479 -0.9970 -0.6825
17421THY    HP631599   7.907   8.888   5.432 -1.2156  0.5003 -2.6151
17421THY    HP731600   7.923   8.800   5.579  1.0607 -0.4652  0.0769
17421THY    CA331601   7.646   8.801   5.380  0.6572  0.1980 -0.5890
17421THY    HA331602   7.697   8.860   5.304 -0.6062 -0.5412 -0.4178
17421THY    CA431603   7.561   8.702   5.323  0.1711 -0.0951 -0.4145
17421THY    HA431604   7.570   8.681   5.217 -0.6469 -0.1406 -0.5499
17421THY    CA531605   7.503   8.610   5.409  0.4187  0.0567 -0.4714
17421THY    CM131606   7.418   8.499   5.358 -0.2894  0.0199 -0.2554
17421THY    HM131607   7.339   8.466   5.426 -2.1154 -0.8748  2.0041
17421THY    HM231608   7.488   8.423   5.323  0.9967  1.5323  0.1698
17421THY    HM331609   7.361   8.528   5.269 -0.5801  0.2020 -0.2634
17421THY    CA631610   7.512   8.628   5.548  0.7174 -0.3117 -0.3356
17421THY    HA631611   7.473   8.544   5.605 -0.0228  0.9571  0.8300
17422THY      O31612   6.222   1.954   6.620 -0.0734  0.3948 -0.0294
17422THY     HO31613   6.312   1.949   6.655  0.4705 -0.4116  2.5228
17422THY    CA131614   6.187   2.078   6.661  0.9219 -0.0319 -0.4794
17422THY    CA231615   6.189   2.179   6.571  0.2527  0.2483  0.2340
17422THY    CP131616   6.230   2.154   6.423  0.1914 -0.7672  0.3542
17422THY    HP131617   6.291   2.063   6.423 -0.2559 -0.6281  0.0512
17422THY    CP231618   6.326   2.264   6.380  0.2961  0.0785  0.5393
17422THY    HP231619   6.374   2.233   6.286 -0.1673 -0.3512  1.1184
17422THY    HP331620   6.407   2.267   6.454 -0.2136  0.7532 -1.3459
17422THY    HP431621   6.275   2.357   6.352  2.5765 -0.1518  1.8099
17422THY    CP331622   6.111   2.137   6.329 -0.2358 -0.5720 -0.0050
17422THY    HP531623   6.151   2.086   6.240 -0.1428  0.3641 -1.6579
17422THY    HP631624   6.047   2.224   6.312 -0.7029 -0.1882 -0.2683
17422THY    HP731625   6.037   2.074   6.379 -0.5789  1.2488  1.7608
17422THY    CA331626   6.149   2.310   6.609  0.4388  0.0898  0.8220
17422THY    HA331627   6.166   2.394   6.543 -0.0743 -1.5899 -0.3561
17422THY    CA431628   6.112   2.330   6.742  0.2097 -0.0525  0.1216
17422THY    HA431629   6.091   2.431   6.777  2.0832  0.7433  0.2708
17422THY    CA531630   6.113   2.225   6.833  0.5482 -0.0045 -0.3979
17422THY    CM131631   6.065   2.254   6.971 -0.3177 -0.3318  0.8206
17422THY    HM131632   6.147   2.290   7.034 -0.0999 -0.3469  0.3632
17422THY    HM231633   6.021   2.168   7.024  1.9626  3.2810  1.6932
17422THY    HM331634   5.993   2.336   6.966  0.4769 -1.3007  1.4873
17422THY    CA631635   6.155   2.099   6.792 -0.2922  0.7025  0.0274
17422THY    HA631636   6.155   2.010   6.855  2.3828 -0.1984 -0.7317
17423THY      O31637   8.896   5.312   2.348 -0.4279 -0.4273 -0.3640
17423THY     HO31638   8.825   5.254   2.315 -1.3929  1.0989 -0.1144
17423THY    CA131639   9.014   5.256   2.306  0.8244  0.4636  0.9214
17423THY    CA231640   9.139   5.311   2.337  0.0368  1.0231 -0.0038
17423THY    CP131641   9.143   5.431   2.430 -0.4531  1.2858  0.2152
17423THY    HP131642   9.046   5.483   2.419 -0.5201 -1.4211 -0.3306
17423THY    CP231643   9.257   5.529   2.395 -0.0732 -0.1743  0.5274
17423THY    HP231644   9.273   5.556   2.290  2.2891 -0.8659 -2.7855
17423THY    HP331645   9.349   5.473   2.419 -0.9309 -1.4685 -1.5922
17423THY    HP431646   9.244   5.619   2.456  0.8146  1.9739 -0.6994
17423THY    CP331647   9.162   5.374   2.567 -0.5673  0.2402 -0.1566
17423THY    HP531648   9.169   5.455   2.641  1.0953  0.1685 -0.2128
17423THY    HP631649   9.262   5.329   2.576 -0.6127 -1.6462 -0.7040
17423THY    HP731650   9.082   5.311   2.608  0.4101  1.3343 -0.7368
17423THY    CA331651   9.248   5.252   2.280  0.2038 -0.0587 -0.3747
17423THY    HA331652   9.344   5.300   2.298  0.2865 -0.4917 -0.3771
17423THY    CA431653   9.247   5.133   2.221  0.4580  0.2331 -0.1067
17423THY    HA431654   9.339   5.085   2.189 -1.0786 -0.0765 -3.0477
17423THY    CA531655   9.122   5.071   2.191 -0.8449  0.2530 -0.4382
17423THY    CM131656   9.120   4.937   2.129  0.0847  0.7930  0.3862
17423THY    HM131657   9.211   4.914   2.072  0.3669  1.7331 -0.9031
17423THY    HM231658   9.039   4.942   2.055 -0.0485  0.7917 -1.3075
17423THY    HM331659   9.097   4.857   2.200  1.5877  1.3187  0.3902
17423THY    CA631660   9.009   5.138   2.228  0.1886 -0.7148  0.1938
17423THY    HA631661   8.912   5.091   2.218  0.5128 -0.7395 -0.4841
17424THY      O31662   4.959   1.849   4.526  0.1786  0.7565  0.0033
17424THY     HO31663   4.962   1.845   4.623 -0.9492  0.7808 -0.7029
17424THY    CA131664   5.078   1.795   4.475 -0.0843 -0.3898  0.9042
17424THY    CA231665   5.102   1.779   4.333  0.3251  0.5024  0.0489
17424THY    CP131666   5.004   1.825   4.225 -0.2039 -0.4622 -0.6922
17424THY    HP131667   4.913   1.848   4.282 -0.0432 -0.6368  0.4302
17424THY    CP231668   4.960   1.709   4.132 -0.6166 -0.0658  0.3814
17424THY    HP231669   5.047   1.680   4.072 -0.2933  1.4212 -2.0577
17424THY    HP331670   4.886   1.752   4.064 -0.4279  0.4339  1.5276
17424THY    HP431671   4.929   1.628   4.199 -0.5519 -0.3475  0.1224
17424THY    CP331672   5.054   1.958   4.165  0.4910  0.0595  0.0919
17424THY    HP531673   4.984   2.042   4.156 -0.9152 -0.0472 -1.0661
17424THY    HP631674   5.131   1.930   4.092  0.1582 -0.4656  0.5489
17424THY    HP731675   5.118   2.006   4.241 -1.7884 -0.2348  4.0696
17424THY    CA331676   5.227   1.731   4.292 -0.5517  0.0593 -0.1500
17424THY    HA331677   5.247   1.732   4.185  0.9366  0.3151  0.8664
17424THY    CA431678   5.325   1.686   4.387  0.2600  0.5611 -0.3856
17424THY    HA431679   5.419   1.637   4.363  0.2017  1.8954 -1.1810
17424THY    CA531680   5.294   1.694   4.528  0.0400 -0.1386  0.4193
17424THY    CM131681   5.382   1.636   4.633 -0.1440 -0.3852  0.3916
17424THY    HM131682   5.381   1.682   4.732  1.0708  0.2926 -0.9504
17424THY    HM231683   5.480   1.633   4.584  0.3513  0.4535  1.8121
17424THY    HM331684   5.352   1.534   4.660  2.9601  0.7177 -0.3388
17424THY    CA631685   5.173   1.747   4.562 -0.2353 -0.5061 -0.4509
17424THY    HA631686   5.156   1.757   4.669  1.5159 -0.1742 -0.5733
17425THY      O31687   4.775   7.137   6.594  0.8124  0.4869  0.4075
17425THY     HO31688   4.778   7.234   6.605  3.0105 -1.6772  0.6760
17425THY    CA131689   4.900   7.093   6.621 -0.1877 -0.2103  0.2948
17425THY    CA231690   4.932   6.959   6.588 -0.3242 -0.5099  0.4190
17425THY    CP131691   4.820   6.865   6.539  0.2437  0.7611 -0.2562
17425THY    HP131692   4.730   6.921   6.512 -0.7688  0.3790 -2.0164
17425THY    CP231693   4.770   6.768   6.646 -0.2066  0.4885 -0.4087
17425THY    HP231694   4.779   6.833   6.734  3.1506  0.2634 -0.4100
17425THY    HP331695   4.841   6.685   6.652  1.6570 -0.8323  1.0180
17425THY    HP431696   4.673   6.716   6.645 -0.0855  2.9429 -0.8058
17425THY    CP331697   4.851   6.774   6.419  0.2659 -0.5694  0.0113
17425THY    HP531698   4.924   6.699   6.451  0.4266  2.1857  1.2214
17425THY    HP631699   4.892   6.842   6.343 -0.8840 -1.1746  0.0577
17425THY    HP731700   4.765   6.717   6.382 -0.8280  2.5720 -0.5906
17425THY    CA331701   5.072   6.914   6.597 -0.1355  0.4129  0.0067
17425THY    HA331702   5.107   6.815   6.568 -0.3930 -2.5699  0.6778
17425THY    CA431703   5.163   7.005   6.657  0.0720  0.1344  0.4187
17425THY    HA431704   5.264   6.971   6.674 -0.9933  1.0166 -2.6688
17425THY    CA531705   5.133   7.134   6.688 -0.5042 -0.9585 -0.1147
17425THY    CM131706   5.234   7.232   6.749  0.2653 -0.1202  0.0316
17425THY    HM131707   5.193   7.319   6.802  1.5958  4.0782 -1.6188
17425THY    HM231708   5.306   7.261   6.673 -0.1650  0.2750  2.3850
17425THY    HM331709   5.282   7.171   6.827 -1.8231 -0.0253 -1.6342
17425THY    CA631710   4.999   7.179   6.660 -0.7964  0.0742  0.3704
17425THY    HA631711   4.971   7.280   6.688 -1.7128  0.4000  0.0426
17426THY      O31712   6.270   3.734   5.824  0.2084 -0.1492 -0.3437
17426THY     HO31713   6.233   3.717   5.736 -0.2503  0.1271 -0.7902
17426THY    CA131714   6.355   3.628   5.842 -0.0332 -0.1292 -0.0414
17426THY    CA231715   6.392   3.592   5.977 -0.2390  0.0666 -0.5581
17426THY    CP131716   6.322   3.640   6.097  0.2247  0.0801 -0.5959
17426THY    HP131717   6.225   3.675   6.058  0.3310 -0.7137 -1.1671
17426THY    CP231718   6.396   3.764   6.155 -0.6615 -0.4888  0.5928
17426THY    HP231719   6.502   3.743   6.174 -0.5181 -0.7677  1.0248
17426THY    HP331720   6.350   3.801   6.247  0.9939  0.4077  0.5547
17426THY    HP431721   6.399   3.850   6.086  2.8878 -0.7970  0.3816
17426THY    CP331722   6.298   3.544   6.206 -0.0432 -0.2269 -0.1486
17426THY    HP531723   6.394   3.502   6.235  0.4478  0.1939  1.2108
17426THY    HP631724   6.233   3.464   6.170 -1.2766  1.1441  0.1981
17426THY    HP731725   6.247   3.590   6.291  0.2071  0.5409 -1.2703
17426THY    CA331726   6.493   3.488   5.983  0.4618 -0.6097  0.2081
17426THY    HA331727   6.526   3.459   6.082 -1.4385  0.3676  1.2253
17426THY    CA431728   6.530   3.413   5.867 -0.4212 -0.1836  0.2899
17426THY    HA431729   6.606   3.337   5.882 -0.1024 -1.7712  0.2696
17426THY    CA531730   6.485   3.456   5.736  0.0619  0.0526  0.9506
17426THY    CM131731   6.527   3.407   5.604 -0.0744  0.0305 -0.2671
17426THY    HM131732   6.613   3.341   5.622 -0.3803  2.0568 -0.1681
17426THY    HM231733   6.529   3.490   5.532  1.1371  1.1442  0.7308
17426THY    HM331734   6.452   3.340   5.561  1.7003  1.4446 -3.3855
17426THY    CA631735   6.403   3.567   5.731 -0.1465 -0.1970 -0.6688
17426THY    HA631736   6.381   3.608   5.632 -0.3654  1.1882  2.9797
17427THY      O31737   3.350   1.679   2.867  0.0870 -0.5484  0.6360
17427THY     HO31738   3.271   1.708   2.818  0.6124 -2.3087 -0.6948
17427THY    CA131739   3.343   1.542   2.861  0.2406 -0.4596  0.0108
17427THY    CA231740   3.453   1.462   2.883 -0.0214  0.1850  0.1541
17427THY    CP131741   3.595   1.529   2.908 -0.5203  0.0396 -0.1090
17427THY    HP131742   3.607   1.611   2.837 -3.1442 -0.0050  0.3044
17427THY    CP231743   3.712   1.439   2.873 -0.9436 -0.2668 -0.1608
17427THY    HP231744   3.716   1.404   2.769  0.9092 -0.1109 -0.5383
17427THY    HP331745   3.715   1.350   2.937 -0.0446  0.5449  0.4383
17427THY    HP431746   3.804   1.492   2.899 -0.8746  2.1499 -1.3493
17427THY    CP331747   3.612   1.575   3.056  0.0606  0.3855 -0.1905
17427THY    HP531748   3.714   1.614   3.063 -0.1430  0.4375  0.3447
17427THY    HP631749   3.603   1.493   3.128 -0.6228  1.9343  1.2029
17427THY    HP731750   3.530   1.641   3.087  0.1547  1.4757 -0.5732
17427THY    CA331751   3.430   1.324   2.878  0.0401 -0.5758  0.6532
17427THY    HA331752   3.509   1.254   2.901  0.1919  2.8314  1.7791
17427THY    CA431753   3.300   1.267   2.843  0.5995 -0.0966 -0.6463
17427THY    HA431754   3.281   1.160   2.838  0.1251 -0.5185 -0.5465
17427THY    CA531755   3.197   1.352   2.818 -0.2489  0.0882 -0.2668
17427THY    CM131756   3.068   1.302   2.760 -0.1530 -0.5963  0.3939
17427THY    HM131757   3.052   1.196   2.785  0.4466 -0.1903  0.3890
17427THY    HM231758   3.063   1.305   2.651  0.1576 -0.6689 -0.8579
17427THY    HM331759   2.984   1.361   2.799 -0.2369 -1.2360  0.7028
17427THY    CA631760   3.218   1.489   2.834  0.7698 -0.0125 -0.2427
17427THY    HA631761   3.138   1.556   2.805 -2.3183  0.6359 -3.3193
17428THY      O31762   5.347   6.299   6.715  0.0696  0.2778 -0.1481
17428THY     HO31763   5.281   6.353   6.669  0.8144  0.3965  0.8875
17428THY    CA131764   5.414   6.385   6.799 -0.0866  0.3760 -0.1026
17428THY    CA231765   5.527   6.351   6.869 -0.0892 -0.1643 -0.4383
17428THY    CP131766   5.582   6.208   6.871 -0.0196 -0.4746 -0.5107
17428THY    HP131767   5.529   6.150   6.795 -0.1356 -0.4934 -0.3780
17428THY    CP231768   5.557   6.140   7.012 -0.0738  0.2520 -0.3244
17428THY    HP231769   5.455   6.156   7.047 -0.2625  0.0815 -1.1177
17428THY    HP331770   5.641   6.155   7.082  2.5957 -2.6232 -0.7799
17428THY    HP431771   5.561   6.035   6.981 -2.5109  0.0333 -0.3951
17428THY    CP331772   5.732   6.207   6.834 -0.7040 -0.0599  0.2391
17428THY    HP531773   5.795   6.253   6.911  0.3750 -0.3926 -0.6414
17428THY    HP631774   5.754   6.261   6.742 -2.0776 -0.2510  0.5119
17428THY    HP731775   5.758   6.101   6.824  0.4103 -0.0643  0.5012
17428THY    CA331776   5.576   6.447   6.950 -0.9081  0.3563 -0.5647
17428THY    HA331777   5.662   6.430   7.014  0.3908 -0.9725  0.8164
17428THY    CA431778   5.531   6.577   6.953  0.1300 -0.1620  0.1072
17428THY    HA431779   5.581   6.644   7.022 -0.3988 -0.4931  0.8517
17428THY    CA531780   5.421   6.613   6.889 -0.2881  0.7580  0.7731
17428THY    CM131781   5.383   6.761   6.872  0.2951 -0.6571 -0.5566
17428THY    HM131782   5.460   6.832   6.905  0.2079  2.7494 -1.8328
17428THY    HM231783   5.296   6.786   6.933  1.0998  0.6361 -0.7907
17428THY    HM331784   5.364   6.786   6.767  1.2855 -0.6016  0.5109
17428THY    CA631785   5.354   6.513   6.808 -0.1131 -0.2503  0.5557
17428THY    HA631786   5.271   6.545   6.746  0.4268 -1.4662 -0.3149
17429THY      O31787   8.619   6.480   1.954 -0.0671 -0.0151 -0.1770
17429THY     HO31788   8.550   6.514   1.895 -0.8340  1.1495  0.3554
17429THY    CA131789   8.572   6.356   1.993  0.7191  0.5190 -0.6041
17429THY    CA231790   8.651   6.238   2.004 -0.1714 -0.0467 -0.0067
17429THY    CP131791   8.805   6.250   1.977  0.0550 -0.1331 -0.0562
17429THY    HP131792   8.830   6.355   1.993  0.0292  1.0521 -0.2220
17429THY    CP231793   8.831   6.210   1.832 -0.6826  0.0331 -0.4377
17429THY    HP231794   8.775   6.275   1.764 -1.0092 -0.5888 -1.3481
17429THY    HP331795   8.799   6.108   1.810  0.3056 -1.6000 -0.4176
17429THY    HP431796   8.935   6.233   1.805 -1.5669 -0.3447  3.8590
17429THY    CP331797   8.884   6.179   2.085  0.6605  0.1468 -0.1742
17429THY    HP531798   8.990   6.190   2.063  0.7023  0.7816  0.7873
17429THY    HP631799   8.864   6.071   2.081 -2.2696 -1.8195  0.3253
17429THY    HP731800   8.868   6.233   2.179  0.9390  0.2503 -0.2707
17429THY    CA331801   8.590   6.112   2.036  0.0972  0.5019 -0.0011
17429THY    HA331802   8.648   6.020   2.037  0.3324  0.1716  0.1428
17429THY    CA431803   8.448   6.114   2.053 -0.3603  0.2651 -0.4677
17429THY    HA431804   8.393   6.022   2.066 -1.4676  1.2508  0.2960
17429THY    CA531805   8.374   6.232   2.050 -0.2501  0.5572 -0.2490
17429THY    CM131806   8.227   6.231   2.063  0.4441 -0.0054 -0.8666
17429THY    HM131807   8.177   6.235   1.965  1.2114 -0.4021 -0.5420
17429THY    HM231808   8.191   6.320   2.117  0.4787 -0.3676 -0.6289
17429THY    HM331809   8.197   6.144   2.122 -0.4044  1.0908  0.1305
17429THY    CA631810   8.435   6.348   2.021  0.1261 -0.1069 -0.7191
17429THY    HA631811   8.374   6.437   2.011 -0.6962  1.7477 -1.0240
17430THY      O31812   2.810   1.948   4.069  0.1825 -0.1344 -0.3344
17430THY     HO31813   2.823   1.896   4.150  0.9156 -0.8764 -1.3591
17430THY    CA131814   2.883   2.066   4.086  0.9456  0.5357  0.5023
17430THY    CA231815   2.849   2.170   4.002 -0.1772  0.0646 -0.8893
17430THY    CP131816   2.751   2.159   3.889 -0.0166  0.4594  0.0224
17430THY    HP131817   2.762   2.062   3.839 -1.4559 -1.9513  1.0166
17430THY    CP231818   2.766   2.265   3.780 -0.6904  0.3594  0.3035
17430THY    HP231819   2.865   2.284   3.735 -1.7533 -2.2600  0.0581
17430THY    HP331820   2.728   2.353   3.832  0.2756  1.5133  0.0565
17430THY    HP431821   2.690   2.248   3.703 -0.0521 -0.0530 -0.7765
17430THY    CP331822   2.607   2.164   3.932  0.1716 -0.2815  0.3495
17430THY    HP531823   2.568   2.264   3.954  1.8140  1.7736  0.5955
17430THY    HP631824   2.590   2.117   4.030  0.7272  0.6236  1.9666
17430THY    HP731825   2.548   2.117   3.852  1.4960 -0.3340 -1.3018
17430THY    CA331826   2.922   2.291   4.026 -0.3790  0.4797  0.3187
17430THY    HA331827   2.910   2.383   3.970  0.3659 -2.5455 -1.2785
17430THY    CA431828   3.019   2.295   4.133 -0.4202  0.0950  0.8027
17430THY    HA431829   3.064   2.390   4.163  0.2270  0.6340  0.3392
17430THY    CA531830   3.031   2.187   4.218  0.5763  0.9692  0.6481
17430THY    CM131831   3.111   2.196   4.342  0.2412 -0.8557 -0.1485
17430THY    HM131832   3.111   2.294   4.392  1.2368  0.4195 -0.7724
17430THY    HM231833   3.214   2.190   4.305 -0.3271 -2.3845 -1.0852
17430THY    HM331834   3.083   2.123   4.419  0.0838 -0.4405  0.3326
17430THY    CA631835   2.975   2.068   4.185  0.8233  0.4273  0.2228
17430THY    HA631836   2.993   1.989   4.257  1.2412  2.5961  2.1838
17431THY      O31837   3.144   4.121   4.161  0.0682 -0.7070  0.5531
17431THY     HO31838   3.158   4.062   4.086  3.8920 -0.2084  0.6270
17431THY    CA131839   3.201   4.058   4.264  0.1680 -0.4496  0.3459
17431THY    CA231840   3.203   4.123   4.394 -0.3509  0.0720 -0.0521
17431THY    CP131841   3.144   4.264   4.406  0.3323 -0.1224 -0.5786
17431THY    HP131842   3.110   4.305   4.310  0.5591 -0.0754 -0.2798
17431THY    CP231843   3.252   4.367   4.457 -0.1099  0.6826  0.1318
17431THY    HP231844   3.305   4.320   4.540 -1.9148  1.3900 -0.7755
17431THY    HP331845   3.216   4.466   4.487  0.2412 -0.2126  0.5359
17431THY    HP431846   3.323   4.390   4.376  0.0415  0.9467  0.6010
17431THY    CP331847   3.026   4.251   4.507 -0.4719  0.2513 -0.1072
17431THY    HP531848   3.064   4.204   4.598  0.4417 -1.8706 -3.8928
17431THY    HP631849   2.936   4.210   4.461  0.7326  0.1902 -2.8964
17431THY    HP731850   3.001   4.356   4.531  0.2709 -0.2925  0.2019
17431THY    CA331851   3.279   4.054   4.493  0.2304 -0.1040 -0.2584
17431THY    HA331852   3.284   4.105   4.589 -0.3721 -0.7819  1.1350
17431THY    CA431853   3.330   3.930   4.472 -0.5261 -0.2406  0.3591
17431THY    HA431854   3.382   3.878   4.552  1.7456 -1.6710  0.2946
17431THY    CA531855   3.325   3.870   4.345 -0.2238 -0.0823  0.6756
17431THY    CM131856   3.383   3.731   4.320  0.0962 -0.2403 -0.6803
17431THY    HM131857   3.308   3.657   4.292 -0.8677 -1.1538  0.6005
17431THY    HM231858   3.435   3.688   4.407 -0.6732  1.0594  0.8949
17431THY    HM331859   3.456   3.730   4.238 -0.7997 -1.0922 -3.2486
17431THY    CA631860   3.265   3.940   4.241  0.0225 -0.8586  0.4508
17431THY    HA631861   3.265   3.893   4.144 -1.9841 -0.5386 -0.3075
17432THY      O31862   3.068   0.834   7.791  0.3418  0.0581 -0.3142
17432THY     HO31863   3.062   0.858   7.886  0.9640 -0.1008  0.5290
17432THY    CA131864   2.960   0.894   7.725 -0.7958  0.5489 -0.2206
17432THY    CA231865   2.883   0.826   7.626 -0.7028 -0.6853  0.2750
17432THY    CP131866   2.937   0.697   7.558  0.0282 -0.1426  0.0297
17432THY    HP131867   3.012   0.657   7.629  0.7174 -2.4410 -3.1337
17432THY    CP231868   3.001   0.704   7.415  0.6737 -0.1176  0.3299
17432THY    HP231869   3.062   0.614   7.398 -0.8444  0.8690 -0.9579
17432THY    HP331870   3.065   0.792   7.404  0.3630  0.3027  0.6146
17432THY    HP431871   2.925   0.713   7.336  0.4801 -0.5918 -3.5336
17432THY    CP331872   2.834   0.588   7.562  0.2492 -0.4427  0.7899
17432THY    HP531873   2.741   0.584   7.504 -0.5999  0.8638  0.8501
17432THY    HP631874   2.781   0.575   7.657 -2.5997 -1.9795  0.1362
17432THY    HP731875   2.889   0.496   7.539 -1.1450  0.4439 -0.3001
17432THY    CA331876   2.763   0.883   7.576 -0.0015 -0.3373 -0.3858
17432THY    HA331877   2.693   0.840   7.505 -1.6200  0.7441  0.3701
17432THY    CA431878   2.732   1.012   7.624  0.2927  0.6082  0.2192
17432THY    HA431879   2.635   1.048   7.590  0.7436 -2.8355 -1.4442
17432THY    CA531880   2.798   1.070   7.732  0.4061  0.1578  0.0932
17432THY    CM131881   2.754   1.193   7.794  0.0964 -0.3684 -0.2167
17432THY    HM131882   2.658   1.224   7.752 -0.5693  0.3293 -1.2988
17432THY    HM231883   2.832   1.270   7.786  0.2397 -1.2613 -0.4367
17432THY    HM331884   2.736   1.168   7.899  1.5098 -0.5875 -2.4349
17432THY    CA631885   2.911   1.011   7.780 -0.8136  0.1327 -0.0817
17432THY    HA631886   2.959   1.046   7.871  0.0648  0.3069 -1.6459
17433THY      O31887   1.414   2.914   5.354  0.3281  0.1871  0.0703
17433THY     HO31888   1.496   2.966   5.365 -0.0686 -0.2438  0.7941
17433THY    CA131889   1.432   2.805   5.275 -0.0055 -0.1100  0.3566
17433THY    CA231890   1.381   2.680   5.314 -0.7079 -0.6032  0.0405
17433THY    CP131891   1.290   2.652   5.436 -0.6956  0.1606 -0.3992
17433THY    HP131892   1.335   2.706   5.520  1.1911 -0.8289 -0.3450
17433THY    CP231893   1.301   2.508   5.491 -0.1020  0.2361 -0.3920
17433THY    HP231894   1.408   2.491   5.508  0.2815  0.4454  1.8572
17433THY    HP331895   1.273   2.449   5.402  2.0993 -3.3247  3.3883
17433THY    HP431896   1.230   2.492   5.572  1.4224  2.0185  1.3535
17433THY    CP331897   1.150   2.696   5.400  0.2205 -0.1846 -0.4135
17433THY    HP531898   1.153   2.806   5.397  0.7877 -0.3742 -0.4335
17433THY    HP631899   1.069   2.675   5.471 -1.0365 -1.2672  0.6358
17433THY    HP731900   1.119   2.670   5.299 -0.0953 -0.2133  0.0618
17433THY    CA331901   1.413   2.573   5.218 -0.1744 -0.2520  0.3639
17433THY    HA331902   1.362   2.478   5.232  1.6637 -0.4782 -0.6940
17433THY    CA431903   1.504   2.584   5.118 -0.5129 -0.9152  0.2578
17433THY    HA431904   1.529   2.497   5.057  1.6959  1.0390 -0.5821
17433THY    CA531905   1.562   2.704   5.097 -0.3305 -0.0378 -0.1889
17433THY    CM131906   1.677   2.708   4.998  0.3382  0.4550 -0.0651
17433THY    HM131907   1.759   2.642   5.030 -0.0981  2.6228  0.3461
17433THY    HM231908   1.722   2.808   5.002  1.0091 -0.3561 -0.3243
17433THY    HM331909   1.652   2.671   4.898  1.2156  0.5080 -0.8486
17433THY    CA631910   1.523   2.817   5.175  0.2526 -0.1085  1.0267
17433THY    HA631911   1.566   2.916   5.157  2.0280  0.1211  0.3469
17434THY      O31912   9.033   0.435   3.438  0.0966  0.3999 -0.0115
17434THY     HO31913   8.996   0.345   3.447  0.2010  0.3329 -0.0613
17434THY    CA131914   8.926   0.516   3.458 -0.0639 -0.0764 -0.0967
17434THY    CA231915   8.929   0.650   3.470 -0.0988 -0.0990 -0.0643
17434THY    CP131916   9.063   0.714   3.487  0.4943 -0.1300  0.3509
17434THY    HP131917   9.132   0.649   3.542  0.6188 -0.0170  0.5761
17434THY    CP231918   9.053   0.826   3.578  0.2956 -0.1512 -0.7956
17434THY    HP231919   8.986   0.819   3.664  0.0581 -0.4124 -1.8173
17434THY    HP331920   9.018   0.915   3.524 -1.9420  2.7964  0.2578
17434THY    HP431921   9.150   0.856   3.619  0.5477 -1.9835  1.1649
17434THY    CP331922   9.118   0.754   3.350  0.8190 -0.2061 -0.1789
17434THY    HP531923   9.154   0.670   3.289  0.7601 -0.9817  0.3534
17434THY    HP631924   9.196   0.829   3.367 -0.7931 -0.1127  1.5560
17434THY    HP731925   9.041   0.813   3.300  0.0917 -0.7296 -1.5195
17434THY    CA331926   8.806   0.723   3.476  0.1189  0.2934 -0.4945
17434THY    HA331927   8.807   0.830   3.494 -1.2008  1.0629 -0.5880
17434THY    CA431928   8.684   0.660   3.453  0.0835 -0.0641  0.1870
17434THY    HA431929   8.583   0.701   3.449  0.0394 -1.9404 -0.0324
17434THY    CA531930   8.686   0.522   3.436  0.2985 -0.1292 -0.1567
17434THY    CM131931   8.565   0.446   3.438  0.3014 -0.2841  0.7090
17434THY    HM131932   8.483   0.499   3.489  0.3387  1.0329 -0.4577
17434THY    HM231933   8.571   0.357   3.502 -2.1426  2.7412  2.5155
17434THY    HM331934   8.523   0.425   3.338  0.4479 -0.5938  1.8447
17434THY    CA631935   8.807   0.449   3.452 -0.0453 -0.3166 -0.0909
17434THY    HA631936   8.803   0.340   3.456 -0.6920  0.6334 -0.0464
17435THY      O31937   0.557   1.270   3.678 -0.2180 -0.5852  0.0928
17435THY     HO31938   0.554   1.211   3.601  1.4809  0.9834 -2.2693
17435THY    CA131939   0.620   1.194   3.757  0.2559 -0.4063  0.3935
17435THY    CA231940   0.652   1.229   3.892 -0.0637  0.5238 -0.1501
17435THY    CP131941   0.609   1.362   3.945 -0.5220  0.3811  0.5005
17435THY    HP131942   0.641   1.431   3.867  1.7463  3.8403  3.7599
17435THY    CP231943   0.701   1.413   4.067 -0.2432 -0.0728  0.6161
17435THY    HP231944   0.670   1.365   4.160  1.8670  0.5697  0.4055
17435THY    HP331945   0.695   1.522   4.078 -0.0712  1.7036  0.4786
17435THY    HP431946   0.808   1.393   4.049 -0.3315 -1.2164  1.0977
17435THY    CP331947   0.457   1.370   3.989  0.3940 -0.3584  0.0032
17435THY    HP531948   0.383   1.364   3.909 -1.0559  0.8523  0.8911
17435THY    HP631949   0.438   1.470   4.031 -1.0754 -0.9323 -0.0216
17435THY    HP731950   0.427   1.300   4.067 -3.4337 -2.7613 -1.3273
17435THY    CA331951   0.745   1.149   3.967  0.2173 -0.2342 -0.1228
17435THY    HA331952   0.778   1.174   4.067  2.5495 -1.0891  0.4692
17435THY    CA431953   0.788   1.038   3.902 -0.2275  0.2575 -0.5757
17435THY    HA431954   0.863   0.974   3.949  1.3487 -2.2804 -0.7351
17435THY    CA531955   0.744   1.002   3.772 -0.4000 -0.4963  0.2848
17435THY    CM131956   0.778   0.866   3.718  0.0769  0.8726  0.4860
17435THY    HM131957   0.723   0.847   3.625 -1.1021  1.5014  0.6830
17435THY    HM231958   0.735   0.803   3.797 -0.8419  0.8174  1.0180
17435THY    HM331959   0.887   0.858   3.708 -0.1794 -0.6784 -2.1302
17435THY    CA631960   0.662   1.075   3.699 -0.5324  0.6859 -0.1914
17435THY    HA631961   0.645   1.042   3.597  0.8176  0.6477 -0.8167
17436THY      O31962   8.968   2.064   6.013 -0.2162  0.7876  0.4793
17436THY     HO31963   9.053   2.085   5.970 -1.1036 -0.5079  1.6151
17436THY    CA131964   8.887   2.081   5.903 -0.3842 -0.6360 -0.2428
17436THY    CA231965   8.751   2.051   5.911 -0.3300  0.2694 -0.2055
17436THY    CP131966   8.689   1.976   6.029 -0.5175 -0.3995 -0.4234
17436THY    HP131967   8.748   1.999   6.119 -1.7920  0.2230  0.5752
17436THY    CP231968   8.697   1.825   5.995 -0.6504  0.0406 -0.9043
17436THY    HP231969   8.644   1.808   5.901 -0.3095 -1.1924  3.6829
17436THY    HP331970   8.661   1.760   6.076 -1.3678  0.7628  0.3410
17436THY    HP431971   8.803   1.806   5.974 -0.4485 -0.1577  0.3824
17436THY    CP331972   8.537   2.011   6.060 -0.6453  0.6464  0.5987
17436THY    HP531973   8.517   2.116   6.088 -0.6248 -0.9439  1.0441
17436THY    HP631974   8.500   1.939   6.134 -0.4775 -1.3070 -1.5871
17436THY    HP731975   8.470   1.988   5.977 -2.0235  1.6259  0.9668
17436THY    CA331976   8.672   2.083   5.797  0.3179  0.0951  0.4580
17436THY    HA331977   8.566   2.059   5.799  0.2543 -2.2382  0.3855
17436THY    CA431978   8.722   2.151   5.683 -0.0733 -0.2513 -0.8046
17436THY    HA431979   8.655   2.167   5.599 -3.3481  2.3834  0.4690
17436THY    CA531980   8.857   2.188   5.687  0.3033  0.0517  0.3398
17436THY    CM131981   8.912   2.253   5.567 -0.3680 -0.2247  0.5366
17436THY    HM131982   8.918   2.358   5.597 -0.2128  4.5536 -0.6139
17436THY    HM231983   8.846   2.251   5.480 -1.9936  0.9188  1.8351
17436THY    HM331984   9.009   2.214   5.534  0.9840  3.9726 -0.1936
17436THY    CA631985   8.944   2.152   5.791  0.1515  0.1462 -0.2386
17436THY    HA631986   9.047   2.186   5.797 -0.3718  0.9981  1.3224
17437THY      O31987   6.145   8.951   7.089  0.0644 -0.6257 -0.1354
17437THY     HO31988   6.238   8.951   7.062  1.0251  2.0385  2.9809
17437THY    CA131989   6.084   8.852   7.024 -0.3275  0.1004 -0.9298
17437THY    CA231990   5.990   8.762   7.075 -0.5229  0.1934 -1.2299
17437THY    CP131991   5.925   8.797   7.207  0.0836  0.0296 -0.4319
17437THY    HP131992   5.965   8.886   7.256  0.9876  0.7392 -1.2051
17437THY    CP231993   5.937   8.688   7.304 -0.3060 -0.2106 -0.4247
17437THY    HP231994   5.928   8.590   7.254 -1.1322  1.0110 -0.9993
17437THY    HP331995   5.878   8.699   7.396  2.0804  1.1397  2.4721
17437THY    HP431996   6.041   8.700   7.334 -0.3277 -0.8151  1.6900
17437THY    CP331997   5.775   8.829   7.178  0.0108  0.6769  0.5044
17437THY    HP531998   5.755   8.902   7.098 -1.5756  1.6437  1.1952
17437THY    HP631999   5.732   8.863   7.273  1.1912  1.2460  0.4636
17437THY    HP732000   5.723   8.737   7.148 -0.7705  0.1183  1.1196
17437THY    CA332001   5.929   8.663   7.001  0.1569  0.0954 -0.0714
17437THY    HA332002   5.859   8.598   7.052  1.0223  3.1475  1.2266
17437THY    CA432003   5.967   8.643   6.867  0.9899  0.4980 -0.0723
17437THY    HA432004   5.926   8.561   6.809  0.4565  0.0819  0.4825
17437THY    CA532005   6.071   8.722   6.816 -0.3123 -0.3422  0.1060
17437THY    CM132006   6.109   8.691   6.681 -0.8276  0.7657  0.4333
17437THY    HM132007   6.032   8.712   6.606  2.4422 -3.4600 -1.3430
17437THY    HM232008   6.128   8.584   6.672  0.9907  3.0775  0.4757
17437THY    HM332009   6.198   8.742   6.642  0.5585  0.2996 -2.1662
17437THY    CA632010   6.134   8.822   6.892 -0.1423 -0.2601  0.2926
17437THY    HA632011   6.219   8.873   6.847  1.3174  0.8077 -1.1002
17438THY      O32012   5.254   1.803   3.213 -0.7215  0.0412 -0.1059
17438THY     HO32013   5.345   1.768   3.217 -0.2543 -0.7024  0.9660
17438THY    CA132014   5.265   1.906   3.127 -0.4053  0.4297  0.3101
17438THY    CA232015   5.249   2.037   3.169  0.8073 -0.8491 -0.6524
17438THY    CP132016   5.211   2.076   3.314  0.3821  0.1048  0.1873
17438THY    HP132017   5.174   1.991   3.372  1.6923  1.2313  0.3444
17438THY    CP232018   5.086   2.165   3.313  0.2405  0.2405 -0.3117
17438THY    HP232019   4.999   2.115   3.267 -1.5204  0.7089  2.1568
17438THY    HP332020   5.107   2.259   3.261 -0.5168 -0.6858 -0.6376
17438THY    HP432021   5.053   2.198   3.412  0.6787  1.3696 -2.9722
17438THY    CP332022   5.316   2.140   3.395 -0.7557 -0.5782  0.3997
17438THY    HP532023   5.301   2.149   3.503 -2.8644 -0.7729 -0.2687
17438THY    HP632024   5.332   2.239   3.352 -1.4329  0.2579  0.8839
17438THY    HP732025   5.411   2.087   3.380 -0.9478  1.6800 -0.6953
17438THY    CA332026   5.257   2.136   3.071 -0.2149  0.8072 -0.0585
17438THY    HA332027   5.243   2.241   3.094 -3.1746 -2.4600  0.4636
17438THY    CA432028   5.266   2.100   2.935 -0.0491 -0.2528  0.7073
17438THY    HA432029   5.276   2.175   2.857 -0.1871 -1.0207 -0.0592
17438THY    CA532030   5.276   1.960   2.902  0.1780  0.2028  0.5986
17438THY    CM132031   5.307   1.912   2.763  0.4700 -0.3618 -0.0768
17438THY    HM132032   5.258   1.815   2.746 -3.1413  1.0735  1.3229
17438THY    HM232033   5.415   1.915   2.744  0.7187  0.9619  0.2137
17438THY    HM332034   5.250   1.983   2.702 -1.1998  0.4877 -0.6218
17438THY    CA632035   5.278   1.863   2.999  0.1537 -1.0665  0.4781
17438THY    HA632036   5.269   1.758   2.970  0.5432  2.3473 -0.5961
17439THY      O32037   1.643   5.908   6.595 -0.1779  0.3679  0.0934
17439THY     HO32038   1.664   5.854   6.517 -2.9087 -1.2178  1.0839
17439THY    CA132039   1.605   6.029   6.549 -1.0095  0.3210  1.1664
17439THY    CA232040   1.568   6.128   6.633 -0.3606 -0.3427 -0.2614
17439THY    CP132041   1.549   6.115   6.782 -0.6482 -0.8534  0.3452
17439THY    HP132042   1.590   6.017   6.808 -0.1221 -1.2107  0.4633
17439THY    CP232043   1.411   6.120   6.833 -0.0427  0.4985  0.3424
17439THY    HP232044   1.358   6.204   6.786 -0.2397  0.8233  0.4029
17439THY    HP332045   1.407   6.120   6.943 -0.1674  0.5265 -1.4347
17439THY    HP432046   1.357   6.034   6.791 -1.3151  2.1349  0.2795
17439THY    CP332047   1.650   6.208   6.857  0.2215  0.1506  0.2854
17439THY    HP532048   1.673   6.176   6.959  0.3256 -0.6873 -2.5472
17439THY    HP632049   1.615   6.312   6.863  1.1344  1.8325  0.5279
17439THY    HP732050   1.747   6.209   6.808  0.0612 -0.1854  1.5012
17439THY    CA332051   1.535   6.254   6.583 -0.2171  0.3578 -0.2391
17439THY    HA332052   1.502   6.338   6.643  0.3736  2.9900 -1.7752
17439THY    CA432053   1.529   6.267   6.447 -0.0919  0.1704  0.3179
17439THY    HA432054   1.508   6.363   6.401 -3.5025  1.5619  0.3479
17439THY    CA532055   1.550   6.161   6.360 -0.0783  0.1902 -0.7554
17439THY    CM132056   1.534   6.179   6.212 -0.7382  0.2819 -0.1208
17439THY    HM132057   1.611   6.248   6.177  2.2387 -1.5941 -4.0229
17439THY    HM232058   1.432   6.219   6.198  0.2911  1.1676  3.1031
17439THY    HM332059   1.545   6.083   6.160 -1.6459  2.2386 -1.3484
17439THY    CA632060   1.605   6.048   6.412  0.0244 -0.1796 -0.3617
17439THY    HA632061   1.633   5.968   6.344  2.8630  0.5547 -0.1105
17440THY      O32062   5.174   6.789   5.736  0.7278 -0.2942  0.0255
17440THY     HO32063   5.146   6.877   5.766 -1.4499 -3.2289  0.4839
17440THY    CA132064   5.102   6.700   5.797 -0.0813  0.2432 -0.0541
17440THY    CA232065   5.125   6.560   5.794  0.3618  0.5673  0.9636
17440THY    CP132066   5.256   6.503   5.741  0.2432  0.3718  0.8010
17440THY    HP132067   5.305   6.575   5.675 -2.4648 -1.4974  1.0736
17440THY    CP232068   5.249   6.368   5.669  0.0585 -0.1961  0.7332
17440THY    HP232069   5.153   6.342   5.622 -0.6753  1.3244  0.5530
17440THY    HP332070   5.273   6.287   5.740 -1.5382 -0.7196 -0.2508
17440THY    HP432071   5.326   6.350   5.594 -0.6853 -0.2468 -3.1061
17440THY    CP332072   5.343   6.492   5.865  0.9373 -0.2466  0.7963
17440THY    HP532073   5.288   6.437   5.942 -2.4150 -1.4033  2.2678
17440THY    HP632074   5.355   6.592   5.905  3.5272 -0.7569  0.7570
17440THY    HP732075   5.440   6.441   5.852  0.9072  2.0158  0.0748
17440THY    CA332076   5.033   6.468   5.853 -0.2146 -0.4112  0.1196
17440THY    HA332077   5.056   6.363   5.863 -0.9801  0.3198  0.0047
17440THY    CA432078   4.915   6.523   5.913  0.5138  0.3161  0.8712
17440THY    HA432079   4.854   6.452   5.968 -0.8322 -2.3443 -0.1820
17440THY    CA532080   4.884   6.658   5.902  0.0089  0.5408 -0.6344
17440THY    CM132081   4.758   6.704   5.967  0.2280 -0.1583  0.0864
17440THY    HM132082   4.766   6.694   6.076  1.3850 -0.2178  0.1852
17440THY    HM232083   4.671   6.645   5.937 -0.0315  1.7584 -0.5975
17440THY    HM332084   4.733   6.807   5.939  0.2520 -0.8325 -0.0893
17440THY    CA632085   4.977   6.747   5.838  0.2192  0.7012  0.5482
17440THY    HA632086   4.944   6.851   5.834 -2.1976 -1.8759 -0.1940
17441THY      O32087   8.774   1.407   5.706 -0.2044 -0.3029 -0.0723
17441THY     HO32088   8.804   1.443   5.621  0.5721 -0.3884 -0.9003
17441THY    CA132089   8.779   1.274   5.676 -0.1205  0.4635 -0.2315
17441THY    CA232090   8.730   1.177   5.774 -0.1016 -0.4222  0.0417
17441THY    CP132091   8.685   1.223   5.913  0.1444  0.5359 -0.4876
17441THY    HP132092   8.676   1.332   5.925 -1.1253 -0.2309 -0.4943
17441THY    CP232093   8.786   1.173   6.023  0.3915 -0.4336  0.1493
17441THY    HP232094   8.886   1.214   6.002  0.3306 -3.4756 -0.9829
17441THY    HP332095   8.794   1.064   6.019  0.8135 -1.6431  0.2072
17441THY    HP432096   8.757   1.187   6.128  0.1822 -0.3306 -0.9602
17441THY    CP332097   8.540   1.175   5.943  0.4511 -0.0194 -0.2736
17441THY    HP532098   8.529   1.066   5.937 -2.2801 -1.5957 -0.0041
17441THY    HP632099   8.473   1.220   5.869 -1.7604  3.2226  2.3329
17441THY    HP732100   8.502   1.217   6.037 -0.5973 -0.2763 -0.6208
17441THY    CA332101   8.735   1.042   5.744 -0.0122 -0.3569 -0.3252
17441THY    HA332102   8.699   0.970   5.818 -1.1703  0.5684  1.1268
17441THY    CA432103   8.784   0.997   5.616 -0.2551  0.3337 -0.1390
17441THY    HA432104   8.789   0.893   5.588 -1.4655 -2.2216  0.3971
17441THY    CA532105   8.827   1.092   5.525  0.5338  0.2743  0.0174
17441THY    CM132106   8.866   1.057   5.384  0.8149  0.4951 -0.2098
17441THY    HM132107   8.817   0.963   5.356 -1.2907  0.5700  0.8035
17441THY    HM232108   8.973   1.057   5.360  0.5083 -0.9793 -1.0095
17441THY    HM332109   8.819   1.122   5.309  1.1885 -0.8372 -1.4182
17441THY    CA632110   8.829   1.229   5.556  0.7462  0.5771  0.3689
17441THY    HA632111   8.847   1.297   5.473 -0.3172 -0.2047 -0.2686
17442THY      O32112   8.916   5.752   4.239  0.1232  0.0001 -0.3533
17442THY     HO32113   8.979   5.801   4.184  0.2158  2.6920  2.9187
17442THY    CA132114   8.800   5.825   4.231 -0.1390 -0.1995  0.5422
17442THY    CA232115   8.681   5.775   4.280  1.6073 -0.4395 -0.0104
17442THY    CP132116   8.671   5.652   4.373  0.2782  0.3942 -0.4580
17442THY    HP132117   8.773   5.615   4.388  1.6854 -0.7550  2.6204
17442THY    CP232118   8.588   5.539   4.309  0.0684  0.1757  0.4547
17442THY    HP232119   8.481   5.561   4.309  0.2958 -0.9486  1.6577
17442THY    HP332120   8.619   5.444   4.355  1.4466 -0.3928  0.6019
17442THY    HP432121   8.611   5.533   4.202 -2.5589 -0.5896  2.5737
17442THY    CP332122   8.615   5.686   4.512 -0.0313  0.8118  0.6314
17442THY    HP532123   8.529   5.754   4.519 -0.4319 -2.8613  0.6924
17442THY    HP632124   8.702   5.728   4.563 -0.3955  2.4801 -0.5253
17442THY    HP732125   8.589   5.595   4.568 -0.5258 -1.6613 -0.8377
17442THY    CA332126   8.567   5.853   4.250  0.6025 -0.6935 -0.5276
17442THY    HA332127   8.472   5.821   4.291  0.5811 -0.9114 -0.7399
17442THY    CA432128   8.578   5.982   4.186  0.2626 -0.3928 -0.0593
17442THY    HA432129   8.492   6.049   4.182  0.3521  0.5490  0.1317
17442THY    CA532130   8.700   6.023   4.134 -0.4507 -1.2700 -0.0092
17442THY    CM132131   8.708   6.153   4.056  0.6050  0.5179 -0.0162
17442THY    HM132132   8.735   6.130   3.952  1.7313  0.7772  0.0732
17442THY    HM232133   8.790   6.211   4.100 -0.2683 -0.6758  2.2273
17442THY    HM332134   8.616   6.212   4.056  1.7052 -1.0078  1.8058
17442THY    CA632135   8.813   5.943   4.155  0.7428  0.0216  0.2368
17442THY    HA632136   8.912   5.970   4.119  0.4149 -3.0079 -2.0114
17443THY      O32137   4.447   1.247   4.508 -0.2325  0.2019  0.0788
17443THY     HO32138   4.539   1.255   4.539 -0.1446  0.2968 -1.0451
17443THY    CA132139   4.438   1.310   4.387 -0.0363 -0.8189 -0.2735
17443THY    CA232140   4.336   1.279   4.292  0.3898  0.1937 -0.0124
17443THY    CP132141   4.240   1.162   4.316  0.8019  0.4378  0.2464
17443THY    HP132142   4.250   1.135   4.422  1.7212 -0.5435 -3.9918
17443THY    CP232143   4.282   1.047   4.228  0.3383  0.4591  0.3944
17443THY    HP232144   4.267   1.084   4.126 -0.5656  1.6137  3.4494
17443THY    HP332145   4.212   0.963   4.231 -1.7565 -1.5400  1.9463
17443THY    HP432146   4.382   1.011   4.255  0.0561  2.0723  0.7551
17443THY    CP332147   4.087   1.199   4.300  0.2859  0.2528  0.1416
17443THY    HP532148   4.065   1.226   4.196  1.5927  0.6634  3.1908
17443THY    HP632149   4.065   1.293   4.351 -2.8563 -1.2135  0.3324
17443THY    HP732150   4.020   1.125   4.344 -0.5202  1.4808  1.5547
17443THY    CA332151   4.331   1.349   4.169 -0.3806 -0.1331 -0.4098
17443THY    HA332152   4.254   1.316   4.100 -0.1262 -0.9301  0.5887
17443THY    CA432153   4.416   1.461   4.148 -0.1619  0.6223  0.7942
17443THY    HA432154   4.413   1.515   4.054  0.9154 -0.2303 -0.5530
17443THY    CA532155   4.513   1.491   4.249  0.2596  0.2939 -0.0787
17443THY    CM132156   4.611   1.608   4.237 -0.2515  0.0805  0.0730
17443THY    HM132157   4.551   1.699   4.244  1.2300  1.7731  0.9891
17443THY    HM232158   4.648   1.610   4.134  2.5833  0.9760 -0.8607
17443THY    HM332159   4.694   1.613   4.308 -0.4609  0.6852 -3.2128
17443THY    CA632160   4.525   1.420   4.368  0.9826 -0.0228 -0.5970
17443THY    HA632161   4.596   1.453   4.444 -0.5844  1.8266 -1.2744
17444THY      O32162   8.859   3.871   7.627  0.2188 -0.0505  0.4314
17444THY     HO32163   8.776   3.885   7.579  1.3550 -1.5549  2.8354
17444THY    CA132164   8.943   3.826   7.522  1.0021 -0.2503  0.2496
17444THY    CA232165   9.056   3.744   7.537  0.1084 -0.3642  0.2558
17444THY    CP132166   9.089   3.684   7.667 -0.6554 -0.2946 -1.2752
17444THY    HP132167   9.008   3.711   7.736  0.5753  1.0982 -1.0040
17444THY    CP232168   9.213   3.745   7.730 -0.0342  0.3412  0.2716
17444THY    HP232169   9.303   3.707   7.680 -1.5127 -1.4713 -0.9973
17444THY    HP332170   9.223   3.719   7.836 -0.9987  0.4733  0.3894
17444THY    HP432171   9.210   3.855   7.739  0.4550  0.8500  0.2525
17444THY    CP332172   9.103   3.534   7.680 -0.7062  0.0580 -0.1224
17444THY    HP532173   9.095   3.503   7.785 -1.3754  0.3034  0.8608
17444THY    HP632174   9.197   3.502   7.633 -1.4077 -0.5075 -1.4580
17444THY    HP732175   9.026   3.486   7.619  0.5593 -2.4088  0.7869
17444THY    CA332176   9.124   3.709   7.421  0.0135 -0.1295 -0.5845
17444THY    HA332177   9.188   3.622   7.430 -1.0835  0.1228 -1.3746
17444THY    CA432178   9.091   3.765   7.295  0.0209 -0.4825 -0.0924
17444THY    HA432179   9.149   3.738   7.207 -0.6234 -1.1987  0.7884
17444THY    CA532180   8.980   3.840   7.285  0.4467  0.2312  0.5451
17444THY    CM132181   8.933   3.888   7.155 -0.2889  0.9695 -1.2479
17444THY    HM132182   8.828   3.861   7.139 -0.4316  1.4245 -0.9596
17444THY    HM232183   8.994   3.841   7.076  1.0880  1.6159 -0.5937
17444THY    HM332184   8.941   3.997   7.149 -2.0014  1.8543 -1.0416
17444THY    CA632185   8.906   3.867   7.397  0.2592 -0.1798 -0.3052
17444THY    HA632186   8.828   3.942   7.385  1.5060 -1.5528  0.8197
17445THY      O32187   8.210   2.026   1.876  0.3793 -0.0436 -0.3611
17445THY     HO32188   8.238   2.119   1.884  0.0378 -0.4157 -0.2244
17445THY    CA132189   8.231   1.971   2.001  0.6126 -0.2420  0.1752
17445THY    CA232190   8.163   1.860   2.058  0.5398 -0.5779  0.3437
17445THY    CP132191   8.058   1.779   1.979 -0.5645  0.1486  0.1755
17445THY    HP132192   8.055   1.818   1.877  3.4980  0.2455  1.1634
17445THY    CP232193   7.915   1.791   2.048 -0.1226  0.6210  0.2786
17445THY    HP232194   7.829   1.759   1.989  1.1732 -0.7751 -0.7471
17445THY    HP332195   7.902   1.899   2.065 -3.2632  1.5470 -0.1472
17445THY    HP432196   7.912   1.749   2.149 -1.1181 -0.9032 -3.7450
17445THY    CP332197   8.113   1.638   1.949  0.3279 -0.4331  0.1258
17445THY    HP532198   8.116   1.569   2.034  0.6953 -0.2886  0.3197
17445THY    HP632199   8.216   1.637   1.910  0.6165  0.0562 -3.2459
17445THY    HP732200   8.042   1.587   1.883 -0.6125  0.3642  0.3756
17445THY    CA332201   8.196   1.807   2.187 -0.2268  0.5205  0.1386
17445THY    HA332202   8.156   1.711   2.218 -0.3465  1.4570  0.4839
17445THY    CA432203   8.290   1.878   2.264 -0.6001  1.2179 -0.6133
17445THY    HA432204   8.317   1.836   2.361 -1.3549  0.3277 -3.3457
17445THY    CA532205   8.365   1.981   2.208 -0.1356 -0.1537  1.1744
17445THY    CM132206   8.475   2.044   2.292  0.1914 -0.4935  0.2842
17445THY    HM132207   8.435   2.059   2.392  3.4676  0.8424  1.0819
17445THY    HM232208   8.498   2.146   2.259  1.4918 -1.5366 -0.3100
17445THY    HM332209   8.563   1.979   2.295  0.1386 -2.0570  0.1020
17445THY    CA632210   8.335   2.023   2.080 -0.8960 -0.0230 -0.6637
17445THY    HA632211   8.385   2.110   2.038 -1.1167 -1.1557 -1.0676
17446THY      O32212   3.595   8.386   2.641  0.4815  0.0762 -0.2334
17446THY     HO32213   3.639   8.413   2.558 -1.3943 -1.0535 -0.4129
17446THY    CA132214   3.598   8.493   2.727  0.2829 -0.5986 -0.2104
17446THY    CA232215   3.495   8.509   2.820  1.8847 -0.5443 -0.0636
17446THY    CP132216   3.378   8.407   2.851 -0.1577  0.4639 -0.3895
17446THY    HP132217   3.369   8.347   2.760 -1.9516  1.5524 -1.8341
17446THY    CP232218   3.243   8.475   2.882 -0.2226  0.0303  0.0241
17446THY    HP232219   3.206   8.526   2.793 -0.9337 -0.7658 -1.7932
17446THY    HP332220   3.246   8.538   2.972  0.5785 -0.4079  0.6247
17446THY    HP432221   3.175   8.391   2.899 -0.8437 -1.7037  0.1401
17446THY    CP332222   3.412   8.326   2.974  0.6940  0.7038  0.5264
17446THY    HP532223   3.498   8.261   2.954  0.1537 -0.4974  0.1520
17446THY    HP632224   3.330   8.262   3.008  0.4517 -0.1978  0.3343
17446THY    HP732225   3.447   8.400   3.047  2.1783  0.6544 -0.0802
17446THY    CA332226   3.500   8.622   2.900  0.1025 -0.0783  0.1131
17446THY    HA332227   3.430   8.629   2.982  1.6171  1.5044 -2.0402
17446THY    CA432228   3.589   8.723   2.887 -0.5422 -0.6551 -0.0670
17446THY    HA432229   3.588   8.810   2.952  1.5838 -2.0650  1.1173
17446THY    CA532230   3.683   8.711   2.785 -0.5104 -0.3186 -0.1521
17446THY    CM132231   3.792   8.813   2.756 -0.2641 -0.4432 -0.1733
17446THY    HM132232   3.894   8.774   2.752  2.0047 -0.8029  5.1018
17446THY    HM232233   3.786   8.896   2.827  2.8003 -0.5983  0.2777
17446THY    HM332234   3.780   8.843   2.651 -3.0420 -0.4866 -1.0677
17446THY    CA632235   3.696   8.587   2.713  0.0930  0.5071  0.1872
17446THY    HA632236   3.772   8.578   2.636  1.3556  1.6044  1.0788
17447THY      O32237   1.638   1.456   5.321  0.7371 -1.1464 -0.4437
17447THY     HO32238   1.597   1.541   5.346 -0.6641  1.6902 -1.7889
17447THY    CA132239   1.648   1.385   5.440  0.3468  0.1120 -0.5448
17447THY    CA232240   1.632   1.245   5.442  0.3242 -0.4441 -0.0365
17447THY    CP132241   1.603   1.171   5.309 -0.9615 -0.0985 -0.0867
17447THY    HP132242   1.597   1.235   5.221  2.1423  0.3743  0.9946
17447THY    CP232243   1.470   1.103   5.320 -0.6980  0.5908  0.9108
17447THY    HP232244   1.389   1.177   5.324 -0.5426 -0.6227  1.1537
17447THY    HP332245   1.463   1.033   5.405 -0.8569  0.0177  0.2166
17447THY    HP432246   1.458   1.061   5.219  1.5801  0.1008  1.3503
17447THY    CP332247   1.703   1.066   5.282 -0.0444  0.5728  0.6372
17447THY    HP532248   1.680   0.980   5.346 -0.5606 -0.0339  0.3125
17447THY    HP632249   1.811   1.080   5.297  0.7123 -1.0101 -2.4289
17447THY    HP732250   1.696   1.019   5.183  0.2650  1.4280 -1.3294
17447THY    CA332251   1.652   1.176   5.564 -0.0613  0.1364  0.2832
17447THY    HA332252   1.664   1.069   5.567  1.0975 -0.2442  0.3858
17447THY    CA432253   1.679   1.251   5.678  0.2331 -0.4257  0.2032
17447THY    HA432254   1.690   1.198   5.772 -1.3104 -0.6247 -0.5312
17447THY    CA532255   1.708   1.391   5.677 -0.1953  0.4159 -0.0838
17447THY    CM132256   1.771   1.457   5.796 -0.5494 -0.6588  0.0657
17447THY    HM132257   1.705   1.475   5.881  0.9136  1.1352 -2.4818
17447THY    HM232258   1.823   1.551   5.773  1.6927  2.3604 -0.2770
17447THY    HM332259   1.841   1.385   5.840 -2.9409 -1.1693 -2.7166
17447THY    CA632260   1.691   1.461   5.554  0.2656  0.2684  0.0950
17447THY    HA632261   1.712   1.566   5.539  0.5766  0.1762  0.0187
17448THY      O32262   7.629   7.450   3.704  0.2830 -0.1328  0.1958
17448THY     HO32263   7.578   7.443   3.622 -0.6101  0.5238 -2.6432
17448THY    CA132264   7.699   7.334   3.721  0.2393  0.1465 -0.3314
17448THY    CA232265   7.813   7.320   3.809 -0.5972  0.3735  0.1291
17448THY    CP132266   7.859   7.441   3.891 -0.0626 -0.2421  0.1228
17448THY    HP132267   7.824   7.530   3.836  3.0695 -0.3761  1.3760
17448THY    CP232268   8.011   7.465   3.891 -0.0420 -0.0150  0.3721
17448THY    HP232269   8.051   7.384   3.954 -1.9613 -1.5635 -1.9369
17448THY    HP332270   8.043   7.566   3.919 -0.9891 -1.4503  1.1024
17448THY    HP432271   8.054   7.443   3.793  1.9654  0.8054  0.4379
17448THY    CP332272   7.813   7.437   4.032  0.4820 -0.2957 -0.0032
17448THY    HP532273   7.876   7.383   4.104  1.9834  0.2489  2.3319
17448THY    HP632274   7.706   7.413   4.030  0.5951 -4.3629 -0.8988
17448THY    HP732275   7.828   7.538   4.072  0.4035 -0.6892  0.1652
17448THY    CA332276   7.882   7.200   3.819 -0.4110  0.3396  0.5361
17448THY    HA332277   7.976   7.197   3.873 -1.5017  2.3203 -2.8185
17448THY    CA432278   7.845   7.093   3.734 -0.0065  0.6597  0.5193
17448THY    HA432279   7.897   6.997   3.733 -0.9196 -3.6351 -0.1305
17448THY    CA532280   7.726   7.106   3.657  0.4031 -1.1099  0.0362
17448THY    CM132281   7.681   6.999   3.564  0.4721  0.1851 -0.4549
17448THY    HM132282   7.741   6.909   3.582 -0.2659 -0.5063 -1.0997
17448THY    HM232283   7.690   7.025   3.458 -0.8837  0.5441  1.7564
17448THY    HM332284   7.578   6.972   3.592 -0.0453 -0.5307  0.6701
17448THY    CA632285   7.656   7.227   3.658  0.1113  0.2355  0.6153
17448THY    HA632286   7.562   7.236   3.605  0.5065 -0.9762 -1.5940
17449THY      O32287   1.477   5.455   3.913  0.0627  0.2271  0.4073
17449THY     HO32288   1.489   5.504   3.830 -1.1798 -0.3663 -0.2583
17449THY    CA132289   1.541   5.339   3.875  0.3449  0.1546 -0.3270
17449THY    CA232290   1.491   5.209   3.900 -0.1955  0.9694  0.1743
17449THY    CP132291   1.382   5.190   3.998  0.2150  0.2416 -0.0462
17449THY    HP132292   1.374   5.281   4.058 -0.2222  2.5744 -1.5278
17449THY    CP232293   1.409   5.072   4.093 -0.1315  0.6093  0.5563
17449THY    HP232294   1.324   5.074   4.162  1.1440  2.2307  2.1169
17449THY    HP332295   1.497   5.092   4.155 -0.0589  0.4677  0.6835
17449THY    HP432296   1.425   4.976   4.042  2.1835 -0.4843  1.4399
17449THY    CP332297   1.253   5.165   3.932  0.1908  0.6001 -0.4787
17449THY    HP532298   1.241   5.209   3.832 -0.9792  0.2424 -1.5408
17449THY    HP632299   1.173   5.201   3.998  1.2231  1.6220  0.0064
17449THY    HP732300   1.226   5.059   3.921 -0.2099 -0.1892 -0.3000
17449THY    CA332301   1.555   5.098   3.839  0.1028 -0.3263  0.0065
17449THY    HA332302   1.512   5.000   3.860 -2.1822 -1.6523  0.6418
17449THY    CA432303   1.663   5.117   3.755 -0.5847  0.3294  0.7672
17449THY    HA432304   1.716   5.038   3.703  0.2796  0.3032  1.3489
17449THY    CA532305   1.717   5.244   3.734  0.2372  0.0509 -0.0193
17449THY    CM132306   1.843   5.254   3.656  0.8263 -0.7182  0.3495
17449THY    HM132307   1.898   5.165   3.623  1.6422 -2.4758  1.4528
17449THY    HM232308   1.913   5.317   3.712 -0.6181 -0.5059  1.8072
17449THY    HM332309   1.815   5.307   3.564 -0.0756  0.1488  1.4209
17449THY    CA632310   1.659   5.351   3.794 -0.7132  0.1904 -0.5989
17449THY    HA632311   1.703   5.447   3.768  1.0274  0.9732 -1.1436
17450THY      O32312   0.593   2.182   3.650  0.1318 -0.1835  0.3084
17450THY     HO32313   0.550   2.264   3.620 -0.4546 -1.3703 -0.4063
17450THY    CA132314   0.659   2.127   3.548 -0.1275  0.3768  0.2077
17450THY    CA232315   0.741   2.013   3.561  0.1524  0.0276 -0.5099
17450THY    CP132316   0.766   1.947   3.700 -0.1551 -0.1775  0.6860
17450THY    HP132317   0.731   2.011   3.781  0.1725  0.7507 -0.2847
17450THY    CP232318   0.914   1.934   3.718 -0.3039 -0.0155 -0.5480
17450THY    HP232319   0.965   2.028   3.699  1.5302  0.7959 -1.3417
17450THY    HP332320   0.973   1.864   3.657  0.8385  2.7578 -2.1652
17450THY    HP432321   0.931   1.919   3.825  0.1665 -0.2058 -1.4613
17450THY    CP332322   0.692   1.811   3.714  0.0630  0.2165  0.0746
17450THY    HP532323   0.701   1.756   3.808  1.8948  1.1213  1.7715
17450THY    HP632324   0.732   1.744   3.636  0.2487  0.4518 -0.0899
17450THY    HP732325   0.587   1.841   3.710  0.2313  0.8414  0.7569
17450THY    CA332326   0.808   1.962   3.449 -0.2094  0.0180 -0.2103
17450THY    HA332327   0.872   1.874   3.457  0.9491  0.5919  0.6528
17450THY    CA432328   0.791   2.025   3.326 -0.2580 -0.2136  0.1022
17450THY    HA432329   0.824   1.974   3.236 -1.7243  0.2103 -1.7125
17450THY    CA532330   0.708   2.137   3.314 -0.0539 -0.2522  0.6030
17450THY    CM132331   0.661   2.180   3.184  0.4087  1.0819 -0.2112
17450THY    HM132332   0.599   2.106   3.133  0.8800 -1.2276  0.9134
17450THY    HM232333   0.740   2.198   3.110 -0.5267 -0.5136 -2.2747
17450THY    HM332334   0.603   2.272   3.193  2.2958 -0.1509  1.1637
17450THY    CA632335   0.645   2.195   3.426  0.3194 -0.2940  0.7611
17450THY    HA632336   0.569   2.272   3.417 -0.7505 -1.1531 -0.3564
17451THY      O32337   7.623   9.162   7.335  0.7656  0.6045  0.4298
17451THY     HO32338   7.678   9.147   7.256 -0.4910 -0.2508  0.0820
17451THY    CA132339   7.496   9.134   7.291 -0.3307 -0.6577 -0.1237
17451THY    CA232340   7.390   9.179   7.362  0.4679  0.5882  0.0251
17451THY    CP132341   7.399   9.246   7.496 -0.1567 -0.9530 -0.0726
17451THY    HP132342   7.500   9.262   7.533 -0.4700 -0.9032  2.2167
17451THY    CP232343   7.330   9.161   7.598 -0.2021  0.1167 -0.3342
17451THY    HP232344   7.226   9.136   7.576 -1.2467  1.6076  2.3075
17451THY    HP332345   7.311   9.220   7.688  1.1793  0.3606 -0.2287
17451THY    HP432346   7.402   9.091   7.643  0.2091  2.3561  1.4102
17451THY    CP332347   7.344   9.393   7.491  0.3212 -0.3035  0.2264
17451THY    HP532348   7.314   9.427   7.591  0.2921  0.4526 -1.8958
17451THY    HP632349   7.266   9.394   7.414  0.4792 -0.4979  2.3070
17451THY    HP732350   7.434   9.449   7.462 -0.6375 -0.2249  1.8752
17451THY    CA332351   7.266   9.140   7.307  0.1992 -0.5013 -0.4419
17451THY    HA332352   7.169   9.165   7.348 -0.9436 -2.2522 -1.7432
17451THY    CA432353   7.254   9.061   7.199  0.3443  0.1359 -0.4915
17451THY    HA432354   7.152   9.038   7.169  0.2023 -0.9016  1.2608
17451THY    CA532355   7.361   9.023   7.125  0.4295 -0.0820  0.1620
17451THY    CM132356   7.331   8.952   6.996 -0.0100  0.1130  0.8120
17451THY    HM132357   7.279   8.860   7.026  0.0324  1.5651  1.2302
17451THY    HM232358   7.421   8.917   6.946 -0.1470  0.4627 -0.0796
17451THY    HM332359   7.269   9.002   6.921 -0.4877 -0.6027 -0.7623
17451THY    CA632360   7.488   9.064   7.168 -0.9569 -0.0150  0.3663
17451THY    HA632361   7.580   9.036   7.118 -0.2009  1.5187 -0.0248
17452THY      O32362   5.207   8.515   5.674 -0.0132  0.4560 -0.2232
17452THY     HO32363   5.213   8.510   5.577  0.1125  0.3972  0.8135
17452THY    CA132364   5.299   8.423   5.713  0.2869  0.0683 -0.0610
17452THY    CA232365   5.362   8.444   5.835 -0.7384 -0.2816 -0.5515
17452THY    CP132366   5.324   8.558   5.932  0.1241  0.1108  0.6486
17452THY    HP132367   5.218   8.583   5.919 -0.8761  0.0354 -3.1346
17452THY    CP232368   5.403   8.685   5.893  0.7429  0.5245  0.1141
17452THY    HP232369   5.402   8.701   5.785 -0.9645  0.3230 -1.1161
17452THY    HP332370   5.506   8.681   5.929  0.9784 -0.2245 -1.2053
17452THY    HP432371   5.340   8.768   5.928 -0.2133 -1.9425  0.5082
17452THY    CP332372   5.334   8.528   6.085 -0.5886 -0.0130 -0.8195
17452THY    HP532373   5.268   8.581   6.155  0.8376  0.7830 -0.0429
17452THY    HP632374   5.432   8.560   6.120 -0.8778 -0.7249  0.9499
17452THY    HP732375   5.318   8.420   6.094 -2.5098  2.2062 -0.4350
17452THY    CA332376   5.470   8.357   5.871  0.2279 -0.0491 -0.4965
17452THY    HA332377   5.526   8.367   5.963  2.4244 -1.4546  0.9207
17452THY    CA432378   5.496   8.251   5.785  0.2747 -0.3434 -0.2684
17452THY    HA432379   5.584   8.200   5.824 -0.3740  3.0904  0.9800
17452THY    CA532380   5.439   8.236   5.655 -0.1715  0.0697 -0.9320
17452THY    CM132381   5.474   8.122   5.557 -0.3695  0.7887 -0.1863
17452THY    HM132382   5.449   8.164   5.460 -0.8127  1.0909  0.2548
17452THY    HM232383   5.403   8.041   5.576  1.4930  0.6897 -1.9475
17452THY    HM332384   5.576   8.082   5.553 -1.1955  0.1450 -2.3757
17452THY    CA632385   5.343   8.329   5.619 -0.6787  0.4234 -0.0417
17452THY    HA632386   5.281   8.312   5.531 -2.8441  2.0997 -1.5070
17453THY      O32387   4.834   4.666   2.725  0.1498  0.1065  0.3086
17453THY     HO32388   4.930   4.684   2.727  0.2288  1.3022 -0.1558
17453THY    CA132389   4.810   4.597   2.838 -0.1727  0.0887 -0.7274
17453THY    CA232390   4.677   4.593   2.902 -0.0615 -0.0755 -0.3962
17453THY    CP132391   4.552   4.664   2.841  0.0481 -0.7897 -0.2425
17453THY    HP132392   4.578   4.687   2.736 -1.0758 -1.3096 -1.2446
17453THY    CP232393   4.531   4.796   2.899  0.7828  0.5793 -0.2758
17453THY    HP232394   4.620   4.860   2.893 -1.4773  0.8161  3.1794
17453THY    HP332395   4.503   4.776   3.004  0.3882  1.0468  2.3428
17453THY    HP432396   4.443   4.847   2.859 -1.0721  1.0194 -2.9112
17453THY    CP332397   4.430   4.572   2.846  0.2402 -0.0611 -0.1242
17453THY    HP532398   4.410   4.548   2.952  2.3199  0.6721  1.0889
17453THY    HP632399   4.446   4.480   2.790  0.3702 -2.9872  1.5527
17453THY    HP732400   4.343   4.618   2.797  1.7436 -2.1287  0.6417
17453THY    CA332401   4.669   4.512   3.019 -0.1829 -1.1928 -0.0511
17453THY    HA332402   4.577   4.500   3.075 -0.0363 -1.2866 -2.1031
17453THY    CA432403   4.783   4.439   3.060 -0.0877  0.1655  0.1863
17453THY    HA432404   4.765   4.361   3.134 -3.6116 -1.7156 -1.0488
17453THY    CA532405   4.908   4.450   2.995  0.3590  0.2190  0.2579
17453THY    CM132406   5.015   4.359   3.043 -0.2108  0.0110  0.5410
17453THY    HM132407   4.984   4.277   3.109  1.1449 -1.7674 -1.5417
17453THY    HM232408   5.074   4.425   3.107 -1.3154  0.0370  1.5363
17453THY    HM332409   5.073   4.319   2.958 -0.6363  0.8703 -2.1058
17453THY    CA632410   4.922   4.534   2.888 -0.5942 -0.1587 -0.0664
17453THY    HA632411   5.018   4.555   2.844 -0.8393 -0.2546  0.8650
17454THY      O32412   4.723   6.229   5.822  0.0978  0.0129  0.4314
17454THY     HO32413   4.707   6.285   5.745 -0.5990  0.2531  0.5691
17454THY    CA132414   4.796   6.126   5.783 -0.2138  0.1212 -0.0302
17454THY    CA232415   4.884   6.064   5.876 -0.3275 -0.3291  0.5464
17454THY    CP132416   4.871   6.104   6.024  0.2169  0.3078  0.4313
17454THY    HP132417   4.861   6.213   6.025 -0.1602  0.4438  0.3962
17454THY    CP232418   4.993   6.079   6.114 -0.5203  0.2981 -0.3686
17454THY    HP232419   5.084   6.122   6.071 -1.2199  0.5910  1.4803
17454THY    HP332420   5.006   5.975   6.146  0.6333  0.7374 -0.0955
17454THY    HP432421   4.983   6.147   6.199  1.0460 -0.3580  0.7403
17454THY    CP332422   4.750   6.043   6.086 -0.4094 -0.2712  0.2947
17454THY    HP532423   4.732   6.071   6.191  0.6634  0.3531 -1.2099
17454THY    HP632424   4.753   5.933   6.081 -2.2807  0.6812  0.1518
17454THY    HP732425   4.658   6.067   6.031 -1.5965 -0.5341 -3.9655
17454THY    CA332426   4.977   5.959   5.833 -0.1301 -0.8430  0.2643
17454THY    HA332427   5.045   5.907   5.899 -1.3542 -0.1211 -0.4949
17454THY    CA432428   4.978   5.934   5.698 -0.3745 -0.4783  0.3386
17454THY    HA432429   5.055   5.866   5.662 -0.0775 -0.1710  0.5099
17454THY    CA532430   4.893   6.001   5.608  0.2269 -0.5538 -0.6303
17454THY    CM132431   4.894   5.960   5.462 -0.7420 -0.7708  0.6275
17454THY    HM132432   4.877   5.853   5.446 -0.7026  1.0240  0.3322
17454THY    HM232433   4.987   5.984   5.410  1.0945  0.0538 -3.7142
17454THY    HM332434   4.816   6.012   5.404 -0.6938 -0.2811  1.2615
17454THY    CA632435   4.803   6.097   5.657 -0.7008 -0.0957 -0.4405
17454THY    HA632436   4.739   6.143   5.582 -0.8941 -0.5804 -1.4448
17455THY      O32437   7.509   0.092   3.889  0.2841 -0.1446  0.6949
17455THY     HO32438   7.434   0.052   3.937 -0.7407 -2.4760 -0.3637
17455THY    CA132439   7.453   0.207   3.871  0.0473  0.8211 -0.7198
17455THY    CA232440   7.527   0.327   3.854 -0.3263  0.4505  0.4099
17455THY    CP132441   7.680   0.333   3.861  0.4161 -0.6480  0.9684
17455THY    HP132442   7.719   0.232   3.877 -3.2572 -0.7610 -0.6464
17455THY    CP232443   7.733   0.423   3.970 -0.1562 -0.4298 -0.2227
17455THY    HP232444   7.695   0.391   4.069  0.4805 -0.1493 -0.1151
17455THY    HP332445   7.703   0.526   3.951 -1.0794  0.8187 -0.2364
17455THY    HP432446   7.842   0.418   3.977 -0.0853 -1.6165 -0.6393
17455THY    CP332447   7.746   0.384   3.738 -0.1098  0.2685  0.1256
17455THY    HP532448   7.715   0.328   3.649 -0.9608  0.5732  0.0951
17455THY    HP632449   7.848   0.347   3.756 -0.3576  1.7198  0.0904
17455THY    HP732450   7.741   0.491   3.713 -2.2769  1.2572  0.3022
17455THY    CA332451   7.456   0.445   3.829 -0.8032 -0.0284  0.5909
17455THY    HA332452   7.509   0.535   3.800  0.0009 -0.9739 -0.1600
17455THY    CA432453   7.321   0.446   3.841 -0.2398  0.2048  0.4192
17455THY    HA432454   7.262   0.535   3.822 -0.4106 -0.1188  0.2384
17455THY    CA532455   7.244   0.334   3.863  0.8305  0.1593 -0.0792
17455THY    CM132456   7.092   0.344   3.870 -0.5783  0.4501  0.1298
17455THY    HM132457   7.058   0.423   3.938 -4.8909 -0.7941 -0.3707
17455THY    HM232458   7.059   0.246   3.908  1.1669  2.8132  0.3642
17455THY    HM332459   7.055   0.350   3.767 -1.3937  0.5842 -1.7886
17455THY    CA632460   7.313   0.214   3.877 -0.0796 -0.3581 -0.7443
17455THY    HA632461   7.242   0.134   3.896 -1.2457  1.0857  0.5497
17456THY      O32462   2.909   8.765   3.956  0.8472 -0.4621 -0.7115
17456THY     HO32463   2.891   8.786   4.050  4.3871 -0.2063  1.9864
17456THY    CA132464   3.026   8.691   3.952  0.3849 -0.0544 -0.0978
17456THY    CA232465   3.097   8.668   3.828  0.2425  0.5267 -0.1844
17456THY    CP132466   3.059   8.736   3.699 -0.2475  0.8439 -0.6855
17456THY    HP132467   2.961   8.784   3.712 -0.7420 -2.2671 -0.6095
17456THY    CP232468   3.031   8.645   3.583  0.2738 -0.0953  0.3200
17456THY    HP232469   2.924   8.621   3.583  0.4952 -0.9659 -0.8094
17456THY    HP332470   3.070   8.543   3.596  2.1151  0.9305  1.1194
17456THY    HP432471   3.066   8.697   3.492  2.7625  1.1302  0.9425
17456THY    CP332472   3.170   8.840   3.646  0.2478 -0.0957  0.0597
17456THY    HP532473   3.252   8.781   3.605 -0.6504 -0.6813 -0.8174
17456THY    HP632474   3.209   8.891   3.735 -1.5704 -0.1170  1.6157
17456THY    HP732475   3.132   8.912   3.573  0.4168 -1.1225 -0.8593
17456THY    CA332476   3.209   8.583   3.824 -0.0544  0.1513 -0.0638
17456THY    HA332477   3.267   8.571   3.733 -0.7394 -0.1404 -1.2835
17456THY    CA432478   3.258   8.526   3.939  0.7154 -0.8726 -0.2434
17456THY    HA432479   3.353   8.475   3.944 -0.1474  1.3107 -1.7616
17456THY    CA532480   3.175   8.529   4.050  0.2788  0.5803 -0.5637
17456THY    CM132481   3.209   8.439   4.168 -0.0515 -0.0478 -0.6782
17456THY    HM132482   3.121   8.433   4.234  0.2673  0.3592 -0.8938
17456THY    HM232483   3.291   8.488   4.221  1.4074 -2.9097  0.2046
17456THY    HM332484   3.242   8.337   4.147 -1.7881 -1.2367 -1.0583
17456THY    CA632485   3.060   8.612   4.059 -1.4509  0.4364  0.7478
17456THY    HA632486   2.996   8.618   4.147 -1.6626  0.3717 -0.2648
17457THY      O32487   6.614   1.204   7.619 -0.4511  0.3101 -0.5275
17457THY     HO32488   6.701   1.224   7.579 -0.0096  0.9797 -1.0851
17457THY    CA132489   6.528   1.275   7.544  0.0767  0.0020 -0.4780
17457THY    CA232490   6.394   1.264   7.555 -0.6947 -0.0414  0.4316
17457THY    CP132491   6.334   1.169   7.664  0.2672 -0.2326  0.4929
17457THY    HP132492   6.403   1.101   7.714 -0.3995  1.3683  0.9537
17457THY    CP232493   6.222   1.074   7.603 -0.2553 -0.5028  0.3375
17457THY    HP232494   6.152   1.131   7.541 -0.2539 -2.0520 -1.2783
17457THY    HP332495   6.176   1.011   7.680 -0.5341 -3.1933 -3.0346
17457THY    HP432496   6.267   0.994   7.544 -0.2896  0.9677 -0.8238
17457THY    CP332497   6.273   1.251   7.779 -0.2631 -0.7808  0.0031
17457THY    HP532498   6.335   1.326   7.830 -1.2792 -0.4934  0.6630
17457THY    HP632499   6.234   1.196   7.865 -2.4588 -1.5306  0.2770
17457THY    HP732500   6.192   1.304   7.729 -0.7272  0.2293  0.2662
17457THY    CA332501   6.310   1.343   7.476  0.1934  0.1554 -0.0580
17457THY    HA332502   6.202   1.341   7.482 -0.0477 -0.7494  3.4870
17457THY    CA432503   6.365   1.430   7.377 -0.1839 -0.6313  0.6929
17457THY    HA432504   6.307   1.503   7.321 -0.6546 -1.9913 -0.6678
17457THY    CA532505   6.509   1.436   7.364  0.7052 -0.4532 -0.0007
17457THY    CM132506   6.576   1.528   7.268  0.5657 -0.4207 -1.1926
17457THY    HM132507   6.546   1.495   7.168  1.5746 -0.8102 -0.9670
17457THY    HM232508   6.685   1.533   7.274  0.9019 -3.3275 -2.6178
17457THY    HM332509   6.524   1.623   7.278 -0.6079 -0.1078 -1.8479
17457THY    CA632510   6.589   1.354   7.441 -0.0143 -0.2368 -1.0263
17457THY    HA632511   6.696   1.371   7.440 -0.0897  2.9153  0.1829
17458THY      O32512   4.133   2.278   2.469 -0.0627 -0.7709  0.2741
17458THY     HO32513   4.157   2.371   2.486 -0.3682  0.9995  0.0648
17458THY    CA132514   4.122   2.266   2.336 -0.2404  0.0183  0.2276
17458THY    CA232515   4.146   2.143   2.274 -0.2699 -0.2887 -0.1407
17458THY    CP132516   4.211   2.024   2.343  0.8030 -0.1995  0.3629
17458THY    HP132517   4.179   2.019   2.447  0.4577 -0.3834 -2.1669
17458THY    CP232518   4.366   2.025   2.347 -0.1087  0.3172 -0.1321
17458THY    HP232519   4.402   2.125   2.372 -4.1512  3.0993  0.8958
17458THY    HP332520   4.404   1.995   2.249  0.6947  0.0774  1.5737
17458THY    HP432521   4.416   1.959   2.419  2.7604 -0.3413  1.2123
17458THY    CP332522   4.146   1.890   2.290  0.2832  0.5835  0.0534
17458THY    HP532523   4.038   1.899   2.305  0.4742  1.2493  1.8306
17458THY    HP632524   4.187   1.801   2.338  1.0044 -1.7039 -0.9157
17458THY    HP732525   4.155   1.870   2.183 -1.6911 -0.0666  2.1970
17458THY    CA332526   4.141   2.142   2.133 -0.1605 -0.5515 -0.4324
17458THY    HA332527   4.164   2.047   2.085  1.1655 -0.5836 -0.1126
17458THY    CA432528   4.103   2.254   2.055 -0.3495  0.0021 -0.5929
17458THY    HA432529   4.097   2.248   1.947  1.1412 -0.0514 -1.3868
17458THY    CA532530   4.071   2.371   2.121  0.1981 -0.2146 -0.4883
17458THY    CM132531   4.039   2.499   2.051 -0.1056  0.5046 -0.6336
17458THY    HM132532   3.934   2.510   2.023 -0.1621  0.7521 -0.5048
17458THY    HM232533   4.090   2.526   1.958 -2.1278 -0.3465  0.5120
17458THY    HM332534   4.067   2.583   2.116  0.3471 -1.5815  0.9146
17458THY    CA632535   4.088   2.381   2.262 -0.2970  0.0324 -0.2089
17458THY    HA632536   4.063   2.473   2.315 -0.0267  1.5928 -1.0025
17459THY      O32537   6.839   5.920   3.400 -0.4552  0.6913  0.6539
17459THY     HO32538   6.757   5.870   3.394 -0.8397  0.6708  1.2732
17459THY    CA132539   6.841   5.989   3.280 -0.0017 -0.4010 -0.2126
17459THY    CA232540   6.950   6.033   3.211  0.0217 -0.7322 -0.4703
17459THY    CP132541   7.089   6.010   3.259  0.1565 -0.4783 -0.1108
17459THY    HP132542   7.078   5.990   3.366 -2.4059 -0.8763 -1.3225
17459THY    CP232543   7.183   6.131   3.248  0.2459  0.5702 -0.2940
17459THY    HP232544   7.148   6.212   3.313 -2.9555 -1.4005  0.1099
17459THY    HP332545   7.213   6.169   3.150  1.1178  1.1951  0.6915
17459THY    HP432546   7.279   6.107   3.295  0.7890 -0.5015 -0.2661
17459THY    CP332547   7.160   5.890   3.193  0.2860 -0.4424  0.7074
17459THY    HP532548   7.092   5.807   3.169  0.9879 -1.9990  0.5486
17459THY    HP632549   7.233   5.848   3.264 -1.5686  1.5066  0.5962
17459THY    HP732550   7.208   5.927   3.102  0.4627 -0.6593 -0.0505
17459THY    CA332551   6.932   6.121   3.098  0.9828  0.6474 -0.1927
17459THY    HA332552   7.015   6.169   3.047  0.1765 -0.7501 -0.2452
17459THY    CA432553   6.798   6.150   3.061  0.2398  0.2649  0.5512
17459THY    HA432554   6.781   6.228   2.986 -0.3194  0.3724  0.5360
17459THY    CA532555   6.688   6.089   3.121 -0.1804 -0.0689 -1.1080
17459THY    CM132556   6.546   6.128   3.080  0.2219 -0.3595  0.1744
17459THY    HM132557   6.508   6.102   2.980 -2.4818  0.7457 -0.4332
17459THY    HM232558   6.540   6.237   3.088 -0.9150  0.6475  0.0529
17459THY    HM332559   6.478   6.087   3.155 -0.3147 -0.7718  0.3005
17459THY    CA632560   6.709   6.009   3.229  0.3244 -0.8325  0.3084
17459THY    HA632561   6.626   5.960   3.278  0.9659 -1.5746 -1.5963
17460THY      O32562   2.906   3.383   2.593  0.3142 -0.5664 -0.3179
17460THY     HO32563   2.946   3.343   2.514  1.8463 -0.8259  1.5781
17460THY    CA132564   2.771   3.392   2.573 -0.2890 -0.1756  0.4351
17460THY    CA232565   2.682   3.421   2.673 -0.7746  0.3387 -0.4724
17460THY    CP132566   2.730   3.439   2.819  0.0511 -0.7569  0.5312
17460THY    HP132567   2.838   3.427   2.833 -0.2595  0.4275 -1.2972
17460THY    CP232568   2.689   3.315   2.891 -0.0790  0.3786  0.3820
17460THY    HP232569   2.723   3.304   2.995 -3.0859  1.4100 -0.0948
17460THY    HP332570   2.731   3.227   2.841 -0.3650 -1.1156  1.0672
17460THY    HP432571   2.581   3.297   2.890 -0.0317  0.8118  0.0749
17460THY    CP332572   2.678   3.566   2.888 -0.3327  0.1180  0.8319
17460THY    HP532573   2.723   3.655   2.841 -1.6656 -0.4173  1.2463
17460THY    HP632574   2.705   3.569   2.994 -1.8724  0.5291  0.9588
17460THY    HP732575   2.569   3.572   2.884 -0.6212  0.0013 -2.6201
17460THY    CA332576   2.544   3.438   2.643  0.2056 -0.1599  0.6194
17460THY    HA332577   2.481   3.474   2.724  1.7546  2.3039 -1.7955
17460THY    CA432578   2.499   3.412   2.517  0.8960 -0.3256 -0.7430
17460THY    HA432579   2.397   3.437   2.488 -0.2591  2.1190 -2.2454
17460THY    CA532580   2.590   3.370   2.419 -0.5601  0.1582  0.4144
17460THY    CM132581   2.538   3.333   2.283  1.0666 -0.2830 -0.1008
17460THY    HM132582   2.624   3.327   2.215  1.1975 -0.1584  0.3265
17460THY    HM232583   2.482   3.423   2.254 -0.2900  1.4603 -0.3278
17460THY    HM332584   2.474   3.244   2.281  0.6370  2.7351  0.0219
17460THY    CA632585   2.726   3.366   2.446  0.4212  0.0185 -0.9187
17460THY    HA632586   2.795   3.354   2.363  1.4227  1.0555 -2.7330
17461THY      O32587   2.422   4.967   5.617  0.1792  0.2344 -0.3728
17461THY     HO32588   2.381   4.911   5.685 -0.8664 -0.4628 -0.4764
17461THY    CA132589   2.402   4.895   5.506 -0.2026  0.2623 -0.0064
17461THY    CA232590   2.469   4.941   5.384  0.0525 -0.3318 -0.0505
17461THY    CP132591   2.563   5.067   5.386 -0.2449  0.6871 -0.1190
17461THY    HP132592   2.610   5.069   5.485 -0.3422  0.7349 -0.2000
17461THY    CP232593   2.478   5.191   5.394 -0.4838  0.2014 -0.7885
17461THY    HP232594   2.536   5.283   5.389  0.9628  0.2788 -1.6611
17461THY    HP332595   2.422   5.189   5.488 -1.8551 -0.5593  0.2608
17461THY    HP432596   2.404   5.190   5.313 -1.9234  1.4494 -2.5295
17461THY    CP332597   2.674   5.064   5.283  0.4251  0.8912 -0.6926
17461THY    HP532598   2.753   5.138   5.299 -0.6036 -0.7940  0.8540
17461THY    HP632599   2.622   5.084   5.188  0.9102  1.1372  2.2394
17461THY    HP732600   2.725   4.968   5.287  0.0377 -0.8767 -1.0061
17461THY    CA332601   2.437   4.867   5.266  0.0763 -0.2883 -0.5115
17461THY    HA332602   2.482   4.902   5.173 -0.5549  0.1845  1.6987
17461THY    CA432603   2.339   4.762   5.269  0.0628  0.0720 -0.2597
17461THY    HA432604   2.305   4.714   5.177  1.9797  0.4593 -2.5170
17461THY    CA532605   2.295   4.715   5.395  0.2097  0.0911 -0.3493
17461THY    CM132606   2.208   4.593   5.406 -0.3196  0.5196  0.7300
17461THY    HM132607   2.140   4.582   5.491  0.4649  1.2445  1.4175
17461THY    HM232608   2.269   4.503   5.402 -0.6897  0.0220  0.4907
17461THY    HM332609   2.137   4.599   5.322  0.2369 -0.0222 -0.1537
17461THY    CA632610   2.320   4.786   5.510  0.1640  0.2546 -0.6387
17461THY    HA632611   2.262   4.759   5.598 -2.2201 -0.3724  2.0528
17462THY      O32612   1.616   1.759   3.122 -0.2339 -0.0586  0.2489
17462THY     HO32613   1.536   1.737   3.171  0.1536 -0.0440 -1.1872
17462THY    CA132614   1.606   1.700   2.996 -0.2631 -0.2921 -0.6865
17462THY    CA232615   1.710   1.695   2.903 -0.2386  0.2988  0.4395
17462THY    CP132616   1.846   1.746   2.955  0.3460 -0.6915 -0.4089
17462THY    HP132617   1.827   1.820   3.034  2.2300 -1.1856  0.6708
17462THY    CP232618   1.922   1.830   2.847 -0.5997 -0.0705  0.1910
17462THY    HP232619   1.911   1.778   2.751  0.1248 -1.2330  2.0741
17462THY    HP332620   2.028   1.838   2.874 -0.6416  0.8767 -1.6904
17462THY    HP432621   1.872   1.926   2.829  2.9127 -1.9640  1.8616
17462THY    CP332622   1.933   1.636   3.026  0.2278  0.5107  0.4647
17462THY    HP532623   2.012   1.682   3.086  0.3725  0.8343 -0.1998
17462THY    HP632624   1.980   1.577   2.946  2.0905  1.0398  1.1661
17462THY    HP732625   1.877   1.574   3.096  1.3115 -0.2605 -1.4871
17462THY    CA332626   1.688   1.623   2.781  0.1675  0.2859 -0.5380
17462THY    HA332627   1.771   1.610   2.712 -0.9398 -1.1631 -0.1961
17462THY    CA432628   1.562   1.566   2.758 -0.0837  0.0809  0.0569
17462THY    HA432629   1.543   1.511   2.666 -0.6555 -0.8404  1.7177
17462THY    CA532630   1.452   1.590   2.840 -0.8880 -0.5125 -0.5882
17462THY    CM132631   1.324   1.542   2.809  0.2315 -0.1704 -0.7585
17462THY    HM132632   1.268   1.635   2.795  0.5685  0.2374 -0.4858
17462THY    HM232633   1.287   1.494   2.900  1.1141 -0.0326 -1.2061
17462THY    HM332634   1.318   1.479   2.719 -0.3593 -2.0483  1.8157
17462THY    CA632635   1.477   1.662   2.956  0.6297 -0.2648  1.1858
17462THY    HA632636   1.397   1.667   3.030  0.7154  0.3143 -2.9597
17463THY      O32637   6.659   8.588   5.878  0.4370 -0.1390 -0.3600
17463THY     HO32638   6.751   8.580   5.911  0.6383 -0.2486  1.1321
17463THY    CA132639   6.570   8.602   5.981 -0.1333 -0.4887  0.3670
17463THY    CA232640   6.435   8.546   5.985  0.1445 -0.7491  0.3355
17463THY    CP132641   6.374   8.490   5.861 -0.1547 -0.4816  0.4533
17463THY    HP132642   6.438   8.517   5.776  1.9094  0.0128 -2.4338
17463THY    CP232643   6.251   8.576   5.824  0.2247 -0.7056  0.0004
17463THY    HP232644   6.168   8.552   5.892  0.3739 -0.3665  0.4468
17463THY    HP332645   6.224   8.552   5.721 -1.5275 -0.3877  0.4261
17463THY    HP432646   6.283   8.680   5.830  1.2592 -0.9912 -0.2985
17463THY    CP332647   6.342   8.343   5.868 -0.2518 -0.3536 -0.0830
17463THY    HP532648   6.249   8.322   5.921  1.0381  2.3337  0.6231
17463THY    HP632649   6.434   8.302   5.912  0.5000 -1.1845  0.6506
17463THY    HP732650   6.329   8.299   5.768 -0.5427 -0.6596  0.6915
17463THY    CA332651   6.372   8.538   6.111  0.3931  0.1863  0.4706
17463THY    HA332652   6.279   8.484   6.126  1.2065  0.9179 -0.7785
17463THY    CA432653   6.442   8.585   6.226 -0.2510 -0.4912 -0.2229
17463THY    HA432654   6.423   8.545   6.325  0.9305  0.8517  2.2958
17463THY    CA532655   6.562   8.652   6.217 -0.2148  0.0723 -0.4553
17463THY    CM132656   6.623   8.712   6.340 -0.0667  0.4831  1.2243
17463THY    HM132657   6.651   8.631   6.409 -1.5585 -0.3518 -0.0703
17463THY    HM232658   6.570   8.785   6.402 -0.5269  0.4276  0.9442
17463THY    HM332659   6.715   8.765   6.313 -0.1627 -0.1781  1.0585
17463THY    CA632660   6.626   8.656   6.092  0.3628 -0.3058  0.2165
17463THY    HA632661   6.728   8.693   6.081 -0.2004 -1.6748  1.4361
17464THY      O32662   9.042   5.805   3.056 -0.0651  0.6003  0.0292
17464THY     HO32663   9.026   5.851   2.971 -0.5286 -0.1334 -1.4176
17464THY    CA132664   9.130   5.707   3.022 -1.2287 -0.9928  0.1798
17464THY    CA232665   9.168   5.606   3.111  0.5723 -0.2359 -0.3292
17464THY    CP132666   9.123   5.609   3.262 -0.0370 -0.0775  0.3600
17464THY    HP132667   9.109   5.713   3.292  1.2482  2.2147 -0.0691
17464THY    CP232668   9.224   5.564   3.358 -0.5497 -0.6537 -0.1554
17464THY    HP232669   9.217   5.615   3.455 -1.6147  0.4368 -2.2556
17464THY    HP332670   9.320   5.585   3.309  0.7100  0.7776 -2.1806
17464THY    HP432671   9.219   5.455   3.368 -0.1542  1.1086 -0.0394
17464THY    CP332672   8.991   5.526   3.289 -0.2879 -0.0738  0.0837
17464THY    HP532673   8.969   5.529   3.396  0.5247  0.1235 -0.6524
17464THY    HP632674   8.997   5.420   3.262 -3.5110  2.1538 -0.8099
17464THY    HP732675   8.916   5.577   3.228 -0.3762  2.0323  2.7295
17464THY    CA332676   9.255   5.505   3.067  0.5208 -0.3916 -0.1827
17464THY    HA332677   9.269   5.420   3.133 -1.2495  0.7466  0.3410
17464THY    CA432678   9.310   5.519   2.933 -0.4943 -0.3890  0.8670
17464THY    HA432679   9.386   5.447   2.904 -1.7213 -0.7204 -0.3479
17464THY    CA532680   9.280   5.625   2.856 -0.2379  0.3446 -0.2865
17464THY    CM132681   9.364   5.643   2.732  0.2798  0.2411  0.1858
17464THY    HM132682   9.460   5.693   2.750  2.4238 -2.8359 -2.3569
17464THY    HM232683   9.297   5.701   2.668  1.0768 -1.1583 -0.3684
17464THY    HM332684   9.387   5.544   2.691 -0.0380 -3.6936  1.5474
17464THY    CA632685   9.186   5.719   2.897  0.0590 -0.1323 -0.2712
17464THY    HA632686   9.163   5.806   2.836 -2.6966 -0.3314 -1.0577
17465THY      O32687   9.076   5.307   7.713 -0.3904  0.4862 -0.3855
17465THY     HO32688   9.173   5.316   7.705 -0.4749 -2.5709 -0.9634
17465THY    CA132689   9.050   5.192   7.659  0.4451  0.0700  0.2472
17465THY    CA232690   8.970   5.189   7.544  0.4926  0.1558  0.3149
17465THY    CP132691   8.923   5.318   7.474  0.0030  0.3406  0.0753
17465THY    HP132692   8.966   5.401   7.531 -0.6019 -0.0079  0.6252
17465THY    CP232693   8.768   5.342   7.468  0.4018 -0.0453 -0.3973
17465THY    HP232694   8.720   5.251   7.433 -1.2256 -0.9817  0.7694
17465THY    HP332695   8.740   5.433   7.414 -0.2266 -0.4820 -0.8449
17465THY    HP432696   8.735   5.340   7.573 -1.3158 -0.5741 -2.1401
17465THY    CP332697   8.991   5.341   7.338 -0.0643 -0.4559  0.2859
17465THY    HP532698   8.968   5.267   7.261  2.6255 -0.7394 -0.3433
17465THY    HP632699   9.100   5.344   7.350 -0.1857  1.1506 -0.2337
17465THY    HP732700   8.958   5.435   7.292 -2.1837 -1.3023 -0.7974
17465THY    CA332701   8.926   5.067   7.488 -0.4737 -0.1491 -0.4733
17465THY    HA332702   8.852   5.063   7.409 -1.6646  0.6791  2.4020
17465THY    CA432703   8.968   4.947   7.555  0.6998  0.0258 -0.4386
17465THY    HA432704   8.944   4.852   7.510 -0.0964  3.4140 -1.9995
17465THY    CA532705   9.061   4.958   7.664  0.9824 -0.0866  0.6211
17465THY    CM132706   9.121   4.831   7.722 -0.0563 -0.4871 -0.2625
17465THY    HM132707   9.064   4.802   7.811  1.1220  1.3781  2.7725
17465THY    HM232708   9.228   4.843   7.744 -0.2634 -0.0834  0.9267
17465THY    HM332709   9.120   4.743   7.656 -0.3396  0.1035 -0.7066
17465THY    CA632710   9.096   5.077   7.716  0.1380  0.3227 -0.2316
17465THY    HA632711   9.164   5.073   7.800  1.3919 -0.6867 -1.1290
17466THY      O32712   0.761   8.367   2.001  0.1341 -0.6216  0.5332
17466THY     HO32713   0.773   8.271   1.988 -0.9656  1.4987  0.0480
17466THY    CA132714   0.845   8.415   2.098  0.7573  0.5621  0.0312
17466THY    CA232715   0.853   8.552   2.129  0.0789  0.4240 -0.3767
17466THY    CP132716   0.772   8.651   2.050 -0.4689 -0.1161 -0.5865
17466THY    HP132717   0.693   8.598   1.996 -1.9441  0.8434  0.5515
17466THY    CP232718   0.852   8.729   1.946  0.0247  0.0044  0.6720
17466THY    HP232719   0.783   8.785   1.882  0.3190 -2.4433 -1.5724
17466THY    HP332720   0.909   8.660   1.882  1.4081  2.6202 -0.7627
17466THY    HP432721   0.928   8.797   1.988  0.0815  1.9292 -0.5035
17466THY    CP332722   0.691   8.748   2.130  0.0776  0.5425  0.3398
17466THY    HP532723   0.628   8.685   2.194  0.1405 -0.7072 -1.0593
17466THY    HP632724   0.626   8.809   2.065 -0.6363  0.6510 -0.2821
17466THY    HP732725   0.759   8.809   2.190  2.6210 -2.7840  1.0585
17466THY    CA332726   0.949   8.593   2.223  0.5871  0.1279  0.4418
17466THY    HA332727   0.962   8.701   2.233  2.4066 -3.3326  0.6865
17466THY    CA432728   1.030   8.497   2.283 -0.2689 -0.0387 -0.6084
17466THY    HA432729   1.085   8.542   2.366 -2.5898  0.5575  1.3255
17466THY    CA532730   1.020   8.362   2.251 -0.3809 -0.1471 -0.0138
17466THY    CM132731   1.101   8.264   2.328 -0.4073  0.4099  0.1685
17466THY    HM132732   1.159   8.208   2.253 -1.0356  0.3883 -0.4715
17466THY    HM232733   1.036   8.194   2.382 -1.0732  2.7371  2.4499
17466THY    HM332734   1.167   8.305   2.405  1.1216 -1.7056  1.9077
17466THY    CA632735   0.930   8.322   2.157 -0.5539  0.1269  0.1833
17466THY    HA632736   0.928   8.215   2.139  2.5503  0.0829  0.0356
17467THY      O32737   9.368   7.359   4.454  0.6057  0.3666 -0.4480
17467THY     HO32738   9.358   7.410   4.536 -2.1879  0.6427 -1.3021
17467THY    CA132739   9.239   7.325   4.418 -0.1956  0.3191 -0.4112
17467THY    CA232740   9.216   7.228   4.324 -0.7739 -0.8717  0.3154
17467THY    CP132741   9.336   7.149   4.261  0.7572  1.2528 -0.5133
17467THY    HP132742   9.430   7.188   4.300 -0.1698  1.5180  1.6044
17467THY    CP232743   9.327   7.175   4.106 -0.6668  0.2741 -0.3497
17467THY    HP232744   9.246   7.113   4.066 -0.4372 -2.7040  1.0969
17467THY    HP332745   9.425   7.147   4.063  0.2891  1.1483  1.5025
17467THY    HP432746   9.305   7.280   4.084 -2.8298  0.5862 -0.7041
17467THY    CP332747   9.325   7.004   4.296 -0.7374  0.1191  0.5342
17467THY    HP532748   9.339   7.006   4.405 -0.5510  0.0995  0.2937
17467THY    HP632749   9.418   6.966   4.251 -1.0011 -0.7166  0.8590
17467THY    HP732750   9.229   6.962   4.267 -0.5882 -0.2165  0.4194
17467THY    CA332751   9.082   7.183   4.297  0.1405  0.6052 -1.0265
17467THY    HA332752   9.060   7.109   4.221  1.2693  0.2369 -1.0011
17467THY    CA432753   8.972   7.236   4.362  0.7133 -0.6237  0.3747
17467THY    HA432754   8.872   7.201   4.338  0.9937 -0.7848 -0.3460
17467THY    CA532755   8.991   7.336   4.461 -0.7337 -0.0974 -0.9082
17467THY    CM132756   8.867   7.401   4.525  0.1765  0.2571  0.3512
17467THY    HM132757   8.889   7.422   4.630  1.8060 -0.0024  0.0346
17467THY    HM232758   8.784   7.329   4.523 -0.3222 -2.3374  0.9175
17467THY    HM332759   8.834   7.491   4.472 -0.4354  1.5704  0.9296
17467THY    CA632760   9.124   7.386   4.481 -0.6457  0.6030 -0.1870
17467THY    HA632761   9.140   7.462   4.558 -1.0525 -0.5390  1.1027
17468THY      O32762   9.077   4.954   3.407  0.3701  0.0168 -0.0766
17468THY     HO32763   9.117   4.876   3.367 -0.4523 -0.5993 -0.1837
17468THY    CA132764   9.065   4.915   3.540  1.1823  0.3403 -0.6513
17468THY    CA232765   9.041   5.010   3.653 -0.7110  0.1283 -0.2407
17468THY    CP132766   9.012   5.157   3.620 -0.7400 -0.3281 -0.1446
17468THY    HP132767   9.003   5.163   3.511  0.5136 -0.3777  1.5083
17468THY    CP232768   9.134   5.242   3.649  0.0560  0.4105  0.7693
17468THY    HP232769   9.218   5.203   3.591 -0.2304 -0.9870  2.1529
17468THY    HP332770   9.149   5.243   3.758 -0.6055  0.5131  0.4709
17468THY    HP432771   9.119   5.342   3.607 -2.4191 -0.0380  0.2738
17468THY    CP332772   8.887   5.198   3.692  0.6443 -0.2381  0.4574
17468THY    HP532773   8.908   5.227   3.796  1.6011 -0.1212 -0.6137
17468THY    HP632774   8.807   5.123   3.696  1.3769  0.5210 -0.3097
17468THY    HP732775   8.848   5.293   3.655 -0.0965  3.6429  1.8592
17468THY    CA332776   9.040   4.956   3.782 -0.0242 -0.2373  0.4003
17468THY    HA332777   9.039   5.029   3.863  1.5884 -0.3758  0.6238
17468THY    CA432778   9.047   4.815   3.805  0.7841  0.1735 -0.2079
17468THY    HA432779   9.040   4.766   3.902  0.5365  1.4590  2.2224
17468THY    CA532780   9.075   4.730   3.694  0.5193  0.2079  0.4647
17468THY    CM132781   9.089   4.572   3.714  0.8233 -0.4659 -0.2235
17468THY    HM132782   9.151   4.525   3.637  0.8788 -0.7188  0.2505
17468THY    HM232783   8.993   4.520   3.713  0.9287 -0.5675 -0.4163
17468THY    HM332784   9.147   4.563   3.807  0.8808 -0.4954 -0.1697
17468THY    CA632785   9.084   4.786   3.565  0.2021 -0.2233  0.7120
17468THY    HA632786   9.106   4.712   3.488 -1.8413  1.2539 -1.5761
17469THY      O32787   5.150   7.221   7.477  0.3146  0.5446  0.5872
17469THY     HO32788   5.089   7.223   7.553 -0.2873  0.1555 -1.1679
17469THY    CA132789   5.135   7.103   7.419  0.3450  0.3188  0.7016
17469THY    CA232790   5.182   7.079   7.288  0.4680  0.1138  0.4063
17469THY    CP132791   5.265   7.181   7.210 -0.1214 -0.2994  0.0752
17469THY    HP132792   5.317   7.252   7.276  0.7251 -1.6362  0.7538
17469THY    CP232793   5.181   7.272   7.112 -0.4933  0.5540 -0.6513
17469THY    HP232794   5.245   7.319   7.036  1.1442  2.4116  0.2773
17469THY    HP332795   5.118   7.344   7.164 -0.2314  1.6244 -1.1661
17469THY    HP432796   5.124   7.201   7.050 -0.5997  3.0546 -2.9124
17469THY    CP332797   5.375   7.104   7.150  0.3268  0.2086 -0.6229
17469THY    HP532798   5.443   7.184   7.116 -1.9653 -0.5745  1.1005
17469THY    HP632799   5.336   7.063   7.056 -0.0436  0.1283 -0.0929
17469THY    HP732800   5.424   7.031   7.216 -0.1937  0.4293 -0.7735
17469THY    CA332801   5.131   6.970   7.215  0.0649  0.6564  0.9897
17469THY    HA332802   5.163   6.947   7.114 -0.4022  0.4411  1.2795
17469THY    CA432803   5.057   6.871   7.282  0.4697 -0.9185 -0.1567
17469THY    HA432804   5.013   6.782   7.238 -0.9225 -0.3140  0.1997
17469THY    CA532805   5.022   6.886   7.416 -0.0955  0.7709 -0.0748
17469THY    CM132806   4.952   6.777   7.486  0.0373 -0.0006 -0.4253
17469THY    HM132807   5.024   6.727   7.551  1.4265 -1.0826  0.1234
17469THY    HM232808   4.911   6.701   7.419 -2.0170 -0.6437  1.1389
17469THY    HM332809   4.871   6.820   7.547  2.3020  1.4656  2.1352
17469THY    CA632810   5.046   7.008   7.476 -0.1108  0.4427 -0.2917
17469THY    HA632811   5.021   7.021   7.581 -0.7267  0.2833 -0.1237
17470THY      O32812   1.569   7.162   5.938  0.1440 -0.4006 -0.3577
17470THY     HO32813   1.544   7.087   5.882  0.4478 -1.2752  0.1858
17470THY    CA132814   1.563   7.120   6.067 -1.1683 -0.1665  0.4936
17470THY    CA232815   1.583   7.211   6.172  0.0914 -0.8383  0.0083
17470THY    CP132816   1.614   7.356   6.136  0.1615 -0.1524  0.1951
17470THY    HP132817   1.606   7.380   6.030 -0.1497 -0.0469  0.5786
17470THY    CP232818   1.760   7.403   6.175  0.6830 -0.0742  0.8020
17470THY    HP232819   1.785   7.505   6.145  0.5704  1.2887  1.2598
17470THY    HP332820   1.833   7.339   6.123  2.4767  3.1677 -0.0300
17470THY    HP432821   1.784   7.391   6.282  0.1911 -0.1085 -0.7079
17470THY    CP332822   1.510   7.454   6.204 -0.1341  1.1653 -0.1491
17470THY    HP532823   1.527   7.558   6.174  2.1061  1.2014 -0.4651
17470THY    HP632824   1.501   7.443   6.313 -0.3237  0.9783 -2.5311
17470THY    HP732825   1.409   7.433   6.167 -0.6202  0.8126  2.5573
17470THY    CA332826   1.571   7.155   6.303 -0.1450  0.1160 -0.5491
17470THY    HA332827   1.580   7.222   6.388  0.5680 -0.3694 -0.0049
17470THY    CA432828   1.527   7.027   6.323  0.3992  0.4434  0.1605
17470THY    HA432829   1.513   6.982   6.421 -1.3214 -0.5843 -1.7069
17470THY    CA532830   1.507   6.940   6.215  0.3405 -0.9390 -0.5965
17470THY    CM132831   1.452   6.801   6.241 -0.4709 -0.1805 -0.3381
17470THY    HM132832   1.383   6.806   6.326  0.2550  0.3614  1.3158
17470THY    HM232833   1.528   6.725   6.263 -1.3717  0.7875 -0.9756
17470THY    HM332834   1.383   6.771   6.162 -1.2901  0.0084  0.9690
17470THY    CA632835   1.529   6.985   6.087 -0.0689  0.2192 -0.4808
17470THY    HA632836   1.507   6.923   6.001  0.4732  1.4695 -2.4743
17471THY      O32837   1.922   7.990   5.844  0.0491 -0.1363 -0.6768
17471THY     HO32838   1.976   8.046   5.786 -0.5760 -0.4370 -0.3795
17471THY    CA132839   1.800   8.050   5.877 -0.9194  0.6042 -0.7526
17471THY    CA232840   1.704   7.984   5.961 -0.1718 -0.1113 -0.1962
17471THY    CP132841   1.732   7.851   6.023  0.3346 -0.2691  0.5620
17471THY    HP132842   1.828   7.816   5.982  0.9957  1.4813  0.2090
17471THY    CP232843   1.623   7.749   5.979  0.3533  0.3345 -0.7907
17471THY    HP232844   1.673   7.653   5.966 -0.3943 -1.6186 -0.9573
17471THY    HP332845   1.572   7.776   5.885  2.0096 -0.5447 -0.5532
17471THY    HP432846   1.541   7.748   6.051 -0.5085 -0.5775  0.7568
17471THY    CP332847   1.737   7.843   6.180 -0.0997  0.7604 -0.4654
17471THY    HP532848   1.640   7.849   6.231 -0.2438  0.5204 -0.7804
17471THY    HP632849   1.783   7.934   6.222  1.1270 -1.4920  0.0255
17471THY    HP732850   1.793   7.755   6.212 -0.1913 -0.5118 -1.0001
17471THY    CA332851   1.582   8.051   5.987  0.2063  0.0364 -0.4030
17471THY    HA332852   1.496   8.015   6.042  0.9902  1.7444  0.2102
17471THY    CA432853   1.556   8.170   5.914 -0.2789  0.0801  0.5118
17471THY    HA432854   1.464   8.223   5.935  0.5484 -0.6514  2.3120
17471THY    CA532855   1.645   8.225   5.820  0.5136  0.1175 -0.8018
17471THY    CM132856   1.621   8.351   5.735  0.5062  0.6437  0.3967
17471THY    HM132857   1.693   8.352   5.652 -0.9350 -0.7069 -1.4460
17471THY    HM232858   1.625   8.448   5.786  1.1540 -1.0119  1.2783
17471THY    HM332859   1.520   8.348   5.691 -0.1453  1.8328  2.5437
17471THY    CA632860   1.774   8.167   5.810  0.8283 -0.1166 -0.4867
17471THY    HA632861   1.841   8.205   5.733 -0.6909  0.3010  3.4189
17472THY      O32862   6.451   1.935   6.746  0.1234  0.2598 -0.3153
17472THY     HO32863   6.505   2.007   6.782  0.4393 -0.7958 -0.0135
17472THY    CA132864   6.524   1.832   6.700  0.6134  0.0358  0.0134
17472THY    CA232865   6.470   1.702   6.701  0.7727  0.4264 -0.1944
17472THY    CP132866   6.337   1.663   6.767  0.4894 -0.3870  0.3178
17472THY    HP132867   6.280   1.750   6.801  0.1608 -1.2502  0.4515
17472THY    CP232868   6.364   1.571   6.883  0.4172  0.4831  0.2980
17472THY    HP232869   6.278   1.552   6.949 -0.2658 -0.9367 -1.8666
17472THY    HP332870   6.447   1.621   6.935 -0.7397  1.5619  1.1440
17472THY    HP432871   6.405   1.475   6.849 -1.3480  0.1690 -0.3747
17472THY    CP332872   6.241   1.597   6.663 -0.3069 -0.7989 -1.3451
17472THY    HP532873   6.162   1.559   6.728  0.5619  0.0149 -1.8163
17472THY    HP632874   6.286   1.512   6.610 -0.9345 -2.4955 -0.6549
17472THY    HP732875   6.214   1.676   6.593  0.0478 -0.4521 -0.9096
17472THY    CA332876   6.545   1.593   6.640 -0.0031 -0.5696  0.1008
17472THY    HA332877   6.512   1.490   6.650 -1.0435  1.6360  0.5837
17472THY    CA432878   6.677   1.622   6.586  0.1658  0.4956 -0.2568
17472THY    HA432879   6.748   1.546   6.552 -0.3786  0.7748 -0.9045
17472THY    CA532880   6.717   1.756   6.574 -0.3004 -0.5043 -0.3934
17472THY    CM132881   6.834   1.791   6.494  0.2554 -0.2903 -0.3309
17472THY    HM132882   6.836   1.730   6.404 -1.4477 -1.7337  1.5905
17472THY    HM232883   6.927   1.776   6.551  0.1840 -0.2878 -0.7867
17472THY    HM332884   6.829   1.898   6.471 -0.9603  0.7452 -0.1332
17472THY    CA632885   6.644   1.858   6.633 -0.1919 -0.0484  0.7048
17472THY    HA632886   6.685   1.959   6.630 -0.7513 -0.5739  0.9214
17473THY      O32887   6.617   7.944   4.257  0.6837  0.6755  0.1793
17473THY     HO32888   6.545   7.934   4.192  0.5736  0.9360 -0.8127
17473THY    CA132889   6.548   8.013   4.357  0.0057  0.5464  0.2203
17473THY    CA232890   6.579   7.990   4.496 -0.1474 -0.0742 -0.6384
17473THY    CP132891   6.696   7.893   4.531 -0.2567 -0.1230 -0.0262
17473THY    HP132892   6.717   7.833   4.441 -0.6688 -1.9124  2.3302
17473THY    CP232893   6.687   7.782   4.645 -0.2798 -0.2879 -0.4134
17473THY    HP232894   6.663   7.821   4.745 -0.0775  0.1168 -1.3005
17473THY    HP332895   6.784   7.731   4.654 -1.2049 -2.7221 -2.7810
17473THY    HP432896   6.614   7.703   4.630  0.0774  1.5904 -1.1477
17473THY    CP332897   6.817   7.981   4.548 -0.5561 -0.0657 -0.6144
17473THY    HP532898   6.897   7.914   4.581  0.0154 -0.9991 -0.4075
17473THY    HP632899   6.802   8.059   4.624  0.0310 -1.1051  0.5323
17473THY    HP732900   6.848   8.031   4.456 -0.4524  0.6510  0.6806
17473THY    CA332901   6.510   8.067   4.596  0.7074 -0.7224  0.2903
17473THY    HA332902   6.534   8.053   4.701 -1.2401 -0.0395  1.6185
17473THY    CA432903   6.403   8.150   4.554  0.7917  0.6144  0.0676
17473THY    HA432904   6.332   8.177   4.633  1.5839  0.9069  1.4269
17473THY    CA532905   6.368   8.156   4.415  0.7887  0.0706 -0.0352
17473THY    CM132906   6.261   8.250   4.373 -0.7023  0.9665  0.7525
17473THY    HM132907   6.182   8.193   4.323  0.1877  0.0216  0.2993
17473THY    HM232908   6.300   8.334   4.314 -0.2215  2.1992  1.4163
17473THY    HM332909   6.219   8.302   4.459 -3.2331  1.6627 -2.2050
17473THY    CA632910   6.440   8.088   4.315 -0.4050 -0.4004  0.8322
17473THY    HA632911   6.422   8.093   4.208  0.6801 -0.6679 -0.4484
17474THY      O32912   6.645   6.514   4.390  0.7136  0.4647  0.1177
17474THY     HO32913   6.571   6.482   4.336  0.3542 -0.3921  2.2556
17474THY    CA132914   6.576   6.577   4.489  0.7271  0.0786  0.9143
17474THY    CA232915   6.605   6.696   4.553  0.5830  0.1822  0.2532
17474THY    CP132916   6.741   6.775   4.525 -0.5436 -0.6207  0.0017
17474THY    HP132917   6.773   6.735   4.428 -0.5318 -0.7661  0.3584
17474THY    CP232918   6.836   6.740   4.641 -0.0172  0.3986 -0.6988
17474THY    HP232919   6.930   6.796   4.639  0.0972 -2.6933 -0.8170
17474THY    HP332920   6.868   6.636   4.628  3.6701  1.7230  0.1276
17474THY    HP432921   6.773   6.757   4.729 -0.1779 -0.2249  2.5138
17474THY    CP332922   6.734   6.926   4.515  0.0061 -0.2853 -0.4789
17474THY    HP532923   6.669   6.974   4.590 -0.2626  0.1184 -1.4509
17474THY    HP632924   6.710   6.950   4.411 -0.4432  0.1199  0.9711
17474THY    HP732925   6.835   6.968   4.525 -1.3142 -0.5592  3.1257
17474THY    CA332926   6.509   6.755   4.642 -0.6734  0.7431 -0.4482
17474THY    HA332927   6.515   6.855   4.683 -1.3827  0.8718 -0.4510
17474THY    CA432928   6.383   6.696   4.650  0.2819 -0.3671 -0.5074
17474THY    HA432929   6.308   6.754   4.703 -1.4538 -2.4713 -0.6789
17474THY    CA532930   6.347   6.578   4.584 -1.5572 -0.0215 -0.8126
17474THY    CM132931   6.204   6.533   4.592 -0.4704 -0.3434 -0.3192
17474THY    HM132932   6.138   6.613   4.628  2.2654 -0.2546  2.0718
17474THY    HM232933   6.199   6.441   4.651 -1.8351 -0.2579 -0.2201
17474THY    HM332934   6.165   6.502   4.494  0.4557 -0.7135 -0.3402
17474THY    CA632935   6.447   6.520   4.503 -0.1973 -0.4141  0.4582
17474THY    HA632936   6.428   6.435   4.438 -1.4481 -2.4061  2.1687
17475THY      O32937   3.725   9.102   3.982  0.1113  0.3038  0.6773
17475THY     HO32938   3.809   9.147   3.959  0.5447  0.3719 -0.0732
17475THY    CA132939   3.640   9.129   3.883 -0.1702  0.3067 -0.4019
17475THY    CA232940   3.512   9.079   3.879 -0.6194 -0.1887 -0.1511
17475THY    CP132941   3.463   8.986   3.997  0.1244  0.7020 -0.2481
17475THY    HP132942   3.537   8.983   4.078 -0.1400  0.9596  0.0096
17475THY    CP232943   3.427   8.840   3.960 -0.4635  0.0935  0.8947
17475THY    HP232944   3.362   8.831   3.872  0.1834 -0.3596  0.6038
17475THY    HP332945   3.385   8.783   4.044  1.1164  1.3331  1.5048
17475THY    HP432946   3.522   8.790   3.939 -0.0534 -0.2498  1.8077
17475THY    CP332947   3.341   9.062   4.050 -1.1641 -0.2548  0.0118
17475THY    HP532948   3.343   9.031   4.155  2.4334 -0.0558  0.4744
17475THY    HP632949   3.242   9.036   4.011 -0.6266 -1.5357 -0.1505
17475THY    HP732950   3.359   9.170   4.041 -1.3682 -1.3074 -0.0352
17475THY    CA332951   3.427   9.111   3.774  0.2110  0.7553  0.1136
17475THY    HA332952   3.326   9.071   3.766  0.2882 -1.6638  0.2563
17475THY    CA432953   3.478   9.197   3.676 -0.3743 -0.1383  0.8336
17475THY    HA432954   3.414   9.243   3.602 -0.4368 -0.0618  0.8686
17475THY    CA532955   3.609   9.248   3.682 -0.3187  0.1272 -0.1805
17475THY    CM132956   3.659   9.336   3.576 -0.5744  0.0174  0.0244
17475THY    HM132957   3.766   9.355   3.584 -0.5680  0.2612 -0.1096
17475THY    HM232958   3.597   9.426   3.573  0.7240  1.3134  1.0042
17475THY    HM332959   3.652   9.282   3.480  1.7839  1.5502 -3.3721
17475THY    CA632960   3.690   9.211   3.780 -0.2917  0.0647  0.0957
17475THY    HA632961   3.792   9.245   3.796 -0.2528  4.2210 -1.3328
17476THY      O32962   2.128   1.858   5.629  0.0657 -0.0256  0.1265
17476THY     HO32963   2.071   1.797   5.579 -1.2569  0.8979  0.5489
17476THY    CA132964   2.045   1.931   5.707  0.0259 -0.5768  0.4602
17476THY    CA232965   2.094   2.050   5.773 -0.3107  0.3401 -0.2107
17476THY    CP132966   2.240   2.082   5.749  0.1513 -0.2289 -0.3568
17476THY    HP132967   2.282   2.030   5.662  1.2260 -0.4811  0.8633
17476THY    CP232968   2.328   2.050   5.869  0.4058  0.4103  0.0876
17476THY    HP232969   2.298   2.092   5.966  2.0236  0.0668  2.1536
17476THY    HP332970   2.431   2.078   5.845 -0.1243  0.6559  2.4512
17476THY    HP432971   2.327   1.940   5.873 -0.2969 -0.3858  0.0545
17476THY    CP332972   2.267   2.223   5.694  0.8150 -1.3907 -0.1791
17476THY    HP532973   2.197   2.249   5.614  2.0656 -2.2183  0.6945
17476THY    HP632974   2.369   2.235   5.656  0.9151 -0.6221  1.8171
17476THY    HP732975   2.242   2.297   5.771  0.4533 -1.4843 -0.1998
17476THY    CA332976   2.014   2.118   5.863 -0.3277 -0.0999  0.7612
17476THY    HA332977   2.059   2.192   5.929 -0.5924  1.0141 -0.0319
17476THY    CA432978   1.880   2.070   5.878  0.6931 -0.2086  0.5263
17476THY    HA432979   1.815   2.126   5.945 -1.2500 -0.9864 -0.6920
17476THY    CA532980   1.836   1.954   5.813 -0.1291  0.5159  0.2134
17476THY    CM132981   1.700   1.902   5.834  0.1127  0.2976  0.2433
17476THY    HM132982   1.626   1.979   5.862  0.4332 -2.4723  1.6669
17476THY    HM232983   1.703   1.830   5.917  3.5492 -2.0182 -2.5743
17476THY    HM332984   1.668   1.857   5.740  0.5140  1.0528 -1.7036
17476THY    CA632985   1.917   1.875   5.734  0.0937  0.6373 -0.1834
17476THY    HA632986   1.887   1.780   5.692  1.4656 -1.8123  0.3973
17477THY      O32987   8.914   8.569   6.850 -0.1902 -0.9414 -0.3793
17477THY     HO32988   8.861   8.592   6.772 -0.1871 -0.6114  0.8319
17477THY    CA132989   9.045   8.548   6.814  0.0816 -0.3218 -0.4277
17477THY    CA232990   9.141   8.510   6.911 -0.5643 -0.2021  0.2703
17477THY    CP132991   9.089   8.466   7.052  0.2836  0.2366 -0.6861
17477THY    HP132992   9.018   8.536   7.097  1.7596  1.0047  0.3736
17477THY    CP232993   9.201   8.467   7.157  0.6801  0.5115  0.0400
17477THY    HP232994   9.166   8.420   7.250  1.7654  0.9267  0.0264
17477THY    HP332995   9.235   8.570   7.174  0.1901 -1.8551  0.6544
17477THY    HP432996   9.288   8.411   7.121 -1.9458  0.0544 -4.1661
17477THY    CP332997   9.042   8.318   7.025  0.4662 -0.1212  0.4992
17477THY    HP532998   9.117   8.271   6.962  1.6753  0.7194  1.2369
17477THY    HP632999   8.954   8.320   6.959 -0.0745  0.3192 -3.0058
17477THY    HP733000   9.025   8.255   7.113  2.1638 -1.4991 -2.0143
17477THY    CA333001   9.275   8.497   6.866  0.0839 -0.2397  1.2054
17477THY    HA333002   9.354   8.457   6.929 -2.7015  2.1272 -1.0102
17477THY    CA433003   9.301   8.514   6.731  0.2990  0.3033  0.9986
17477THY    HA433004   9.397   8.475   6.699 -1.1520  0.7679 -3.5615
17477THY    CA533005   9.204   8.551   6.639  0.3845 -0.0995  0.4139
17477THY    CM133006   9.243   8.562   6.497 -1.0354 -0.5052 -0.4347
17477THY    HM133007   9.317   8.495   6.451 -0.6405 -1.3041  0.5113
17477THY    HM233008   9.256   8.667   6.467  0.9827 -0.8108 -0.7275
17477THY    HM333009   9.151   8.540   6.441 -2.3779 -0.4546  4.0125
17477THY    CA633010   9.074   8.568   6.681  0.6291 -0.3583 -0.4968
17477THY    HA633011   8.992   8.600   6.616 -0.4380  1.6966  1.2155
17478THY      O33012   3.154   2.969   3.601  0.0270  0.0400  0.6713
17478THY     HO33013   3.246   2.991   3.626 -0.5285  1.0114  2.0475
17478THY    CA133014   3.097   2.970   3.721  0.4347  0.1877  0.0475
17478THY    CA233015   2.982   2.895   3.748 -0.2571  0.0496 -0.2506
17478THY    CP133016   2.927   2.796   3.642  0.0808  0.1774  0.2151
17478THY    HP133017   2.991   2.796   3.553 -0.5126 -0.2742  1.6836
17478THY    CP233018   2.788   2.831   3.597  0.3463 -0.2106 -1.0769
17478THY    HP233019   2.724   2.783   3.672  1.3914  1.1272 -0.4401
17478THY    HP333020   2.762   2.788   3.499  1.6035 -0.0395 -2.3001
17478THY    HP433021   2.784   2.941   3.595  2.9674  0.2321 -0.9121
17478THY    CP333022   2.922   2.649   3.695 -0.1013  0.3319  0.0948
17478THY    HP533023   3.020   2.633   3.740 -1.0561  2.7937  0.6817
17478THY    HP633024   2.893   2.582   3.613 -1.2257  2.1994 -1.8181
17478THY    HP733025   2.840   2.649   3.768 -0.9954 -0.6311  0.7161
17478THY    CA333026   2.911   2.923   3.872  0.4584  0.3176  0.1235
17478THY    HA333027   2.810   2.886   3.884 -0.2835 -1.5673  1.3628
17478THY    CA433028   2.959   3.023   3.961  0.5880  0.3620 -0.1534
17478THY    HA433029   2.910   3.060   4.051  1.1703  0.9732 -0.8274
17478THY    CA533030   3.080   3.093   3.936  0.4056  1.2749  0.1578
17478THY    CM133031   3.142   3.195   4.027 -0.1336  0.7007 -0.5460
17478THY    HM133032   3.146   3.164   4.132  2.3951  1.2179  1.2849
17478THY    HM233033   3.086   3.288   4.013 -0.8379  1.3028 -0.8670
17478THY    HM333034   3.247   3.216   4.006 -0.6602 -2.4568 -0.5843
17478THY    CA633035   3.144   3.071   3.806  0.0586 -0.6446  0.7556
17478THY    HA633036   3.227   3.135   3.778 -0.6235 -0.8537  1.5698
17479THY      O33037   5.276   6.338   3.071 -0.1012 -0.2323 -0.4726
17479THY     HO33038   5.308   6.327   2.980  0.5939 -0.0040 -0.3802
17479THY    CA133039   5.142   6.349   3.080 -0.6289  0.2484 -0.3948
17479THY    CA233040   5.087   6.376   3.207 -0.3864  1.0349 -0.4630
17479THY    CP133041   5.182   6.373   3.326 -0.0321 -0.1471 -0.5530
17479THY    HP133042   5.284   6.341   3.300  0.0945 -0.2898 -0.0391
17479THY    CP233043   5.142   6.270   3.439  0.0018  0.8718  0.3650
17479THY    HP233044   5.056   6.302   3.498  0.0344  0.0241  2.0946
17479THY    HP333045   5.222   6.242   3.508  1.2895  0.0671  1.9269
17479THY    HP433046   5.113   6.172   3.399  0.5260  1.9929 -0.2680
17479THY    CP333047   5.190   6.515   3.396 -1.2056 -0.5243  0.8579
17479THY    HP533048   5.218   6.589   3.320 -1.4077  1.9119  3.6170
17479THY    HP633049   5.257   6.506   3.482  1.2368 -2.4981 -1.4212
17479THY    HP733050   5.094   6.532   3.446 -0.6972  1.0358 -0.5720
17479THY    CA333051   4.948   6.394   3.212  0.5085 -0.1632  0.1688
17479THY    HA333052   4.904   6.398   3.312  0.2806 -0.3241  2.5429
17479THY    CA433053   4.874   6.405   3.097 -0.3693  1.0487 -0.5467
17479THY    HA433054   4.769   6.433   3.105 -0.4249 -0.9511 -0.0199
17479THY    CA533055   4.928   6.387   2.965 -0.6214 -0.0100 -0.2089
17479THY    CM133056   4.841   6.389   2.850 -0.4446  0.3311 -0.6130
17479THY    HM133057   4.859   6.301   2.788 -2.5348 -0.3409 -0.6215
17479THY    HM233058   4.863   6.477   2.790 -3.0417 -1.2435 -0.9290
17479THY    HM333059   4.736   6.365   2.874 -0.5257 -0.9354 -1.6290
17479THY    CA633060   5.068   6.344   2.961 -0.0611  0.0354  0.5067
17479THY    HA633061   5.111   6.316   2.865  1.5872  1.1631 -1.0208
17480THY      O33062   5.582   3.259   3.892  0.5904 -0.3423 -0.3777
17480THY     HO33063   5.601   3.326   3.960  2.4669 -0.7943 -0.4068
17480THY    CA133064   5.612   3.302   3.771 -0.0318  1.1738  0.4214
17480THY    CA233065   5.563   3.236   3.651 -0.7233  0.0309 -0.4922
17480THY    CP133066   5.463   3.118   3.655  0.3679 -0.7860 -0.4897
17480THY    HP133067   5.482   3.064   3.749 -2.5784  1.1503  1.5230
17480THY    CP233068   5.486   3.019   3.546 -0.5439 -0.0537  0.0774
17480THY    HP233069   5.421   2.934   3.569 -0.5078  2.4955  0.6574
17480THY    HP333070   5.592   2.991   3.541 -0.7640 -1.2168 -0.6102
17480THY    HP433071   5.462   3.053   3.444  1.0772 -0.6303 -0.4391
17480THY    CP333072   5.319   3.176   3.655  0.8880  0.0434 -0.0647
17480THY    HP533073   5.315   3.238   3.564  3.6125 -1.4751 -1.9202
17480THY    HP633074   5.288   3.234   3.742 -0.7185  0.7863 -1.9157
17480THY    HP733075   5.244   3.096   3.654  2.3413  1.9611 -1.5429
17480THY    CA333076   5.602   3.282   3.527  0.2767  0.4689  0.1378
17480THY    HA333077   5.579   3.228   3.435  2.3706 -1.1774  1.8414
17480THY    CA433078   5.691   3.398   3.514 -0.0774  0.6789  0.4512
17480THY    HA433079   5.724   3.423   3.413 -2.8610 -0.4474  0.0062
17480THY    CA533080   5.733   3.461   3.632  0.4580 -0.3700  0.3376
17480THY    CM133081   5.820   3.578   3.626  0.4970 -0.0628 -0.5358
17480THY    HM133082   5.924   3.562   3.596  1.7725  3.5188  0.2104
17480THY    HM233083   5.822   3.637   3.718 -2.4548  1.4787 -2.5859
17480THY    HM333084   5.780   3.647   3.550 -0.3855  0.1278 -0.8249
17480THY    CA633085   5.695   3.418   3.761  0.2530 -0.2660  0.1111
17480THY    HA633086   5.729   3.472   3.849 -1.5728  0.6792 -0.1893
17481THY      O33087   4.016   6.530   6.725  0.0423  0.2643  0.6732
17481THY     HO33088   4.069   6.471   6.669 -0.0669  1.1146 -0.2665
17481THY    CA133089   3.937   6.598   6.643  0.1905  0.3623 -0.5908
17481THY    CA233090   3.828   6.673   6.700 -0.3153 -0.4393 -0.7519
17481THY    CP133091   3.803   6.684   6.858 -0.5764  0.0066 -0.1283
17481THY    HP133092   3.896   6.661   6.912 -1.8832  2.7395  0.6782
17481THY    CP233093   3.690   6.597   6.908  0.0247 -0.3262  0.5058
17481THY    HP233094   3.713   6.492   6.886 -0.1675  2.7239 -0.2961
17481THY    HP333095   3.600   6.625   6.853 -0.1660 -1.4824 -2.0946
17481THY    HP433096   3.676   6.604   7.017  3.0956  0.1320  0.6944
17481THY    CP333097   3.779   6.829   6.911 -0.7818  0.4948 -0.9164
17481THY    HP533098   3.877   6.877   6.920 -1.5307 -1.0646  1.0763
17481THY    HP633099   3.737   6.850   7.010 -0.4721 -0.1748  4.2128
17481THY    HP733100   3.731   6.902   6.844  0.3332 -0.1413 -0.7561
17481THY    CA333101   3.740   6.734   6.610  0.4180  0.5076 -0.2511
17481THY    HA333102   3.661   6.798   6.647  2.8164  1.0128  2.6378
17481THY    CA433103   3.750   6.711   6.472  0.1123  0.1383  0.1733
17481THY    HA433104   3.684   6.753   6.397  0.8752 -0.9123 -0.4423
17481THY    CA533105   3.867   6.643   6.419  0.2543  0.5195 -0.5589
17481THY    CM133106   3.892   6.616   6.280 -0.5065  0.2436 -0.0644
17481THY    HM133107   3.801   6.580   6.233 -0.3449 -1.1684  1.2615
17481THY    HM233108   3.974   6.543   6.274 -0.9691  1.5146 -0.7040
17481THY    HM333109   3.910   6.709   6.224 -0.6296 -0.3051 -0.3722
17481THY    CA633110   3.946   6.587   6.509 -0.0487 -0.4612  0.3355
17481THY    HA633111   4.042   6.549   6.473 -0.4627 -0.2615 -0.9523
17482THY      O33112   2.937   6.471   2.345 -1.0555 -0.0188 -0.2099
17482THY     HO33113   2.975   6.532   2.410 -1.2758 -0.3473  0.2854
17482THY    CA133114   2.802   6.465   2.353  0.1494 -0.2125  0.2211
17482THY    CA233115   2.728   6.416   2.240  0.5542  0.4828 -0.1203
17482THY    CP133116   2.784   6.381   2.102  0.2944 -0.4617  0.1543
17482THY    HP133117   2.893   6.390   2.104  0.4308  0.3755 -1.2141
17482THY    CP233118   2.725   6.483   2.001  0.4456 -0.0594 -0.4041
17482THY    HP233119   2.710   6.584   2.042  0.8065  2.0141 -1.1504
17482THY    HP333120   2.623   6.453   1.978 -1.8062  3.2677  3.6259
17482THY    HP433121   2.797   6.504   1.920  0.1413 -0.1556  0.2799
17482THY    CP333122   2.757   6.233   2.054 -0.3573 -0.0174 -0.3106
17482THY    HP533123   2.664   6.232   1.997 -0.6729  0.4378  0.9489
17482THY    HP633124   2.744   6.172   2.144  1.7637  0.4180 -0.2178
17482THY    HP733125   2.843   6.193   1.998 -0.5902 -0.0110 -0.8197
17482THY    CA333126   2.590   6.409   2.260 -0.3776  0.4583  0.0046
17482THY    HA333127   2.521   6.381   2.180 -2.5699  2.2127  0.0795
17482THY    CA433128   2.534   6.439   2.384  0.3229  0.2145 -0.5268
17482THY    HA433129   2.427   6.427   2.399  0.6777  3.2862 -0.5740
17482THY    CA533130   2.611   6.481   2.491 -0.2315  0.4422 -0.0612
17482THY    CM133131   2.548   6.519   2.620 -0.4755  0.6705 -0.4928
17482THY    HM133132   2.449   6.476   2.636 -0.5965  0.5312 -0.2690
17482THY    HM233133   2.533   6.628   2.619  0.8568 -1.2066 -0.2745
17482THY    HM333134   2.613   6.493   2.704 -0.5843  1.9080  2.7888
17482THY    CA633135   2.750   6.494   2.475  0.0824 -0.5448  0.5861
17482THY    HA633136   2.805   6.551   2.549  0.8905  1.2368 -2.2961
17483THY      O33137   3.992   6.235   3.104 -0.2445 -0.0461 -0.3657
17483THY     HO33138   4.073   6.212   3.152  0.0900 -1.2515 -1.8027
17483THY    CA133139   3.993   6.167   2.988 -0.1484  0.1201  1.2670
17483THY    CA233140   3.938   6.216   2.868  0.5423 -0.0841  0.3452
17483THY    CP133141   3.837   6.336   2.872 -1.1584  0.3853  0.4756
17483THY    HP133142   3.821   6.371   2.974 -0.4381  0.3817  0.8244
17483THY    CP233143   3.703   6.291   2.815 -0.0125 -0.8904 -0.4217
17483THY    HP233144   3.631   6.372   2.828  0.0861  1.7563 -0.6611
17483THY    HP333145   3.657   6.221   2.885 -0.6403 -1.2272 -0.3494
17483THY    HP433146   3.716   6.257   2.712  1.2368 -0.9537  0.1904
17483THY    CP333147   3.902   6.460   2.813  0.2284  0.1393  0.3192
17483THY    HP533148   3.979   6.501   2.878 -0.7942  1.6712 -0.1192
17483THY    HP633149   3.827   6.539   2.798  0.3087 -2.3084  0.0371
17483THY    HP733150   3.931   6.447   2.708  1.8339  0.2901  2.2351
17483THY    CA333151   3.958   6.151   2.751 -0.1127 -0.3417 -0.1326
17483THY    HA333152   3.930   6.204   2.660  1.8742  0.5076  2.5990
17483THY    CA433153   4.024   6.024   2.758 -0.3524 -0.4477  1.0929
17483THY    HA433154   4.040   5.970   2.665  1.9048  1.2003 -1.2629
17483THY    CA533155   4.074   5.973   2.881 -0.3318  0.8361 -0.0809
17483THY    CM133156   4.135   5.842   2.887  0.1629 -0.1837 -0.1540
17483THY    HM133157   4.238   5.850   2.852 -0.1451 -1.1573 -0.2528
17483THY    HM233158   4.085   5.776   2.815  1.6955 -1.2870 -0.1672
17483THY    HM333159   4.119   5.801   2.987 -2.1453 -0.9816 -1.3618
17483THY    CA633160   4.059   6.047   2.994 -0.7073  0.2646 -0.1392
17483THY    HA633161   4.081   6.007   3.093 -0.2435  0.1409 -0.2013
17484THY      O33162   2.875   1.983   4.578 -0.2862 -0.3204  0.2200
17484THY     HO33163   2.952   1.955   4.630 -0.4019 -0.2794 -0.0218
17484THY    CA133164   2.842   1.898   4.483  0.6838 -0.3184 -0.1128
17484THY    CA233165   2.721   1.916   4.405 -0.8028  1.2641 -0.1180
17484THY    CP133166   2.616   2.021   4.446 -0.9462 -0.4032 -0.3952
17484THY    HP133167   2.668   2.083   4.521  1.8880 -0.5445 -2.4412
17484THY    CP233168   2.501   1.954   4.525  0.1015 -0.5423 -0.1552
17484THY    HP233169   2.418   2.021   4.551 -0.0036  3.1085 -1.4805
17484THY    HP333170   2.543   1.904   4.613 -0.9268  0.7700  1.1941
17484THY    HP433171   2.454   1.874   4.466  1.0353 -1.0380 -0.3487
17484THY    CP333172   2.567   2.112   4.333  0.2557  0.6621 -0.2832
17484THY    HP533173   2.496   2.181   4.379  1.3601  0.7927  0.7969
17484THY    HP633174   2.521   2.043   4.262  0.0907  0.2081  0.2856
17484THY    HP733175   2.647   2.170   4.285 -0.5107 -1.6113 -1.0115
17484THY    CA333176   2.699   1.819   4.300 -0.1044  0.3476  0.3079
17484THY    HA333177   2.606   1.823   4.243 -0.7181  1.1587 -1.4533
17484THY    CA433178   2.786   1.722   4.271  0.1416 -0.2448  0.0076
17484THY    HA433179   2.746   1.660   4.192 -1.5891 -0.7192  1.6215
17484THY    CA533180   2.896   1.702   4.350 -0.3734  0.0106  0.1797
17484THY    CM133181   2.994   1.598   4.327 -0.1277 -0.1107  0.4144
17484THY    HM133182   3.020   1.549   4.421 -1.0668  0.5975  1.2308
17484THY    HM233183   3.077   1.644   4.272 -1.1057 -0.1837  2.1912
17484THY    HM333184   2.961   1.532   4.246  1.9346 -2.0635  1.6251
17484THY    CA633185   2.928   1.789   4.455  0.2562  0.3816  0.9692
17484THY    HA633186   3.008   1.767   4.525  0.4306 -0.4481 -1.3990
17485THY      O33187   9.473   3.113   5.175  0.0445 -0.4385  0.3575
17485THY     HO33188   9.497   3.194   5.126  1.2159  0.6720  0.7172
17485THY    CA133189   9.366   3.055   5.116 -0.0810  0.1943 -0.0903
17485THY    CA233190   9.286   2.966   5.182  0.1260  0.3108 -1.0169
17485THY    CP133191   9.303   2.930   5.326  0.0500 -0.0800 -0.2592
17485THY    HP133192   9.394   2.970   5.371 -0.6615  0.3644  0.9221
17485THY    CP233193   9.311   2.785   5.357  0.9160  0.3312  0.0907
17485THY    HP233194   9.317   2.753   5.462 -0.3225  0.2232 -0.5887
17485THY    HP333195   9.390   2.732   5.303 -1.1476  0.0113 -2.9190
17485THY    HP433196   9.216   2.742   5.322  0.5428  1.2879  0.0992
17485THY    CP333197   9.188   2.987   5.401 -0.6118 -0.6962 -0.1329
17485THY    HP533198   9.173   3.094   5.384 -0.1980 -0.3419 -0.0166
17485THY    HP633199   9.221   2.992   5.506 -0.2094 -0.8018 -0.4447
17485THY    HP733200   9.094   2.931   5.402  0.1673  0.0958 -1.4724
17485THY    CA333201   9.171   2.907   5.116  0.0402  0.1853 -0.1471
17485THY    HA333202   9.105   2.840   5.171 -0.2524 -0.2612 -0.2340
17485THY    CA433203   9.139   2.946   4.987 -1.0569 -0.2541 -0.8354
17485THY    HA433204   9.056   2.903   4.930 -0.2332 -0.5998 -2.0438
17485THY    CA533205   9.220   3.039   4.918  0.8114  0.2359  0.1079
17485THY    CM133206   9.190   3.076   4.774 -0.1046 -0.3195 -0.1742
17485THY    HM133207   9.279   3.095   4.714 -0.1980 -0.9615 -1.6639
17485THY    HM233208   9.123   3.163   4.769  0.4834 -0.7572  0.2633
17485THY    HM333209   9.127   2.997   4.730  1.3771 -1.9649 -0.4982
17485THY    CA633210   9.335   3.091   4.979  0.4295  0.9048 -0.5856
17485THY    HA633211   9.392   3.168   4.928 -3.7556 -0.7611  1.7451
17486THY      O33212   8.246   2.123   6.534 -0.5697  0.4780  0.0256
17486THY     HO33213   8.306   2.110   6.609 -1.7264  1.8189  1.8779
17486THY    CA133214   8.314   2.206   6.456 -0.6271  0.2754 -0.1858
17486THY    CA233215   8.269   2.243   6.326 -0.2627 -0.0047  0.1969
17486THY    CP133216   8.139   2.187   6.269  0.3235  0.1406 -0.1721
17486THY    HP133217   8.134   2.079   6.287 -0.1814 -1.2138 -0.3923
17486THY    CP233218   8.118   2.215   6.118 -0.2712  0.2405 -0.5856
17486THY    HP233219   8.211   2.196   6.064  1.4106  1.9972  2.0755
17486THY    HP333220   8.089   2.319   6.098  0.6203  2.1137  0.0618
17486THY    HP433221   8.036   2.153   6.079  0.9797 -4.0962  0.1609
17486THY    CP333222   8.027   2.262   6.339 -0.0712 -0.3975  0.0647
17486THY    HP533223   8.039   2.366   6.307 -1.1837 -2.3406 -0.3379
17486THY    HP633224   8.041   2.250   6.447  0.8769 -0.4641  0.4959
17486THY    HP733225   7.928   2.229   6.304 -0.6410  0.4374  0.8518
17486THY    CA333226   8.355   2.331   6.257 -0.6363 -0.7235 -0.1952
17486THY    HA333227   8.328   2.379   6.163  0.0344  0.5237  2.8191
17486THY    CA433228   8.480   2.373   6.305 -0.7433 -0.1540 -0.1173
17486THY    HA433229   8.547   2.433   6.244 -1.5545 -0.8584  0.1071
17486THY    CA533230   8.507   2.337   6.442  0.9811  0.1579 -0.1297
17486THY    CM133231   8.639   2.369   6.504 -1.0975 -0.7075  0.3924
17486THY    HM133232   8.679   2.470   6.491  0.5498  0.5945 -0.0303
17486THY    HM233233   8.710   2.297   6.461  0.1077 -0.1764  1.2382
17486THY    HM333234   8.653   2.357   6.612 -0.8151 -0.4139  2.8102
17486THY    CA633235   8.427   2.261   6.518 -0.3908  0.3060  0.5062
17486THY    HA633236   8.456   2.242   6.621  2.2996 -0.4352  0.2846
17487THY      O33237   7.587   5.214   6.981  0.6600 -0.1729  0.2640
17487THY     HO33238   7.589   5.307   7.008 -1.1122 -0.1311  0.3135
17487THY    CA133239   7.618   5.132   7.082  0.4717  0.1489  0.3163
17487THY    CA233240   7.605   5.172   7.215 -0.4963  0.1946  0.2703
17487THY    CP133241   7.554   5.306   7.264 -0.5191 -0.4771  0.4017
17487THY    HP133242   7.565   5.380   7.184  0.1301 -1.2519 -0.5092
17487THY    CP233243   7.626   5.371   7.386 -0.2345  0.4605  0.4287
17487THY    HP233244   7.606   5.478   7.379  0.0532  1.6944  0.5843
17487THY    HP333245   7.735   5.357   7.379  0.1157 -0.7446  3.1821
17487THY    HP433246   7.594   5.317   7.476  1.2605  0.2701 -0.8520
17487THY    CP333247   7.404   5.299   7.315 -0.1662  1.0003  0.1659
17487THY    HP533248   7.362   5.400   7.324 -1.0486  2.8111 -0.3112
17487THY    HP633249   7.394   5.251   7.413 -1.1779 -0.4037 -2.7053
17487THY    HP733250   7.340   5.244   7.245  1.6502  1.3250 -2.5275
17487THY    CA333251   7.657   5.087   7.312  0.3081  0.1217  0.3551
17487THY    HA333252   7.665   5.117   7.416  1.1743 -0.3231  1.8164
17487THY    CA433253   7.694   4.955   7.283  0.4015  0.5726 -0.3448
17487THY    HA433254   7.730   4.895   7.366  2.3588 -0.6706 -0.9427
17487THY    CA533255   7.686   4.910   7.153  0.1128 -0.2043 -0.4087
17487THY    CM133256   7.711   4.763   7.120 -0.6879 -0.4156  0.2407
17487THY    HM133257   7.675   4.693   7.196  2.5526 -0.6176 -1.8635
17487THY    HM233258   7.819   4.747   7.127 -0.8157  4.7596 -0.0216
17487THY    HM333259   7.660   4.730   7.029 -2.2236 -0.1130  1.6296
17487THY    CA633260   7.652   5.001   7.048 -0.0209  0.1768 -0.2232
17487THY    HA633261   7.662   4.972   6.944  2.0426  0.1214  0.5416
17488THY      O33262   7.087   2.663   2.291 -0.2044 -0.0835  0.0187
17488THY     HO33263   6.996   2.685   2.317 -0.2437  0.2850 -0.5381
17488THY    CA133264   7.109   2.528   2.316  0.3895  0.0236 -0.4408
17488THY    CA233265   7.238   2.469   2.319 -0.2099 -0.2429 -0.4091
17488THY    CP133266   7.355   2.563   2.292  0.6174  0.8193 -0.3845
17488THY    HP133267   7.322   2.662   2.323 -1.7362 -0.9102 -0.5306
17488THY    CP233268   7.383   2.581   2.144 -0.1565 -0.0161  0.2699
17488THY    HP233269   7.309   2.648   2.098 -0.4551 -0.6891 -0.5049
17488THY    HP333270   7.390   2.479   2.106 -0.0629 -1.1200  0.6788
17488THY    HP433271   7.479   2.634   2.135 -0.4409 -0.7066  0.6774
17488THY    CP333272   7.480   2.513   2.365  0.6340 -0.6354  0.0182
17488THY    HP533273   7.505   2.408   2.344 -3.3595 -0.1285 -1.1974
17488THY    HP633274   7.459   2.531   2.471 -1.1958 -0.8297 -0.7507
17488THY    HP733275   7.571   2.571   2.347  0.8649 -0.5669 -0.3200
17488THY    CA333276   7.249   2.326   2.330  0.6096  0.3469 -0.4063
17488THY    HA333277   7.342   2.269   2.323 -0.1231 -0.7184 -1.4906
17488THY    CA433278   7.129   2.255   2.338  0.2468 -0.0120  0.0415
17488THY    HA433279   7.141   2.149   2.360  0.8142 -1.4979 -0.2402
17488THY    CA533280   7.006   2.315   2.333  0.6428 -0.3665  0.2412
17488THY    CM133281   6.879   2.235   2.355 -0.0265  0.3230 -0.2582
17488THY    HM133282   6.892   2.177   2.447 -0.3957  2.4232  2.7422
17488THY    HM233283   6.857   2.170   2.269  2.6328 -0.1660 -0.6327
17488THY    HM333284   6.801   2.311   2.359  1.6025 -4.2370  2.0426
17488THY    CA633285   6.995   2.450   2.307 -0.5754 -0.5381  0.5437
17488THY    HA633286   6.898   2.492   2.285 -1.9764 -1.0685 -2.7059
17489THY      O33287   0.830   7.523   5.684  0.4726 -0.2663  0.1673
17489THY     HO33288   0.878   7.605   5.668 -1.2571 -0.8242  1.1149
17489THY    CA133289   0.857   7.444   5.584 -0.4799 -0.6184 -0.0882
17489THY    CA233290   0.798   7.319   5.565 -0.1056  0.2793  0.1371
17489THY    CP133291   0.691   7.263   5.660  0.1577  0.2669  0.2462
17489THY    HP133292   0.703   7.315   5.755  1.0271 -0.4971  1.5197
17489THY    CP233293   0.711   7.112   5.689 -0.2498  0.6069  0.5868
17489THY    HP233294   0.692   7.064   5.592 -0.0125  0.1269  1.4342
17489THY    HP333295   0.641   7.089   5.770 -0.2497  0.1523 -1.1743
17489THY    HP433296   0.814   7.090   5.719  0.0391 -0.6384  0.1221
17489THY    CP333297   0.545   7.289   5.611  0.6864  0.2648 -0.3146
17489THY    HP533298   0.545   7.397   5.592 -0.0225 -0.4616 -0.4257
17489THY    HP633299   0.469   7.255   5.683  0.4167 -0.7447 -1.9549
17489THY    HP733300   0.530   7.238   5.515  1.2791 -0.6869  1.2596
17489THY    CA333301   0.837   7.247   5.455  0.6282 -0.0472  0.4959
17489THY    HA333302   0.787   7.156   5.425 -0.4492 -3.5574  2.0624
17489THY    CA433303   0.943   7.286   5.374 -0.0740 -0.1858  0.0888
17489THY    HA433304   0.969   7.227   5.287  0.7462  0.2171 -0.1550
17489THY    CA533305   1.008   7.412   5.397 -0.1735 -0.9658  0.6666
17489THY    CM133306   1.128   7.461   5.320 -0.1919 -0.4235  0.5908
17489THY    HM133307   1.229   7.449   5.362 -1.4144  1.9725 -2.4330
17489THY    HM233308   1.117   7.568   5.297 -0.9575  0.6026  0.7487
17489THY    HM333309   1.134   7.404   5.227  0.8615 -0.6608  1.0531
17489THY    CA633310   0.963   7.491   5.507  0.6830  0.4687  0.1177
17489THY    HA633311   1.006   7.590   5.517 -1.4862  0.0658  1.1563
17490THY      O33312   8.565   1.382   4.901  0.2175 -0.3080  0.3508
17490THY     HO33313   8.655   1.347   4.907 -0.7974  1.3583 -2.3134
17490THY    CA133314   8.553   1.435   4.776  0.0864  0.0602 -0.6509
17490THY    CA233315   8.430   1.432   4.711 -0.3485 -0.0498 -0.2724
17490THY    CP133316   8.304   1.363   4.768 -1.1198  0.4549  0.0425
17490THY    HP133317   8.343   1.289   4.838  1.2660  1.7229  2.3623
17490THY    CP233318   8.216   1.300   4.661 -0.0226 -0.0544  0.3842
17490THY    HP233319   8.254   1.221   4.596 -0.2512  1.7102 -1.2515
17490THY    HP333320   8.175   1.376   4.592 -2.8252  0.8377 -0.2174
17490THY    HP433321   8.125   1.264   4.710 -0.2830 -0.5128  0.4076
17490THY    CP333322   8.219   1.458   4.847  0.7296 -0.1684 -0.3779
17490THY    HP533323   8.183   1.538   4.781 -1.1041  1.5053  0.2509
17490THY    HP633324   8.283   1.504   4.924 -0.9786  2.9802 -2.8834
17490THY    HP733325   8.143   1.409   4.907  0.2089  0.0914  0.7096
17490THY    CA333326   8.424   1.502   4.590 -0.4455  0.5059 -0.5535
17490THY    HA333327   8.331   1.516   4.536 -1.2081  1.7829 -0.5202
17490THY    CA433328   8.537   1.562   4.538 -0.2904  0.1368 -0.5001
17490THY    HA433329   8.538   1.628   4.452  0.4177  0.7475  0.3078
17490THY    CA533330   8.664   1.553   4.605  0.6214  0.1583  0.0146
17490THY    CM133331   8.791   1.598   4.538  0.0232  0.3569 -0.4135
17490THY    HM133332   8.784   1.705   4.514  0.2555 -0.1121 -0.5024
17490THY    HM233333   8.807   1.542   4.445  2.3866 -0.7206  1.8242
17490THY    HM333334   8.879   1.592   4.603 -0.2600  1.0670  2.0025
17490THY    CA633335   8.671   1.485   4.725  0.0241  0.7360 -0.3783
17490THY    HA633336   8.764   1.466   4.778  0.4443 -0.7331 -2.7838
17491THY      O33337   2.299   2.569   3.887  0.2280  0.4022 -0.2761
17491THY     HO33338   2.308   2.660   3.922 -0.2767  1.1847 -0.5187
17491THY    CA133339   2.169   2.534   3.876 -0.8771 -0.2701 -0.1827
17491THY    CA233340   2.140   2.405   3.835 -0.7888 -0.2180  0.0171
17491THY    CP133341   2.263   2.317   3.778 -0.0092 -0.0728  0.5608
17491THY    HP133342   2.349   2.344   3.841 -0.5974  1.3693 -0.7643
17491THY    CP233343   2.300   2.338   3.626  0.5385 -0.2406  0.3822
17491THY    HP233344   2.340   2.435   3.597  2.3909  1.3903  0.1662
17491THY    HP333345   2.211   2.317   3.566  0.7816  0.1664 -2.2121
17491THY    HP433346   2.373   2.259   3.606  1.0409  1.7256  0.2930
17491THY    CP333347   2.228   2.163   3.795 -0.1725 -0.6720  0.0515
17491THY    HP533348   2.197   2.149   3.899 -1.2885 -1.1433 -1.1196
17491THY    HP633349   2.314   2.097   3.776 -0.5157 -0.9753 -0.3166
17491THY    HP733350   2.155   2.125   3.724 -0.7282  0.1758 -0.5145
17491THY    CA333351   2.007   2.361   3.840  0.0243 -0.6544 -0.3118
17491THY    HA333352   1.974   2.264   3.803 -0.6616 -2.4920  0.5715
17491THY    CA433353   1.906   2.455   3.888 -0.3656 -0.5061  0.8404
17491THY    HA433354   1.806   2.416   3.872 -0.7163 -0.1536  1.5796
17491THY    CA533355   1.939   2.581   3.923  0.4284 -0.0102 -0.6910
17491THY    CM133356   1.838   2.687   3.945  0.1443  0.2554  0.6244
17491THY    HM133357   1.788   2.686   4.043 -1.0975 -0.3092 -2.4470
17491THY    HM233358   1.765   2.677   3.863 -0.9797  1.4605 -1.9831
17491THY    HM333359   1.874   2.790   3.938 -0.1777 -0.0726  0.7198
17491THY    CA633360   2.072   2.620   3.917 -0.4705 -0.4894  0.4491
17491THY    HA633361   2.103   2.722   3.939  0.8957  0.5874 -0.1712
17492THY      O33362   5.731   4.768   1.963 -0.6796  0.2666  0.2307
17492THY     HO33363   5.682   4.840   1.920  0.1599  1.9367  1.8847
17492THY    CA133364   5.732   4.780   2.101 -0.0419 -0.3820 -0.9441
17492THY    CA233365   5.791   4.688   2.186 -0.0732  0.0351 -0.0871
17492THY    CP133366   5.869   4.568   2.132 -0.2756  0.6730  0.1343
17492THY    HP133367   5.878   4.574   2.023 -0.7310  0.5914 -0.5080
17492THY    CP233368   5.786   4.443   2.142 -1.0387 -0.7382  0.0316
17492THY    HP233369   5.691   4.453   2.089  0.4455 -3.7031 -0.5466
17492THY    HP333370   5.770   4.435   2.250 -1.6796 -0.8847 -0.7383
17492THY    HP433371   5.838   4.349   2.122 -0.7202  1.3409 -0.2877
17492THY    CP333372   6.006   4.551   2.187 -0.5358 -0.2702 -0.5594
17492THY    HP533373   6.069   4.625   2.136 -0.0366  0.5075 -0.4301
17492THY    HP633374   6.048   4.453   2.163  0.9096  2.4695 -0.7054
17492THY    HP733375   6.007   4.571   2.295  2.8807 -0.2006 -0.5673
17492THY    CA333376   5.787   4.712   2.323  0.0936  0.2413 -1.0885
17492THY    HA333377   5.832   4.641   2.391  0.1006  1.4159  0.0056
17492THY    CA433378   5.730   4.837   2.372 -0.1312  0.3572  0.2979
17492THY    HA433379   5.725   4.860   2.478  2.3652  0.8319 -1.0142
17492THY    CA533380   5.675   4.925   2.285  0.9063  0.9204  0.4014
17492THY    CM133381   5.613   5.053   2.338  0.2144 -0.5281 -0.6363
17492THY    HM133382   5.512   5.067   2.298  0.7406 -2.2910 -1.5516
17492THY    HM233383   5.675   5.139   2.310 -0.5468 -0.1767  0.0439
17492THY    HM333384   5.603   5.054   2.447 -1.9351 -0.6840  0.6634
17492THY    CA633385   5.668   4.897   2.152  0.0209  0.0613 -0.1259
17492THY    HA633386   5.618   4.969   2.088  1.1736 -2.2838 -1.2977
17493THY      O33387   0.609   1.437   2.588 -0.1719 -0.0268  0.2121
17493THY     HO33388   0.539   1.371   2.602  1.5938  0.6043 -1.6174
17493THY    CA133389   0.595   1.505   2.705  0.6657  0.1685  0.0016
17493THY    CA233390   0.660   1.627   2.720  0.0405  0.4056  0.7018
17493THY    CP133391   0.747   1.679   2.605  0.3353  0.2326  0.3328
17493THY    HP133392   0.752   1.605   2.524 -0.9343  1.0347 -0.6738
17493THY    CP233393   0.896   1.707   2.645  0.0801 -0.2418  0.2115
17493THY    HP233394   0.907   1.752   2.744  2.9445 -1.4071  2.4468
17493THY    HP333395   0.941   1.778   2.574 -0.2829 -1.0805 -0.3813
17493THY    HP433396   0.955   1.614   2.647 -1.5380 -1.0880 -0.8755
17493THY    CP333397   0.699   1.814   2.551 -0.0341 -0.4414  0.2847
17493THY    HP533398   0.713   1.877   2.639 -2.7294 -0.3781  0.8831
17493THY    HP633399   0.592   1.812   2.529  0.1064 -1.0890 -0.9917
17493THY    HP733400   0.767   1.845   2.471  1.5993  0.5881 -0.4712
17493THY    CA333401   0.637   1.698   2.839  0.1472 -0.3710  0.6823
17493THY    HA333402   0.676   1.799   2.852  4.7800 -1.6021 -0.6927
17493THY    CA433403   0.550   1.644   2.928 -0.3587  0.4111 -0.4003
17493THY    HA433404   0.541   1.707   3.017 -0.2812 -1.3082  2.1844
17493THY    CA533405   0.481   1.528   2.907  0.1976 -0.1600 -0.5114
17493THY    CM133406   0.383   1.470   3.003 -0.6865 -0.0517  0.2852
17493THY    HM133407   0.339   1.554   3.058 -1.4463  0.3529 -0.3562
17493THY    HM233408   0.418   1.396   3.075  1.4250 -1.7804 -0.5073
17493THY    HM333409   0.300   1.415   2.957 -1.4613  3.4307 -1.7643
17493THY    CA633410   0.508   1.452   2.797  0.5050 -0.0424 -0.1048
17493THY    HA633411   0.454   1.358   2.784 -3.0871 -0.7991  1.8835
17494THY      O33412   7.861   1.469   6.738 -0.9887 -0.0656 -0.1007
17494THY     HO33413   7.849   1.539   6.805  1.6188 -1.3333  1.7137
17494THY    CA133414   7.766   1.498   6.650 -0.2998  0.2897 -1.1058
17494THY    CA233415   7.729   1.410   6.543  0.4905 -0.7596  0.1805
17494THY    CP133416   7.783   1.262   6.524 -0.3005 -0.2215  0.5825
17494THY    HP133417   7.814   1.215   6.619  2.5503 -2.4276 -2.4594
17494THY    CP233418   7.904   1.272   6.428  0.6101  0.4136  0.4978
17494THY    HP233419   7.940   1.173   6.401  1.3595 -0.0900  0.8938
17494THY    HP333420   7.990   1.329   6.466  0.2981  0.5694  0.8777
17494THY    HP433421   7.878   1.319   6.332  2.8488 -0.7111 -0.4258
17494THY    CP333422   7.685   1.161   6.463 -0.0200 -0.3917 -0.1605
17494THY    HP533423   7.743   1.068   6.467  3.9335 -1.0314  2.0540
17494THY    HP633424   7.683   1.179   6.355  2.1676 -0.0735  2.6623
17494THY    HP733425   7.587   1.158   6.512  0.3676  0.8247  3.2391
17494THY    CA333426   7.632   1.455   6.452 -0.1978  0.4816  0.0345
17494THY    HA333427   7.595   1.400   6.366 -0.3972  0.3455  0.3824
17494THY    CA433428   7.582   1.589   6.464 -0.6901 -0.3603 -0.5067
17494THY    HA433429   7.514   1.635   6.393  0.4233 -1.3205 -0.3035
17494THY    CA533430   7.626   1.672   6.566 -0.6325  0.4944 -0.7990
17494THY    CM133431   7.571   1.806   6.587 -0.3727  0.3003  0.2822
17494THY    HM133432   7.462   1.811   6.585 -0.4224  1.6583  0.2895
17494THY    HM233433   7.600   1.872   6.504  0.8945  0.4721 -0.0281
17494THY    HM333434   7.592   1.854   6.684 -2.2005  0.9220 -0.0867
17494THY    CA633435   7.724   1.631   6.649 -0.6814  0.8262 -0.4978
17494THY    HA633436   7.758   1.713   6.712 -3.0457 -1.7506  2.7185
17495THY      O33437   0.242   4.904   3.406  0.4516  0.3204 -0.3066
17495THY     HO33438   0.241   4.847   3.327 -2.1553  0.8957 -1.2230
17495THY    CA133439   0.356   4.881   3.469 -0.3577 -0.0745 -0.0065
17495THY    CA233440   0.397   4.968   3.575 -0.4683  0.5504  0.9476
17495THY    CP133441   0.296   5.062   3.630 -0.1126 -1.0726 -0.4573
17495THY    HP133442   0.253   5.122   3.549 -1.4519  0.5029  0.8130
17495THY    CP233443   0.344   5.155   3.738 -0.7333 -0.3240 -0.6440
17495THY    HP233444   0.427   5.214   3.695  0.3450  0.5114 -1.5055
17495THY    HP333445   0.388   5.089   3.813  0.2802  0.5959  0.9957
17495THY    HP433446   0.268   5.228   3.769  0.1044  0.5148 -0.0935
17495THY    CP333447   0.180   4.979   3.711  0.0831 -0.1395  0.4256
17495THY    HP533448   0.116   4.929   3.638  0.0173 -1.7250  2.6864
17495THY    HP633449   0.113   5.056   3.750 -0.4141 -0.6172  0.2399
17495THY    HP733450   0.222   4.913   3.788 -1.2774  0.5348  0.3209
17495THY    CA333451   0.533   4.960   3.617  0.0379 -0.1960 -0.1878
17495THY    HA333452   0.566   5.032   3.691 -0.4596 -0.0097 -0.1476
17495THY    CA433453   0.621   4.858   3.574 -0.4228  0.6318  0.1352
17495THY    HA433454   0.723   4.870   3.608 -0.4479  0.7931 -0.1245
17495THY    CA533455   0.568   4.764   3.482 -0.6697  0.3841  0.0390
17495THY    CM133456   0.658   4.657   3.422 -0.0777  0.6957 -0.2237
17495THY    HM133457   0.744   4.647   3.489  1.0749 -0.6021  0.6589
17495THY    HM233458   0.704   4.683   3.326  1.3879  1.2146 -0.7916
17495THY    HM333459   0.594   4.573   3.394  0.5180  0.8614 -0.7431
17495THY    CA633460   0.438   4.775   3.437 -0.2647 -0.0661 -0.3683
17495THY    HA633461   0.400   4.691   3.379 -3.9229 -0.3860  1.3326
17496THY      O33462   6.706   0.368   4.201 -0.0769 -0.0277  0.3220
17496THY     HO33463   6.726   0.403   4.289 -3.0669  0.6681  0.5378
17496THY    CA133464   6.598   0.440   4.156  0.2198 -0.5021  1.0373
17496THY    CA233465   6.558   0.433   4.022  0.2136 -0.2296  0.7607
17496THY    CP133466   6.637   0.337   3.925  0.2531  0.1731 -0.1178
17496THY    HP133467   6.682   0.250   3.975  0.9389 -0.5725 -0.2133
17496THY    CP233468   6.757   0.413   3.864 -0.9595 -0.8413  0.0371
17496THY    HP233469   6.824   0.355   3.799  1.2620 -1.9782  3.5422
17496THY    HP333470   6.824   0.454   3.941  0.9625 -1.0470 -2.4078
17496THY    HP433471   6.719   0.488   3.794 -0.3441  0.8291  1.9854
17496THY    CP333472   6.545   0.278   3.810  0.5606 -0.5341 -0.2721
17496THY    HP533473   6.511   0.355   3.740  1.5815  1.2939  1.9783
17496THY    HP633474   6.453   0.238   3.855  1.0706  4.9433  3.5327
17496THY    HP733475   6.592   0.191   3.762  2.9655 -0.7320  1.0312
17496THY    CA333476   6.454   0.510   3.973  1.1165  0.0866 -0.1671
17496THY    HA333477   6.425   0.506   3.868  1.0404  0.1480 -2.5092
17496THY    CA433478   6.386   0.594   4.062  0.4770  0.8443  0.3319
17496THY    HA433479   6.301   0.644   4.016  1.1800 -3.1519 -1.7924
17496THY    CA533480   6.424   0.601   4.194 -0.0330  0.8883 -0.8344
17496THY    CM133481   6.356   0.689   4.292 -0.3886  0.0958  0.2240
17496THY    HM133482   6.399   0.790   4.295  1.1480  2.0060 -0.4133
17496THY    HM233483   6.384   0.644   4.388  2.9869 -0.7826  0.1977
17496THY    HM333484   6.247   0.703   4.289 -0.1678 -2.2243  2.2539
17496THY    CA633485   6.528   0.525   4.245  0.1829  1.1813  0.7045
17496THY    HA633486   6.544   0.522   4.353 -0.3727  1.2554 -0.3625
17497THY      O33487   5.530   0.349   5.323  0.3830 -0.0868 -0.1449
17497THY     HO33488   5.436   0.361   5.303 -0.5459  3.1727 -0.9979
17497THY    CA133489   5.531   0.369   5.456  0.0585  0.6027 -0.1080
17497THY    CA233490   5.638   0.318   5.537  0.1962  0.3916  0.1348
17497THY    CP133491   5.772   0.281   5.472 -0.0341 -1.0651 -0.0850
17497THY    HP133492   5.775   0.341   5.380 -3.0514 -0.7228  0.7792
17497THY    CP233493   5.775   0.127   5.444 -0.2089  0.8767 -0.8029
17497THY    HP233494   5.796   0.062   5.530  1.9210  0.4483 -0.7621
17497THY    HP333495   5.839   0.115   5.355 -1.7019 -0.7805  2.4527
17497THY    HP433496   5.679   0.111   5.395  0.4971 -0.8968  0.1230
17497THY    CP333497   5.888   0.318   5.566 -0.4268 -0.0559 -0.1089
17497THY    HP533498   5.985   0.293   5.521 -0.8682 -0.8602 -0.4312
17497THY    HP633499   5.882   0.275   5.666  3.3168  0.3724  0.0722
17497THY    HP733500   5.886   0.426   5.585  1.6615 -0.6311  0.0661
17497THY    CA333501   5.611   0.311   5.675  0.3232  0.0804 -0.1620
17497THY    HA333502   5.692   0.275   5.738  0.6473 -0.2067  0.0611
17497THY    CA433503   5.493   0.364   5.731 -0.1538 -0.6826  0.1156
17497THY    HA433504   5.478   0.358   5.838 -0.0851 -0.6218  0.9788
17497THY    CA533505   5.400   0.432   5.648  0.0860 -0.6347 -0.3690
17497THY    CM133506   5.269   0.489   5.710 -0.0869 -0.2960  0.5751
17497THY    HM133507   5.265   0.488   5.820 -0.9815 -0.1786  3.8260
17497THY    HM233508   5.185   0.421   5.691 -1.5532  2.9506  1.2728
17497THY    HM333509   5.247   0.589   5.670  1.8143  0.6032  1.4009
17497THY    CA633510   5.414   0.424   5.512 -0.9230  0.3334 -0.1697
17497THY    HA633511   5.332   0.464   5.452 -0.8493  0.3498  0.0063
17498THY      O33512   6.696   5.756   4.925  0.0439  0.6261 -0.2486
17498THY     HO33513   6.627   5.754   4.993 -1.4948 -0.7679  1.7011
17498THY    CA133514   6.761   5.874   4.946  0.3708 -0.1597  0.2190
17498THY    CA233515   6.877   5.900   4.874 -0.3372 -0.3431  0.2444
17498THY    CP133516   6.920   5.804   4.762  0.9709  0.2120 -0.0860
17498THY    HP133517   6.878   5.703   4.777 -1.1651  0.1983  0.7381
17498THY    CP233518   7.072   5.801   4.743  0.3087  0.3324 -0.2077
17498THY    HP233519   7.108   5.719   4.679 -2.2805 -1.1190 -0.3464
17498THY    HP333520   7.130   5.799   4.836 -0.2889  0.8005  1.9327
17498THY    HP433521   7.101   5.893   4.691 -3.7449 -1.2818  0.3688
17498THY    CP333522   6.850   5.859   4.629 -0.5335  0.4410 -0.6791
17498THY    HP533523   6.741   5.872   4.640 -0.8214 -2.6841  0.1414
17498THY    HP633524   6.860   5.791   4.544  0.6922  2.4436 -3.1656
17498THY    HP733525   6.902   5.949   4.596  1.4186 -3.2176 -2.9457
17498THY    CA333526   6.940   6.025   4.889  0.2272  0.1874  0.6915
17498THY    HA333527   7.038   6.038   4.844  0.5362  0.3390 -0.8836
17498THY    CA433528   6.892   6.119   4.978 -0.3917 -0.4466  0.7561
17498THY    HA433529   6.950   6.209   4.996  1.6392  1.0394 -0.7568
17498THY    CA533530   6.775   6.090   5.045 -0.4040 -0.6462 -0.2339
17498THY    CM133531   6.705   6.196   5.127 -0.3701  0.2163 -0.3431
17498THY    HM133532   6.692   6.163   5.231 -1.3882 -0.0619 -0.8604
17498THY    HM233533   6.604   6.222   5.092 -0.1500  0.1885  0.4944
17498THY    HM333534   6.758   6.292   5.131 -0.9502  0.4863 -0.0290
17498THY    CA633535   6.711   5.970   5.032 -0.6664  0.8812 -1.0895
17498THY    HA633536   6.625   5.950   5.096 -1.8109 -0.8134 -1.7967
17499THY      O33537   7.010   1.052   6.508  0.3982 -0.5607  0.8055
17499THY     HO33538   6.942   1.105   6.463 -1.2819 -0.5103 -1.1763
17499THY    CA133539   7.075   1.003   6.406 -0.0077  0.7131  0.6820
17499THY    CA233540   7.182   0.908   6.407  0.2523  0.8929  0.0656
17499THY    CP133541   7.229   0.861   6.541 -0.3191  1.0080  0.4360
17499THY    HP133542   7.138   0.877   6.600 -1.8264 -0.5530 -1.8518
17499THY    CP233543   7.338   0.940   6.605  0.0567 -0.1486  0.4657
17499THY    HP233544   7.320   1.046   6.588  0.5586 -1.3023  0.3721
17499THY    HP333545   7.432   0.916   6.555  0.3525 -0.4881  2.2183
17499THY    HP433546   7.353   0.925   6.713  1.1398  0.0746  2.8184
17499THY    CP333547   7.258   0.710   6.539  0.3621 -0.2907 -0.9203
17499THY    HP533548   7.346   0.710   6.473 -0.4748 -1.4964  1.2602
17499THY    HP633549   7.178   0.648   6.498 -0.3092  2.1761 -1.7835
17499THY    HP733550   7.284   0.675   6.640  1.0073 -0.3460 -0.6267
17499THY    CA333551   7.238   0.868   6.283  0.6444  0.1298 -0.0800
17499THY    HA333552   7.320   0.798   6.281  1.9384  0.9554  1.3295
17499THY    CA433553   7.203   0.928   6.161  0.2319  0.3881  0.2849
17499THY    HA433554   7.248   0.901   6.066  0.5875  0.7740 -0.5053
17499THY    CA533555   7.105   1.029   6.163  0.0663  0.0398  0.6526
17499THY    CM133556   7.067   1.114   6.045  0.4567  0.7433 -0.0959
17499THY    HM133557   7.071   1.218   6.079 -0.3566 -2.3195  1.0537
17499THY    HM233558   6.969   1.075   6.016  1.7190 -3.4362 -0.7293
17499THY    HM333559   7.138   1.108   5.962 -0.3802  0.0037 -0.0387
17499THY    CA633560   7.042   1.063   6.283  0.3579 -0.0520  0.1903
17499THY    HA633561   6.968   1.142   6.290  1.3896  0.6771  1.1227
17500THY      O33562   9.006   3.986   2.368 -0.3157  0.3652 -0.5070
17500THY     HO33563   9.048   4.039   2.297 -1.3406  1.0469  1.3055
17500THY    CA133564   9.082   4.008   2.471  0.6235  1.0684  0.0807
17500THY    CA233565   9.031   4.069   2.589  0.2416 -0.0569  0.0810
17500THY    CP133566   8.883   4.102   2.613 -0.0926  0.2344  0.4268
17500THY    HP133567   8.823   4.071   2.528 -3.4100  1.7592  2.1892
17500THY    CP233568   8.876   4.256   2.636 -0.0620  0.3709  0.0840
17500THY    HP233569   8.897   4.319   2.548  0.0005  0.9307  0.8505
17500THY    HP333570   8.944   4.282   2.717 -1.2645  2.0419 -1.7633
17500THY    HP433571   8.773   4.278   2.666  0.3263  1.0353  1.0552
17500THY    CP333572   8.819   4.018   2.725  0.2236 -0.7273 -0.8597
17500THY    HP533573   8.844   4.052   2.826 -2.1340 -0.3923  0.0219
17500THY    HP633574   8.828   3.909   2.720 -0.3150  1.8521 -1.0938
17500THY    HP733575   8.713   4.042   2.724  0.1391  2.3265 -0.7791
17500THY    CA333576   9.122   4.071   2.697 -0.3985 -0.6540  0.2002
17500THY    HA333577   9.094   4.100   2.798 -0.6220 -0.6563 -0.0046
17500THY    CA433578   9.256   4.032   2.683  1.0249  0.0486 -0.5766
17500THY    HA433579   9.322   4.053   2.767 -0.6592  0.9521  1.5033
17500THY    CA533580   9.303   3.987   2.562  0.3057  0.4011  0.5130
17500THY    CM133581   9.452   3.962   2.549  0.1386  0.0197  0.1138
17500THY    HM133582   9.498   4.057   2.520 -1.8234 -0.2129  1.0523
17500THY    HM233583   9.478   3.888   2.473  0.3083  1.1103 -0.9694
17500THY    HM333584   9.496   3.942   2.647 -0.4363  0.2344 -0.1200
17500THY    CA633585   9.213   3.964   2.463 -0.3581  0.7902  0.1484
17500THY    HA633586   9.255   3.925   2.371 -0.0705  0.9494  0.0796
17501THY      O33587   2.775   8.522   3.867 -0.0899  0.1917 -0.0831
17501THY     HO33588   2.812   8.612   3.859  2.1533 -1.0942 -1.0309
17501THY    CA133589   2.651   8.539   3.822 -0.4771 -0.0886  0.1627
17501THY    CA233590   2.583   8.431   3.764  0.2052  0.2589 -0.3806
17501THY    CP133591   2.649   8.297   3.762 -0.3501  0.8322  0.3584
17501THY    HP133592   2.714   8.290   3.850 -0.6184  1.0244  0.2653
17501THY    CP233593   2.732   8.283   3.634  0.1405 -0.3011  0.5513
17501THY    HP233594   2.688   8.338   3.550 -1.8622  0.9715  1.0111
17501THY    HP333595   2.742   8.180   3.599 -0.2790 -0.4155  0.5491
17501THY    HP433596   2.837   8.315   3.643  1.0053  0.5226 -2.2341
17501THY    CP333597   2.554   8.179   3.766 -0.5168 -0.5924 -0.9440
17501THY    HP533598   2.493   8.169   3.675 -1.5953 -0.1105  0.7634
17501THY    HP633599   2.483   8.196   3.848 -1.8766 -2.1681  1.7946
17501THY    HP733600   2.614   8.088   3.775 -0.1861 -1.5307 -0.8370
17501THY    CA333601   2.449   8.456   3.718 -0.5195 -0.1393 -0.6672
17501THY    HA333602   2.399   8.374   3.668  1.5089  0.0323 -2.0773
17501THY    CA433603   2.397   8.583   3.713 -0.1331 -0.6474 -0.0105
17501THY    HA433604   2.300   8.599   3.667 -1.0242  1.5857  1.5212
17501THY    CA533605   2.469   8.694   3.771  0.4132  0.2247 -0.4962
17501THY    CM133606   2.407   8.839   3.764 -0.1528 -0.0034  0.0836
17501THY    HM133607   2.371   8.862   3.865 -1.9006 -0.8752  1.4072
17501THY    HM233608   2.333   8.847   3.683 -1.5217  1.1207 -0.6392
17501THY    HM333609   2.483   8.907   3.726 -2.1940 -2.2365  1.2694
17501THY    CA633610   2.597   8.670   3.825 -0.0325  0.4328  0.6754
17501THY    HA633611   2.650   8.753   3.871 -0.9167  1.3611  0.7431
17502THY      O33612   2.420   7.326   4.375 -0.0776 -0.2566  0.3245
17502THY     HO33613   2.497   7.345   4.430 -0.8134  1.0870 -0.3908
17502THY    CA133614   2.335   7.436   4.393 -0.3516  0.0327 -0.1616
17502THY    CA233615   2.241   7.476   4.296  0.4079 -0.5241 -0.0270
17502THY    CP133616   2.238   7.408   4.162 -0.8762 -0.2525 -0.2729
17502THY    HP133617   2.336   7.358   4.150  0.8052  2.5018  2.0544
17502THY    CP233618   2.256   7.519   4.050 -0.4362  0.1414  0.1029
17502THY    HP233619   2.284   7.466   3.958 -0.5049  0.1427  0.0641
17502THY    HP333620   2.338   7.589   4.070 -0.8538 -0.3394  0.7374
17502THY    HP433621   2.170   7.580   4.023 -0.2600 -0.3315  0.1478
17502THY    CP333622   2.117   7.312   4.135 -0.0182 -0.5610 -0.2647
17502THY    HP533623   2.024   7.369   4.144  0.7768  0.3051  0.9307
17502THY    HP633624   2.104   7.230   4.207  0.3538  0.5392  0.6194
17502THY    HP733625   2.143   7.276   4.035  0.5136 -0.2960 -0.6323
17502THY    CA333626   2.155   7.578   4.321 -0.4665 -0.1234 -0.0884
17502THY    HA333627   2.077   7.602   4.250 -1.3211  1.1161  0.9350
17502THY    CA433628   2.146   7.630   4.452 -0.2019  0.7243 -0.2888
17502THY    HA433629   2.064   7.690   4.490  0.2679  3.4081 -1.2129
17502THY    CA533630   2.235   7.587   4.551 -0.9379  0.4699 -0.1470
17502THY    CM133631   2.224   7.629   4.698  0.3514 -0.1951 -0.0870
17502THY    HM133632   2.122   7.663   4.720 -0.4994 -3.5248 -0.2096
17502THY    HM233633   2.292   7.710   4.728  0.3500 -0.9941  0.2153
17502THY    HM333634   2.253   7.543   4.761 -0.2433 -1.4391 -1.2363
17502THY    CA633635   2.334   7.486   4.526  0.4111  0.4168 -0.0535
17502THY    HA633636   2.399   7.454   4.607  0.7788  0.1328 -0.0330
17503THY      O33637   1.270   7.259   3.582  0.1021 -0.4657  0.1380
17503THY     HO33638   1.304   7.242   3.492 -2.0392 -1.2797 -0.1569
17503THY    CA133639   1.140   7.218   3.589 -0.0653 -0.2233  0.2297
17503THY    CA233640   1.036   7.300   3.648  0.4277 -0.4987 -0.2412
17503THY    CP133641   1.070   7.436   3.710 -0.1094  0.2976 -0.0261
17503THY    HP133642   1.178   7.434   3.729 -0.0760  0.3710 -3.5560
17503THY    CP233643   1.001   7.473   3.838 -0.0533  0.3366 -0.4095
17503THY    HP233644   0.892   7.463   3.825  0.4788 -5.0965 -2.9012
17503THY    HP333645   1.028   7.576   3.859  0.9495 -3.3235  0.2104
17503THY    HP433646   1.035   7.405   3.917 -0.6462 -1.1668 -2.5767
17503THY    CP333647   1.044   7.538   3.601  0.1821 -0.5409 -0.0809
17503THY    HP533648   0.944   7.534   3.557  1.0821 -3.2744  2.7262
17503THY    HP633649   1.122   7.521   3.525  2.6133  1.8472 -0.3816
17503THY    HP733650   1.060   7.640   3.639  0.3405 -0.3333 -0.1833
17503THY    CA333651   0.899   7.260   3.638  0.1894  0.9636 -0.1282
17503THY    HA333652   0.822   7.327   3.674 -0.9994 -0.3455 -0.7422
17503THY    CA433653   0.866   7.133   3.584  0.6037  0.8488 -0.2792
17503THY    HA433654   0.765   7.099   3.560 -0.5420  0.0767  3.2757
17503THY    CA533655   0.967   7.049   3.536 -0.6186  0.2424 -0.6797
17503THY    CM133656   0.934   6.930   3.460  0.4483  0.5754 -0.3166
17503THY    HM133657   0.978   6.935   3.360  1.2527  0.9193 -0.4745
17503THY    HM233658   0.828   6.900   3.463 -0.6759 -0.6962  3.0398
17503THY    HM333659   0.981   6.848   3.516  1.0366 -0.4579 -0.6984
17503THY    CA633660   1.104   7.096   3.529 -0.0959 -0.1532 -0.2989
17503THY    HA633661   1.184   7.041   3.480  1.5305  0.2481  1.6319
17504THY      O33662   1.410   0.649   2.729 -0.4983  0.1535 -0.2408
17504THY     HO33663   1.464   0.611   2.657  2.1741  0.2497  2.9276
17504THY    CA133664   1.492   0.727   2.800 -0.3033  0.2334  0.4963
17504THY    CA233665   1.442   0.809   2.903  0.8962 -0.5214 -0.9747
17504THY    CP133666   1.295   0.787   2.966 -0.5316  0.3108  0.0871
17504THY    HP133667   1.241   0.719   2.899 -1.2061  1.2850 -0.3540
17504THY    CP233668   1.214   0.914   2.975 -0.4846  0.0214  0.1275
17504THY    HP233669   1.233   0.975   2.887  1.2485  1.5743  1.9863
17504THY    HP333670   1.227   0.986   3.057  0.3082 -0.5056  0.6022
17504THY    HP433671   1.110   0.881   2.967 -0.8778 -0.2409  1.4157
17504THY    CP333672   1.308   0.726   3.105 -0.5351 -0.4438 -0.1949
17504THY    HP533673   1.350   0.627   3.087  1.2863  1.0551  0.2375
17504THY    HP633674   1.214   0.722   3.161  1.0885  2.6416  0.6449
17504THY    HP733675   1.376   0.787   3.166 -1.0135 -0.0789 -0.0154
17504THY    CA333676   1.523   0.910   2.954 -0.1284  0.0011 -0.1451
17504THY    HA333677   1.485   0.986   3.022 -0.6410 -1.1243  0.6161
17504THY    CA433678   1.658   0.911   2.916 -0.0871  0.4074  0.2590
17504THY    HA433679   1.727   0.986   2.956  1.3864  1.1863 -1.4467
17504THY    CA533680   1.710   0.831   2.817  0.0645  0.3984  0.0614
17504THY    CM133681   1.856   0.835   2.776 -0.4964 -0.2736  0.3185
17504THY    HM133682   1.907   0.932   2.777  0.2935  2.8688 -0.0258
17504THY    HM233683   1.864   0.797   2.674 -1.7796 -0.6219  0.9304
17504THY    HM333684   1.918   0.761   2.828  0.1095 -1.1032  0.2277
17504THY    CA633685   1.626   0.744   2.752  0.5063 -0.2526 -0.4371
17504THY    HA633686   1.666   0.696   2.663 -1.3529 -1.6413  0.4120
17505THY      O33687   4.677   8.387   7.517  0.3436  0.3061 -0.2383
17505THY     HO33688   4.748   8.433   7.564  1.4707 -2.0742  0.6458
17505THY    CA133689   4.690   8.448   7.389 -0.4690 -0.4319 -0.0030
17505THY    CA233690   4.576   8.472   7.311  0.1426 -0.9759 -0.0335
17505THY    CP133691   4.438   8.445   7.363 -0.1373  0.2305 -0.0737
17505THY    HP133692   4.426   8.360   7.431 -0.9219 -0.6975 -0.7276
17505THY    CP233693   4.325   8.429   7.259  0.3267 -0.5873  0.3308
17505THY    HP233694   4.234   8.432   7.320  0.5216 -0.3268  2.3972
17505THY    HP333695   4.335   8.338   7.198  0.7139 -1.3923  0.9072
17505THY    HP433696   4.318   8.520   7.199 -1.9711  2.0089  2.0382
17505THY    CP333697   4.407   8.559   7.458 -0.2819  0.1472  0.2451
17505THY    HP533698   4.485   8.565   7.535 -0.5403  0.5088 -0.7628
17505THY    HP633699   4.314   8.522   7.503 -0.2932  0.8206  1.0799
17505THY    HP733700   4.388   8.655   7.409  0.5555  0.3803  0.5398
17505THY    CA333701   4.592   8.519   7.178  0.5581  0.2215 -0.2252
17505THY    HA333702   4.512   8.532   7.106  0.3565  0.2034 -1.4611
17505THY    CA433703   4.725   8.560   7.134 -0.1123  1.0292  0.1397
17505THY    HA433704   4.728   8.613   7.039 -0.4318  1.9038  1.7835
17505THY    CA533705   4.838   8.537   7.211 -0.5294  0.0274 -0.1506
17505THY    CM133706   4.976   8.567   7.153  0.2418  0.2897 -0.5411
17505THY    HM133707   4.975   8.664   7.102  4.0616 -0.9433 -0.9579
17505THY    HM233708   5.001   8.501   7.069  2.0141 -0.0199  0.4620
17505THY    HM333709   5.055   8.566   7.229  1.1279 -0.6032 -0.2052
17505THY    CA633710   4.820   8.489   7.347 -0.0742  0.1852  0.9191
17505THY    HA633711   4.908   8.489   7.410  0.1892 -0.1783  1.4457
17506THY      O33712   7.984   0.674   6.017 -0.5609  0.5005  0.5253
17506THY     HO33713   8.030   0.742   6.070  0.5949 -0.5819  0.6137
17506THY    CA133714   7.852   0.676   6.029 -0.2458 -0.3055  0.1962
17506THY    CA233715   7.782   0.555   6.002 -0.4264  0.1050  0.0822
17506THY    CP133716   7.848   0.427   5.973 -0.6361 -0.1852 -0.6978
17506THY    HP133717   7.955   0.437   5.993 -0.6611 -0.4736  0.1800
17506THY    CP233718   7.816   0.385   5.826 -0.4756 -0.4441  0.2195
17506THY    HP233719   7.713   0.353   5.808 -0.5895  1.1713 -0.4661
17506THY    HP333720   7.873   0.294   5.803 -0.4728 -0.9385  0.3471
17506THY    HP433721   7.847   0.462   5.755 -0.6646 -1.6047 -0.7376
17506THY    CP333722   7.816   0.323   6.086  0.1655 -0.0299 -0.3576
17506THY    HP533723   7.900   0.256   6.107 -0.5959  2.4795 -0.6453
17506THY    HP633724   7.725   0.272   6.053 -0.1725 -0.8154  0.6974
17506THY    HP733725   7.795   0.355   6.189 -1.3777 -0.3693 -0.2229
17506THY    CA333726   7.641   0.567   5.995  0.6610 -0.4243 -0.1854
17506THY    HA333727   7.581   0.485   5.956  0.6301  0.8620 -0.7964
17506THY    CA433728   7.579   0.686   6.036 -0.2794  0.0991  0.3616
17506THY    HA433729   7.471   0.686   6.023 -0.1840 -0.7673 -0.4933
17506THY    CA533730   7.651   0.799   6.073 -0.2587  0.3507 -0.1732
17506THY    CM133731   7.585   0.935   6.097 -0.4949 -0.3032  0.4032
17506THY    HM133732   7.599   0.976   6.198  2.7466 -0.3229 -0.4167
17506THY    HM233733   7.479   0.926   6.071 -0.1408 -2.3650  1.6022
17506THY    HM333734   7.642   1.006   6.036  0.9731  0.1933 -0.3340
17506THY    CA633735   7.789   0.791   6.074 -0.3210  0.3431 -0.1787
17506THY    HA633736   7.842   0.880   6.104 -2.0457  2.0723  0.3412
17507THY      O33737   5.492   5.812   6.857 -0.0258  0.2300 -0.1090
17507THY     HO33738   5.419   5.858   6.811  0.2717  0.5399  0.6967
17507THY    CA133739   5.443   5.697   6.901 -0.0285  0.2363 -0.0318
17507THY    CA233740   5.494   5.628   7.011  0.8967  0.1479  0.5223
17507THY    CP133741   5.614   5.684   7.088  0.1149  0.3542  0.2730
17507THY    HP133742   5.685   5.730   7.018  1.4296  1.3835 -0.1352
17507THY    CP233743   5.694   5.583   7.171  0.5741 -0.0909 -0.9777
17507THY    HP233744   5.780   5.633   7.218 -0.3537  0.0544  0.5421
17507THY    HP333745   5.745   5.515   7.102 -0.7334  0.0323 -2.1161
17507THY    HP433746   5.635   5.523   7.241 -0.3489 -1.6367 -1.9271
17507THY    CP333747   5.553   5.786   7.193 -0.4361  0.1529  0.5556
17507THY    HP533748   5.490   5.862   7.145 -1.1537  1.5439  0.8764
17507THY    HP633749   5.632   5.839   7.247 -1.0594  3.1532 -1.3402
17507THY    HP733750   5.491   5.727   7.261  1.3826  1.7524  0.3899
17507THY    CA333751   5.413   5.512   7.056  0.2184 -0.1949 -0.7634
17507THY    HA333752   5.447   5.449   7.138 -0.0402 -1.0579 -2.0776
17507THY    CA433753   5.302   5.473   6.985 -0.1045  0.2259 -0.5980
17507THY    HA433754   5.251   5.383   7.018  1.9001  0.5207 -1.6839
17507THY    CA533755   5.259   5.545   6.865  0.3907 -0.3925 -0.3410
17507THY    CM133756   5.146   5.499   6.780 -0.2272 -0.2859 -0.2927
17507THY    HM133757   5.180   5.413   6.721  2.3803 -1.1972  1.2074
17507THY    HM233758   5.116   5.581   6.713 -2.2691 -2.0333 -2.3313
17507THY    HM333759   5.059   5.473   6.841  1.2897  0.3251 -4.6450
17507THY    CA633760   5.330   5.658   6.824  0.4710  0.0777  0.6155
17507THY    HA633761   5.295   5.701   6.731  1.4488  0.3103  1.9539
17508THY      O33762   3.293   2.874   3.097  0.8778 -0.3703 -0.1435
17508THY     HO33763   3.218   2.904   3.152 -2.5116 -3.6775 -1.6773
17508THY    CA133764   3.270   2.933   2.981 -0.3406  0.7215  0.7051
17508THY    CA233765   3.329   2.889   2.862 -0.3826 -0.4246 -0.0355
17508THY    CP133766   3.398   2.764   2.854 -0.8362 -0.1369 -0.4839
17508THY    HP133767   3.440   2.733   2.950  1.5185 -0.4159  1.5670
17508THY    CP233768   3.511   2.753   2.751  0.1663 -0.0504  0.6588
17508THY    HP233769   3.472   2.742   2.649 -0.5182  0.2971 -0.2280
17508THY    HP333770   3.550   2.651   2.754 -0.9373 -1.0935  0.1717
17508THY    HP433771   3.595   2.822   2.764 -0.2271  2.4081  0.7870
17508THY    CP333772   3.292   2.661   2.829  0.0992 -0.3956  0.2284
17508THY    HP533773   3.248   2.662   2.729  0.5240 -0.5803  0.6360
17508THY    HP633774   3.206   2.679   2.895  0.3783  0.0176  0.0784
17508THY    HP733775   3.324   2.558   2.850  0.5090  0.0381  0.4407
17508THY    CA333776   3.329   2.977   2.748  0.0252  0.2773 -0.3325
17508THY    HA333777   3.358   2.943   2.649 -2.0453  0.3145 -2.4848
17508THY    CA433778   3.265   3.102   2.764  1.0183  0.6524 -0.0813
17508THY    HA433779   3.267   3.162   2.674 -2.9285  0.5078  0.0511
17508THY    CA533780   3.202   3.146   2.879  0.6235 -0.6430 -0.0654
17508THY    CM133781   3.148   3.290   2.886  0.4890  0.0094  0.5087
17508THY    HM133782   3.096   3.318   2.795 -2.4764  1.4566  0.0560
17508THY    HM233783   3.233   3.358   2.900  0.9281 -0.3631  0.0443
17508THY    HM333784   3.075   3.291   2.968 -0.1951 -0.5117 -1.4081
17508THY    CA633785   3.203   3.055   2.986  0.8364 -0.5920  0.5519
17508THY    HA633786   3.140   3.082   3.071  1.4025  0.0326 -0.0456
17509THY      O33787   2.267   7.413   3.435  0.0907  0.0445 -0.3110
17509THY     HO33788   2.317   7.420   3.352 -0.1070  0.0500  2.6961
17509THY    CA133789   2.187   7.308   3.429  0.2955 -0.6249  0.6550
17509THY    CA233790   2.067   7.296   3.494 -0.5736  0.1732 -0.7107
17509THY    CP133791   2.010   7.413   3.582  0.1757 -0.1134  0.7099
17509THY    HP133792   2.085   7.490   3.563  1.6605  0.2223 -0.6068
17509THY    CP233793   1.997   7.396   3.732 -0.1022  0.8245 -0.0734
17509THY    HP233794   1.956   7.295   3.743  0.3581 -0.0963 -0.3706
17509THY    HP333795   1.932   7.469   3.781 -0.4804 -0.1770  0.2785
17509THY    HP433796   2.096   7.402   3.779  0.5538 -0.4844 -0.3187
17509THY    CP333797   1.878   7.465   3.532 -0.1822  0.2205 -0.4894
17509THY    HP533798   1.893   7.494   3.428 -0.6336  0.2140 -0.2676
17509THY    HP633799   1.835   7.549   3.589  2.5083 -1.6357  2.3833
17509THY    HP733800   1.808   7.381   3.532 -1.9874  1.6646  0.9213
17509THY    CA333801   1.991   7.176   3.474  0.4220 -0.4988 -0.3018
17509THY    HA333802   1.896   7.161   3.524  1.3705  1.0687 -1.3674
17509THY    CA433803   2.035   7.067   3.390  0.1987  0.4124  0.2218
17509THY    HA433804   1.970   6.982   3.373  1.2295  0.7177 -0.6523
17509THY    CA533805   2.160   7.082   3.333  0.5332  0.5204 -0.3974
17509THY    CM133806   2.235   6.976   3.262 -0.2993  0.5704 -0.4014
17509THY    HM133807   2.160   6.899   3.240 -2.2909 -2.9769  2.2159
17509THY    HM233808   2.323   6.943   3.318  0.5980 -0.4734  0.1216
17509THY    HM333809   2.262   7.008   3.160  0.7239  1.2914  1.1895
17509THY    CA633810   2.230   7.198   3.351  0.2997  0.1061  0.2966
17509THY    HA633811   2.326   7.213   3.301  0.0853 -0.6678 -0.8072
17510THY      O33812   2.519   2.803   4.329  0.5675 -0.5795 -0.0227
17510THY     HO33813   2.460   2.872   4.365 -1.0827 -2.3796 -0.4041
17510THY    CA133814   2.506   2.820   4.195 -0.0134 -0.0608 -0.0175
17510THY    CA233815   2.565   2.737   4.099  0.1313  0.1339 -0.6688
17510THY    CP133816   2.661   2.625   4.142  0.4434 -0.4394  0.0536
17510THY    HP133817   2.667   2.630   4.251  2.4767 -0.4855 -0.7880
17510THY    CP233818   2.813   2.655   4.097  0.4364  0.2188  0.1795
17510THY    HP233819   2.873   2.571   4.136  0.7147  0.0050  0.2765
17510THY    HP333820   2.857   2.747   4.137  2.3923  0.1983 -0.6867
17510THY    HP433821   2.824   2.661   3.989 -0.6332  0.0539 -0.5335
17510THY    CP333822   2.623   2.486   4.097  0.3261  0.5135  0.3054
17510THY    HP533823   2.648   2.471   3.991 -3.2191 -0.2557 -1.4495
17510THY    HP633824   2.514   2.480   4.105  0.3873  1.1159 -0.0797
17510THY    HP733825   2.668   2.409   4.160  2.9181 -1.0000  0.4593
17510THY    CA333826   2.543   2.759   3.963 -0.1800 -0.2530  0.0707
17510THY    HA333827   2.581   2.693   3.886  2.3053 -0.9591  2.1839
17510THY    CA433828   2.458   2.869   3.931  0.1279  0.4867  0.3322
17510THY    HA433829   2.437   2.880   3.824 -0.9486  0.7014  0.5011
17510THY    CA533830   2.408   2.959   4.023 -0.0924  0.1124  0.7423
17510THY    CM133831   2.325   3.082   3.988  0.2176  0.8503  0.0557
17510THY    HM133832   2.360   3.127   3.895  0.9951  1.5719  0.9876
17510THY    HM233833   2.319   3.161   4.064  1.7930 -0.7794  1.8370
17510THY    HM333834   2.220   3.056   3.969  0.1126 -1.8707  1.9689
17510THY    CA633835   2.428   2.930   4.155  0.3016 -0.4069 -0.4764
17510THY    HA633836   2.379   2.988   4.232 -2.1142 -2.9593  1.1450
17511THY      O33837   4.931   2.495   3.637  0.2403  0.9987  0.3786
17511THY     HO33838   5.005   2.497   3.701 -0.6909  2.0782  1.8752
17511THY    CA133839   4.980   2.543   3.525  0.1338  0.5421  0.3308
17511THY    CA233840   4.902   2.551   3.409 -0.1566 -0.0919 -0.1242
17511THY    CP133841   4.746   2.529   3.414  0.3145 -0.2907 -0.2547
17511THY    HP133842   4.723   2.521   3.521  2.4449  0.3335  1.1474
17511THY    CP233843   4.694   2.402   3.356 -0.1219 -0.3083  0.4271
17511THY    HP233844   4.760   2.318   3.384 -0.9299  3.1676  0.8103
17511THY    HP333845   4.690   2.407   3.246 -3.3968 -0.3141 -0.3065
17511THY    HP433846   4.597   2.373   3.397  1.1687  2.2307 -0.6459
17511THY    CP333847   4.663   2.652   3.365  0.5011 -0.2494  0.1390
17511THY    HP533848   4.613   2.620   3.273  1.5844 -0.9944  0.5222
17511THY    HP633849   4.719   2.744   3.344  1.5756  0.5130 -0.3291
17511THY    HP733850   4.583   2.675   3.436  0.8797 -0.1180  1.1044
17511THY    CA333851   4.963   2.605   3.292 -0.8706  0.4181  0.2868
17511THY    HA333852   4.901   2.638   3.209 -0.5340 -0.3146 -0.8443
17511THY    CA433853   5.101   2.634   3.289 -0.3963  0.0225  0.1574
17511THY    HA433854   5.149   2.687   3.207  1.0378  1.6959  1.6019
17511THY    CA533855   5.178   2.620   3.411 -0.4281 -0.0520  0.5221
17511THY    CM133856   5.326   2.644   3.415  0.1061 -0.4713 -0.1029
17511THY    HM133857   5.341   2.714   3.498 -2.0260 -0.4949  0.4514
17511THY    HM233858   5.345   2.692   3.318 -0.5535  0.3225  1.8410
17511THY    HM333859   5.381   2.549   3.420 -0.8005  0.3605 -0.6094
17511THY    CA633860   5.117   2.569   3.524  0.1001 -0.4499  0.3798
17511THY    HA633861   5.176   2.554   3.613  1.3307 -1.3494 -0.2594
17512THY      O33862   3.736   5.995   3.547 -0.0071  0.2006 -0.2669
17512THY     HO33863   3.730   6.005   3.450  1.1725  0.0640 -0.7514
17512THY    CA133864   3.619   5.931   3.576  0.1035 -0.3423 -0.3418
17512THY    CA233865   3.595   5.880   3.709 -0.1105  0.2019 -0.5159
17512THY    CP133866   3.696   5.895   3.821  0.2401 -0.2267 -0.6429
17512THY    HP133867   3.730   5.999   3.811 -3.9831 -1.3847  0.8613
17512THY    CP233868   3.819   5.803   3.797 -0.8346 -0.1952  0.2480
17512THY    HP233869   3.778   5.704   3.774 -0.8226 -1.1278  0.4470
17512THY    HP333870   3.874   5.784   3.890 -1.6216  0.2419  0.1112
17512THY    HP433871   3.889   5.835   3.718 -0.3640 -0.0813 -0.4486
17512THY    CP333872   3.640   5.881   3.964  0.2831 -0.6461 -0.0317
17512THY    HP533873   3.645   5.777   3.997 -0.4265  1.0540  0.4431
17512THY    HP633874   3.534   5.906   3.969  0.6776  2.6270  1.4454
17512THY    HP733875   3.684   5.945   4.042 -1.3381  0.3686 -0.1133
17512THY    CA333876   3.475   5.808   3.724  0.1420 -0.2272 -0.4817
17512THY    HA333877   3.463   5.762   3.822  1.6576  0.1990 -0.0246
17512THY    CA433878   3.381   5.790   3.617 -0.4289  0.0189 -0.3942
17512THY    HA433879   3.290   5.736   3.642 -0.3932 -0.2447 -0.5768
17512THY    CA533880   3.404   5.851   3.491  0.4264  0.2475  0.7681
17512THY    CM133881   3.314   5.833   3.374  0.7115  0.5897 -0.9404
17512THY    HM133882   3.224   5.893   3.389 -0.6760 -1.0690 -2.4798
17512THY    HM233883   3.290   5.726   3.360  3.6675  0.9272 -1.7348
17512THY    HM333884   3.359   5.873   3.282 -3.6775  0.2289  4.2606
17512THY    CA633885   3.523   5.931   3.482 -0.1815 -0.2647 -0.7002
17512THY    HA633886   3.542   5.979   3.386  1.8350  0.8734  0.9226
17513THY      O33887   5.212   8.368   3.136 -0.4818  0.0025 -0.3708
17513THY     HO33888   5.136   8.427   3.121 -1.3643 -0.9530 -1.6633
17513THY    CA133889   5.161   8.244   3.119 -0.2210 -0.2879  0.7824
17513THY    CA233890   5.233   8.137   3.093 -0.2439 -0.0874  0.1532
17513THY    CP133891   5.385   8.158   3.072  0.7017 -0.2885  0.3613
17513THY    HP133892   5.411   8.263   3.056  0.4756 -1.9687  0.1779
17513THY    CP233893   5.417   8.085   2.937 -0.1391  0.1194 -0.5074
17513THY    HP233894   5.522   8.097   2.907  0.2097  1.0258 -1.1269
17513THY    HP333895   5.358   8.113   2.849 -2.1331  1.2345 -0.9906
17513THY    HP433896   5.400   7.978   2.955  0.0769  0.0144 -0.5607
17513THY    CP333897   5.476   8.109   3.184  0.1000 -0.2761  0.4892
17513THY    HP533898   5.428   8.127   3.281 -0.2688 -0.5750  1.1567
17513THY    HP633899   5.572   8.162   3.192 -1.1774 -2.4764  3.4038
17513THY    HP733900   5.491   8.000   3.178 -1.4905  1.5309  0.1040
17513THY    CA333901   5.172   8.010   3.086 -0.3151 -0.1620 -0.2796
17513THY    HA333902   5.231   7.920   3.078  1.4891 -2.5725  1.0101
17513THY    CA433903   5.037   7.995   3.119  0.1970  0.7320 -0.6063
17513THY    HA433904   5.000   7.893   3.121  1.5726  2.8381 -1.1241
17513THY    CA533905   4.964   8.108   3.149  0.5710  0.3567 -0.0619
17513THY    CM133906   4.819   8.094   3.198  0.2519 -0.2319 -0.0258
17513THY    HM133907   4.832   8.087   3.306 -2.8869  0.1706 -1.2939
17513THY    HM233908   4.768   8.004   3.161 -2.3847 -0.5202  1.5069
17513THY    HM333909   4.757   8.181   3.175 -0.3911  1.4800  0.0105
17513THY    CA633910   5.021   8.232   3.143 -0.3522 -0.6252 -0.1111
17513THY    HA633911   4.960   8.320   3.161 -2.0653 -1.1489 -1.1377
17514THY      O33912   7.423   6.536   6.715 -0.1684  0.2916 -0.2754
17514THY     HO33913   7.380   6.453   6.689  1.7601 -0.6749 -1.0354
17514THY    CA133914   7.480   6.502   6.829 -0.9991  0.1402 -0.2243
17514THY    CA233915   7.574   6.591   6.897 -0.4711 -0.6103 -0.2074
17514THY    CP133916   7.621   6.723   6.828 -0.6839  0.2950  0.3916
17514THY    HP133917   7.528   6.763   6.787 -0.7073 -0.0156  0.0202
17514THY    CP233918   7.717   6.700   6.713  0.2247  0.5408 -0.0706
17514THY    HP233919   7.662   6.623   6.657  0.3889  0.8786 -0.4398
17514THY    HP333920   7.811   6.654   6.746 -0.6453  2.3181 -0.6754
17514THY    HP433921   7.731   6.795   6.661 -0.1867 -1.3763 -1.0027
17514THY    CP333922   7.676   6.835   6.917 -0.3860  0.4228  0.5072
17514THY    HP533923   7.597   6.860   6.988 -1.9457 -0.5018 -1.4558
17514THY    HP633924   7.707   6.922   6.857 -0.8639 -0.7603 -0.1072
17514THY    HP733925   7.770   6.806   6.965  0.2566 -1.0058  0.1310
17514THY    CA333926   7.627   6.554   7.022 -0.3077  0.2672 -0.3770
17514THY    HA333927   7.686   6.625   7.080 -1.7525 -1.3710  2.3326
17514THY    CA433928   7.603   6.426   7.077 -0.0578 -0.1162  0.0342
17514THY    HA433929   7.649   6.391   7.169  0.2940 -0.7598 -1.2508
17514THY    CA533930   7.518   6.343   7.010  0.3354  0.0695  1.0952
17514THY    CM133931   7.479   6.210   7.077  0.3375  0.0047  0.0138
17514THY    HM133932   7.373   6.187   7.060  0.1642  0.8329  0.1825
17514THY    HM233933   7.482   6.220   7.186 -1.5033  0.5606 -3.6318
17514THY    HM333934   7.544   6.127   7.048 -0.2877 -0.0988 -0.4460
17514THY    CA633935   7.456   6.371   6.891 -0.8704 -0.5551 -0.4323
17514THY    HA633936   7.390   6.302   6.839  0.0766 -1.4463 -0.6859
17515THY      O33937   3.400   3.476   6.695 -0.3351 -0.1801 -0.1974
17515THY     HO33938   3.475   3.446   6.641  0.2448  1.0108 -0.9481
17515THY    CA133939   3.391   3.399   6.807  0.1127  0.2131 -0.1884
17515THY    CA233940   3.374   3.451   6.939 -0.4186 -0.1276  0.8303
17515THY    CP133941   3.365   3.604   6.957 -0.3760  0.1221  0.2351
17515THY    HP133942   3.347   3.651   6.860  2.3434 -0.5240  0.1002
17515THY    CP233943   3.494   3.665   7.010 -0.7102 -0.0213 -0.5986
17515THY    HP233944   3.498   3.683   7.118  1.5162 -0.0864 -0.4255
17515THY    HP333945   3.503   3.761   6.956  0.4111 -1.3316 -1.4146
17515THY    HP433946   3.584   3.611   6.979  0.1977 -0.6472  1.1884
17515THY    CP333947   3.250   3.657   7.041  0.1729  0.6686  0.8475
17515THY    HP533948   3.250   3.766   7.025  2.2651  0.3140  0.8333
17515THY    HP633949   3.279   3.626   7.142  1.4525 -0.1414 -0.7153
17515THY    HP733950   3.155   3.608   7.018 -0.4742  0.6918  2.0428
17515THY    CA333951   3.379   3.358   7.053 -0.7174  0.2673 -0.2048
17515THY    HA333952   3.368   3.394   7.155 -0.0935 -0.7625  3.2758
17515THY    CA433953   3.389   3.225   7.022 -0.1006 -0.3359  0.2969
17515THY    HA433954   3.395   3.150   7.100 -2.3478 -0.6768 -0.3033
17515THY    CA533955   3.410   3.175   6.891  0.0330  0.0155  0.0481
17515THY    CM133956   3.402   3.029   6.865 -0.2484  0.1128  1.1785
17515THY    HM133957   3.501   2.985   6.878 -0.9712 -0.6409 -0.7966
17515THY    HM233958   3.371   3.017   6.760 -0.8965  0.4879 -0.6448
17515THY    HM333959   3.324   2.980   6.924  1.5359  0.7351 -1.0629
17515THY    CA633960   3.421   3.263   6.785  0.3855  0.1112  0.8272
17515THY    HA633961   3.464   3.231   6.690 -1.3980  0.3178 -2.6275
17516THY      O33962   1.985   3.684   3.729  0.4244  0.3537 -0.0146
17516THY     HO33963   1.974   3.675   3.825  0.2541  0.7465  3.2182
17516THY    CA133964   1.895   3.785   3.710 -0.2411 -0.5418  0.2771
17516THY    CA233965   1.818   3.797   3.595 -0.0079 -0.8949 -0.0641
17516THY    CP133966   1.831   3.703   3.482  0.0193  0.2648  0.5066
17516THY    HP133967   1.900   3.620   3.498 -0.9759 -1.5552 -0.7533
17516THY    CP233968   1.862   3.786   3.354 -0.4422 -0.0940 -0.3783
17516THY    HP233969   1.967   3.814   3.358 -0.8085  1.8411  0.8925
17516THY    HP333970   1.795   3.870   3.332 -0.6955 -0.5685 -0.6984
17516THY    HP433971   1.862   3.718   3.268 -1.6974 -1.4513  1.2504
17516THY    CP333972   1.703   3.631   3.463 -0.8236 -0.1968  0.2096
17516THY    HP533973   1.706   3.540   3.524  0.5861 -0.0600  0.3196
17516THY    HP633974   1.696   3.606   3.357  3.2977 -0.1346 -2.2195
17516THY    HP733975   1.615   3.688   3.495 -0.3941 -2.1929  2.0918
17516THY    CA333976   1.718   3.904   3.592  0.1782  0.1663  0.3929
17516THY    HA333977   1.649   3.921   3.509  0.7968 -0.1538  1.4254
17516THY    CA433978   1.706   3.998   3.696  0.0486  0.2024 -0.7340
17516THY    HA433979   1.626   4.071   3.687 -0.5382 -0.7524 -1.4658
17516THY    CA533980   1.778   3.979   3.810  0.0468  0.5814 -0.1674
17516THY    CM133981   1.766   4.077   3.932  0.4975 -0.0348  0.1205
17516THY    HM133982   1.869   4.111   3.949  0.3888 -0.8089  0.8612
17516THY    HM233983   1.723   4.030   4.021 -1.6466  0.4754  2.7559
17516THY    HM333984   1.712   4.172   3.920 -3.8872 -0.3171 -2.1708
17516THY    CA633985   1.885   3.882   3.812 -0.0194  0.5150 -0.2722
17516THY    HA633986   1.948   3.882   3.900 -1.1535  1.3704  1.0297
17517THY      O33987   4.670   8.524   4.955  0.1814  0.1376 -0.2287
17517THY     HO33988   4.720   8.464   4.897 -0.0237 -0.9131  0.5993
17517THY    CA133989   4.631   8.625   4.885  0.6399 -0.4219  0.1094
17517THY    CA233990   4.591   8.745   4.942 -0.0864 -0.0814 -0.3136
17517THY    CP133991   4.600   8.760   5.095  0.2803  0.3033 -0.2840
17517THY    HP133992   4.666   8.682   5.134 -1.8213  1.3212 -1.6481
17517THY    CP233993   4.463   8.744   5.161  0.5062 -0.3774 -0.0765
17517THY    HP233994   4.459   8.780   5.265 -3.1288 -0.7720  1.1082
17517THY    HP333995   4.444   8.636   5.166 -0.2811  1.0856  0.0977
17517THY    HP433996   4.386   8.791   5.098  0.6857 -2.1189 -1.9719
17517THY    CP333997   4.667   8.893   5.141  0.0554  0.8572 -0.0994
17517THY    HP533998   4.770   8.905   5.105 -0.2155 -0.3056 -1.0007
17517THY    HP633999   4.663   8.910   5.249 -0.5368  0.3198  4.2215
17517THY    HP734000   4.606   8.977   5.107  1.1132  1.1474  0.8141
17517THY    CA334001   4.555   8.849   4.856 -0.0288  0.3933  0.0588
17517THY    HA334002   4.513   8.939   4.901  0.6978  0.2403  0.4845
17517THY    CA434003   4.571   8.832   4.720 -0.0902  0.5246 -0.3233
17517THY    HA434004   4.547   8.916   4.657  0.1854 -2.8570 -2.6014
17517THY    CA534005   4.600   8.707   4.666 -0.2644  0.0721 -0.0003
17517THY    CM134006   4.595   8.689   4.521 -0.5072  0.3936  0.8627
17517THY    HM134007   4.680   8.739   4.472 -1.3134 -1.4617  0.5113
17517THY    HM234008   4.497   8.707   4.475 -0.1450 -1.8520 -2.1522
17517THY    HM334009   4.621   8.587   4.491  0.6111  0.1622  1.1998
17517THY    CA634010   4.628   8.600   4.749  0.4557 -0.0149 -0.0713
17517THY    HA634011   4.654   8.500   4.715 -3.0168 -1.4225 -0.6169
17518THY      O34012   3.587   2.259   3.767 -0.3321 -0.6511  0.4010
17518THY     HO34013   3.662   2.245   3.707  0.3365  0.5616 -1.6966
17518THY    CA134014   3.612   2.366   3.838 -0.0352 -1.0798 -0.6392
17518THY    CA234015   3.513   2.428   3.919 -0.4787 -0.2084  0.6132
17518THY    CP134016   3.369   2.359   3.931 -0.3247  0.6662  0.1573
17518THY    HP134017   3.349   2.313   3.833  0.1451 -1.0061  3.1945
17518THY    CP234018   3.252   2.454   3.938  0.4940 -0.0139 -0.6270
17518THY    HP234019   3.266   2.520   4.025 -0.9800  0.4355 -0.8589
17518THY    HP334020   3.162   2.392   3.945 -0.2034  0.6817  0.4269
17518THY    HP434021   3.250   2.514   3.846  1.0083  1.2087  1.3516
17518THY    CP334022   3.366   2.260   4.047  0.3630  0.5962  0.0289
17518THY    HP534023   3.435   2.185   4.005  0.3720 -0.5480  0.6637
17518THY    HP634024   3.272   2.204   4.050  1.3362 -1.2270 -1.8567
17518THY    HP734025   3.390   2.294   4.148  0.7733  0.2385  0.8198
17518THY    CA334026   3.548   2.536   3.995  0.9479  0.4854 -0.1238
17518THY    HA334027   3.472   2.574   4.062 -0.7245 -1.6639  0.4938
17518THY    CA434028   3.675   2.594   3.984  0.0628 -0.4180 -0.2327
17518THY    HA434029   3.709   2.683   4.037 -0.9916 -3.5193  2.1929
17518THY    CA534030   3.771   2.538   3.899  0.6053 -0.6912 -0.0158
17518THY    CM134031   3.911   2.598   3.879  0.2393 -0.4303  0.2835
17518THY    HM134032   3.909   2.690   3.820 -1.2122 -0.2543  0.3863
17518THY    HM234033   3.988   2.531   3.840  0.6883  1.8181 -0.6202
17518THY    HM334034   3.954   2.635   3.972 -0.5112 -1.1165  3.0955
17518THY    CA634035   3.739   2.422   3.830  1.0462  0.4802 -0.0713
17518THY    HA634036   3.818   2.356   3.795  0.5370  0.9709 -0.9514
17519THY      O34037   7.987   9.167   3.789 -0.2568  0.2371 -0.7170
17519THY     HO34038   7.901   9.158   3.832 -0.8028 -0.5692  0.3070
17519THY    CA134039   7.962   9.144   3.660 -0.0378 -0.4560  0.7431
17519THY    CA234040   8.056   9.146   3.557  0.3175  0.1113  0.4853
17519THY    CP134041   8.201   9.185   3.593  0.3158 -0.3511  0.5424
17519THY    HP134042   8.214   9.200   3.701 -0.7090 -0.2099  0.4887
17519THY    CP234043   8.231   9.319   3.524  0.4058  0.2098 -0.7291
17519THY    HP234044   8.338   9.342   3.533  0.1559  1.1204  0.1393
17519THY    HP334045   8.172   9.403   3.563  0.7251  1.7341 -1.1708
17519THY    HP434046   8.211   9.315   3.416 -0.3158  0.2798  0.3810
17519THY    CP334047   8.301   9.082   3.550 -0.4470 -0.1586 -0.0424
17519THY    HP534048   8.302   9.079   3.440 -2.9041 -0.2504  0.6135
17519THY    HP634049   8.274   8.980   3.581 -1.1898 -1.2246 -0.1796
17519THY    HP734050   8.404   9.108   3.579 -0.4892 -0.5520  0.5834
17519THY    CA334051   8.020   9.093   3.425 -0.2204  0.1474 -0.9404
17519THY    HA334052   8.082   9.086   3.336 -0.1105  0.1101  0.2964
17519THY    CA434053   7.888   9.066   3.398  0.3764  0.0085 -0.5931
17519THY    HA434054   7.852   9.031   3.301  0.1995 -0.8273  1.7152
17519THY    CA534055   7.795   9.080   3.503  0.3009 -0.5749 -0.5113
17519THY    CM134056   7.653   9.054   3.478  0.4529  0.4661  0.2551
17519THY    HM134057   7.581   9.070   3.559  0.0796  0.2463 -0.2918
17519THY    HM234058   7.634   8.959   3.428 -2.2127 -1.4984  1.6922
17519THY    HM334059   7.622   9.129   3.405 -1.3649  0.0369 -0.8650
17519THY    CA634060   7.833   9.107   3.635 -0.2357  0.0143 -0.7978
17519THY    HA634061   7.763   9.111   3.717  0.3681  0.6400 -2.3888
17520THY      O34062   9.215   0.952   2.125  0.5450 -0.3230 -0.3523
17520THY     HO34063   9.273   0.913   2.192  1.0554 -0.4972  0.0893
17520THY    CA134064   9.105   0.870   2.113 -0.0780  0.3998 -0.5236
17520THY    CA234065   8.988   0.925   2.060  0.1640 -0.0217 -0.4267
17520THY    CP134066   8.985   1.077   2.015  0.1717 -0.1969 -0.5938
17520THY    HP134067   9.074   1.131   2.050 -0.1403  1.5819 -1.1566
17520THY    CP234068   8.865   1.159   2.065 -0.2666 -0.3515 -0.4543
17520THY    HP234069   8.864   1.154   2.175  3.0894 -0.2271 -0.5633
17520THY    HP334070   8.769   1.120   2.028 -0.0273 -0.5963 -0.8154
17520THY    HP434071   8.878   1.264   2.037 -0.5378 -0.8821 -0.5569
17520THY    CP334072   8.992   1.074   1.860 -0.0222 -0.1696  0.1024
17520THY    HP534073   8.914   1.005   1.823 -0.8614 -0.9015  1.4004
17520THY    HP634074   9.086   1.028   1.828  0.1721  0.0713  0.3317
17520THY    HP734075   8.996   1.177   1.824 -4.1539  0.9557  0.8350
17520THY    CA334076   8.877   0.841   2.050 -0.2727  0.6443 -0.5688
17520THY    HA334077   8.783   0.888   2.020  0.0764  0.7355  0.2015
17520THY    CA434078   8.889   0.708   2.090  0.1856  0.3631 -0.6251
17520THY    HA434079   8.805   0.639   2.095  0.0145  3.5278 -0.3248
17520THY    CA534080   9.007   0.654   2.146  0.0413  0.2356 -0.2649
17520THY    CM134081   9.013   0.508   2.179 -0.5527 -0.2980 -0.3649
17520THY    HM134082   9.099   0.479   2.242 -0.1202 -0.3557  0.7261
17520THY    HM234083   9.008   0.447   2.088  1.7002  0.1125 -1.2650
17520THY    HM334084   8.923   0.492   2.239 -1.2907 -1.0435  0.8412
17520THY    CA634085   9.119   0.737   2.153 -0.3777  0.9120 -0.3649
17520THY    HA634086   9.218   0.702   2.183 -0.9018  0.5742 -2.2692
17521THY      O34087   6.903   4.538   7.450  0.5131 -0.7024 -0.4497
17521THY     HO34088   6.902   4.632   7.477 -1.0530 -3.7180  0.5180
17521THY    CA134089   6.848   4.477   7.556 -0.3328 -0.2613 -0.0923
17521THY    CA234090   6.827   4.341   7.563  0.6017  0.7477  0.9165
17521THY    CP134091   6.871   4.242   7.444 -0.5729 -0.2249 -0.4000
17521THY    HP134092   6.899   4.298   7.354  0.8277  0.7651  0.5623
17521THY    CP234093   6.748   4.150   7.405 -0.8911 -0.0895 -0.2264
17521THY    HP234094   6.658   4.209   7.386 -0.2096 -3.1058 -0.0002
17521THY    HP334095   6.718   4.081   7.484 -0.7015  1.3700  1.3064
17521THY    HP434096   6.768   4.098   7.310  1.1616  1.5042 -2.6335
17521THY    CP334097   7.000   4.165   7.480 -0.2755  0.3285 -0.0276
17521THY    HP534098   7.085   4.234   7.476 -0.1187  0.0130 -0.2373
17521THY    HP634099   7.021   4.088   7.405  1.2748  1.0709 -0.3529
17521THY    HP734100   6.995   4.115   7.578 -0.7117  0.6641  0.6596
17521THY    CA334101   6.773   4.291   7.685  0.5026 -0.0069  0.1599
17521THY    HA334102   6.772   4.183   7.701  0.1467  1.7253  0.3820
17521THY    CA434103   6.743   4.381   7.787 -0.0086 -0.1191  0.6065
17521THY    HA434104   6.706   4.345   7.883  0.1297 -0.4108 -0.3312
17521THY    CA534105   6.760   4.517   7.770 -0.5611 -0.3392  0.0581
17521THY    CM134106   6.725   4.619   7.865  0.1713  0.2357 -0.1083
17521THY    HM134107   6.651   4.686   7.820  2.0406  2.5938  3.9654
17521THY    HM234108   6.807   4.690   7.882  0.1970 -3.8367  1.0637
17521THY    HM334109   6.690   4.580   7.962 -1.6623 -0.9355 -1.5255
17521THY    CA634110   6.815   4.563   7.653 -0.0838  0.3696  0.5048
17521THY    HA634111   6.831   4.670   7.648  0.1655  1.0918  0.5071
17522THY      O34112   8.899   8.690   3.306  0.8688 -0.2413 -0.6687
17522THY     HO34113   8.889   8.738   3.222 -1.4087 -0.3164 -1.1474
17522THY    CA134114   9.036   8.671   3.324 -0.6960  0.8960 -0.1908
17522THY    CA234115   9.100   8.546   3.289 -0.6725 -0.6650  0.4094
17522THY    CP134116   9.024   8.426   3.262  0.3846  0.1072 -0.5072
17522THY    HP134117   8.916   8.445   3.257  0.6780  0.5025  1.5617
17522THY    CP234118   9.043   8.326   3.369  0.0952 -0.8515  0.1804
17522THY    HP234119   8.978   8.351   3.454 -4.0276 -3.2719 -1.2739
17522THY    HP334120   9.144   8.316   3.409 -0.5736  0.7185 -0.8059
17522THY    HP434121   9.008   8.226   3.339 -0.4137 -0.8923  0.3653
17522THY    CP334122   9.072   8.358   3.133 -0.2907 -0.3304  0.4074
17522THY    HP534123   9.074   8.441   3.063  0.2956  0.2521  0.8963
17522THY    HP634124   8.998   8.284   3.098 -1.4042  2.6783 -0.0771
17522THY    HP734125   9.175   8.322   3.138 -0.4981  2.3510 -0.0848
17522THY    CA334126   9.242   8.547   3.303 -0.0375 -0.3945  1.3170
17522THY    HA334127   9.286   8.447   3.296 -2.0943 -1.1669  0.4192
17522THY    CA434128   9.315   8.659   3.337 -0.1514  0.2841  0.4235
17522THY    HA434129   9.423   8.650   3.342  0.0001  0.3373  2.0050
17522THY    CA534130   9.251   8.775   3.371  0.0610  0.0943  0.0411
17522THY    CM134131   9.335   8.896   3.403  0.4575  0.5685  0.3113
17522THY    HM134132   9.400   8.912   3.316  1.6738  0.8082 -2.7230
17522THY    HM234133   9.403   8.875   3.485  1.0077  0.1073  0.2726
17522THY    HM334134   9.271   8.979   3.434 -2.0973 -0.2717 -1.2248
17522THY    CA634135   9.109   8.781   3.362 -0.5525 -0.5787 -0.1411
17522THY    HA634136   9.072   8.882   3.372  2.4210  1.7889  0.8578
17523THY      O34137   3.008   0.625   3.906 -0.1068 -0.0614 -0.0619
17523THY     HO34138   3.090   0.594   3.947 -0.0401 -0.8007 -0.9108
17523THY    CA134139   2.925   0.646   4.012 -0.8757  0.4973  0.2744
17523THY    CA234140   2.806   0.713   4.000 -0.1962 -1.2027 -1.0855
17523THY    CP134141   2.760   0.775   3.871  0.3531  0.4494  0.2113
17523THY    HP134142   2.839   0.780   3.794  0.0100  0.1656  1.7639
17523THY    CP234143   2.722   0.925   3.893 -0.0621 -0.3126 -0.1914
17523THY    HP234144   2.741   0.976   3.798  0.7744  0.2970  0.6871
17523THY    HP334145   2.791   0.972   3.964 -0.6425 -0.7180  1.3335
17523THY    HP434146   2.624   0.943   3.941  0.2146 -0.2544  1.3549
17523THY    CP334147   2.633   0.700   3.812  0.2610  0.0586  0.9689
17523THY    HP534148   2.620   0.714   3.704 -0.6021  0.0689  0.3331
17523THY    HP634149   2.543   0.738   3.862 -0.3747 -0.1558 -0.2085
17523THY    HP734150   2.637   0.591   3.826 -0.5239  0.1059  0.9442
17523THY    CA334151   2.727   0.723   4.119  0.3521  0.0641  1.2038
17523THY    HA334152   2.627   0.765   4.110 -0.1161 -4.9087 -0.3062
17523THY    CA434153   2.766   0.673   4.239  1.1044  0.0364  0.2921
17523THY    HA434154   2.703   0.699   4.324 -2.1584 -2.2176  0.3336
17523THY    CA534155   2.894   0.613   4.252  0.3203  0.2003 -0.4611
17523THY    CM134156   2.961   0.593   4.382 -0.3623 -0.0307 -0.2929
17523THY    HM134157   2.897   0.540   4.453  1.8500  1.6606 -0.8423
17523THY    HM234158   2.989   0.693   4.418  2.9852 -2.0330 -0.3609
17523THY    HM334159   3.052   0.537   4.359  0.2763 -1.8841  1.3997
17523THY    CA634160   2.971   0.599   4.133 -0.1816  0.1627 -0.1351
17523THY    HA634161   3.072   0.559   4.136 -0.1475  3.0655 -0.0240
17524THY      O34162   2.683   2.384   3.073  0.5509  0.4159 -0.0468
17524THY     HO34163   2.752   2.337   3.022 -1.5728 -3.6124  0.7767
17524THY    CA134164   2.678   2.333   3.194 -0.2151  0.8230  0.6543
17524THY    CA234165   2.612   2.386   3.300 -0.1461 -0.0237 -0.7373
17524THY    CP134166   2.540   2.525   3.285  0.2382  0.3186  0.7425
17524THY    HP134167   2.572   2.569   3.190  0.7970  0.9351  1.7053
17524THY    CP234168   2.564   2.632   3.388 -0.1722 -0.1103  0.6433
17524THY    HP234169   2.672   2.621   3.406 -0.3162 -0.5884 -2.4640
17524THY    HP334170   2.515   2.604   3.482 -1.0808 -0.4025  1.2061
17524THY    HP434171   2.544   2.739   3.376 -1.3436  1.7519  0.6928
17524THY    CP334172   2.391   2.512   3.279 -0.0993 -0.0826  0.0949
17524THY    HP534173   2.355   2.436   3.350 -1.0666 -1.5602 -0.8829
17524THY    HP634174   2.368   2.474   3.178  2.4915 -0.2761 -1.2447
17524THY    HP734175   2.340   2.609   3.281 -0.0083 -1.4532  0.1879
17524THY    CA334176   2.613   2.319   3.424 -0.0844 -0.6394  0.1002
17524THY    HA334177   2.553   2.357   3.506 -0.8476 -1.5562  0.9113
17524THY    CA434178   2.677   2.198   3.434  0.3946  0.5647 -0.4175
17524THY    HA434179   2.665   2.137   3.523 -0.8593  0.2455 -0.6530
17524THY    CA534180   2.752   2.149   3.329  0.6331  0.3498 -0.5361
17524THY    CM134181   2.826   2.020   3.345 -0.3092  0.1471 -0.2365
17524THY    HM134182   2.764   1.949   3.400  0.9269  0.4608 -1.1089
17524THY    HM234183   2.917   2.026   3.407 -1.1577  1.3519  0.6081
17524THY    HM334184   2.847   1.978   3.246 -1.2523 -0.9122  1.6457
17524THY    CA634185   2.754   2.220   3.208  0.4694 -0.5891  0.8651
17524THY    HA634186   2.804   2.179   3.120 -2.7210 -1.9490 -0.4137
17525THY      O34187   8.312   2.981   4.841 -0.0505 -0.3931 -0.1332
17525THY     HO34188   8.365   3.001   4.762 -2.4271 -2.1171 -0.2693
17525THY    CA134189   8.373   2.885   4.913 -0.0600  0.5031  0.0026
17525THY    CA234190   8.311   2.769   4.964  0.0411  0.2111 -0.5806
17525THY    CP134191   8.165   2.750   4.929  0.2861 -0.3251 -0.4498
17525THY    HP134192   8.124   2.843   4.887 -0.2272 -0.3854 -0.6984
17525THY    CP234193   8.079   2.735   5.055  0.2865 -0.3676 -0.0344
17525THY    HP234194   7.972   2.734   5.031  0.0441  0.6786 -0.6655
17525THY    HP334195   8.083   2.810   5.135 -1.5663 -2.1717  2.1569
17525THY    HP434196   8.095   2.637   5.101 -0.7045 -0.5205 -0.2765
17525THY    CP334197   8.148   2.631   4.829  0.7208 -0.4144  0.4030
17525THY    HP534198   8.177   2.668   4.730 -1.6709 -0.3961  2.6646
17525THY    HP634199   8.042   2.604   4.819  0.5736 -0.2017  0.8803
17525THY    HP734200   8.188   2.542   4.879 -2.9752  0.7762 -0.7785
17525THY    CA334201   8.382   2.681   5.054  0.3755 -0.0909 -0.2428
17525THY    HA334202   8.329   2.598   5.099  0.5883  1.5601  0.4681
17525THY    CA434203   8.513   2.700   5.081  0.0533  0.7281 -0.7478
17525THY    HA434204   8.575   2.643   5.150  1.0867  3.1673  2.9857
17525THY    CA534205   8.570   2.828   5.030 -0.1910 -0.8637  0.8108
17525THY    CM134206   8.704   2.867   5.088  0.4634  0.2181  0.2556
17525THY    HM134207   8.710   2.977   5.091 -1.1643  0.3941  0.3723
17525THY    HM234208   8.791   2.820   5.042  1.0627  0.3746  1.1942
17525THY    HM334209   8.732   2.834   5.188  2.0028 -0.6041 -1.0468
17525THY    CA634210   8.500   2.915   4.951  0.5523 -0.4505  0.3448
17525THY    HA634211   8.554   3.003   4.918 -0.0174  0.5862  1.1113
17526THY      O34212   5.710   3.997   1.829  0.6790 -0.7080 -0.4435
17526THY     HO34213   5.702   4.011   1.733  0.8191 -1.0564 -2.4654
17526THY    CA134214   5.605   3.921   1.862 -0.4113 -0.3522 -0.0409
17526THY    CA234215   5.550   3.923   1.993  0.4467  0.6451  0.7467
17526THY    CP134216   5.612   4.002   2.109 -0.2232 -0.2255  1.5470
17526THY    HP134217   5.692   4.058   2.060  1.1121  0.1339  0.0243
17526THY    CP234218   5.686   3.902   2.216 -0.6440 -0.7335 -0.9265
17526THY    HP234219   5.616   3.842   2.277  1.2265  1.2546 -1.2083
17526THY    HP334220   5.743   3.956   2.292  0.9671 -0.9563 -2.2488
17526THY    HP434221   5.748   3.832   2.159  1.2676 -0.9572  0.8582
17526THY    CP334222   5.523   4.102   2.179 -0.2172 -0.0553 -0.2068
17526THY    HP534223   5.455   4.150   2.107  0.3393  0.5584  1.5717
17526THY    HP634224   5.584   4.183   2.220 -2.0925  1.5963  0.4557
17526THY    HP734225   5.460   4.067   2.262  0.1588  1.2115  1.8966
17526THY    CA334226   5.426   3.858   2.010  0.6667 -0.1535  0.5182
17526THY    HA334227   5.387   3.847   2.111  0.6166 -0.4212 -2.8231
17526THY    CA434228   5.363   3.797   1.903 -0.1177  0.3541 -0.5085
17526THY    HA434229   5.267   3.748   1.917 -0.7115 -0.0777  0.4886
17526THY    CA534230   5.424   3.803   1.781  0.2634 -0.6059 -0.2025
17526THY    CM134231   5.352   3.751   1.656  0.1570  0.2607 -0.2513
17526THY    HM134232   5.402   3.667   1.605 -0.3446  0.0521 -0.4224
17526THY    HM234233   5.350   3.829   1.580  0.8112  0.9444  0.4561
17526THY    HM334234   5.250   3.723   1.683  0.4084 -0.9768 -2.5976
17526THY    CA634235   5.548   3.857   1.758 -0.8914 -0.1376 -0.1814
17526THY    HA634236   5.587   3.849   1.657  0.9483  0.5664 -0.4801
17527THY      O34237   3.083   2.104   6.391  0.5818  0.3770  0.0932
17527THY     HO34238   3.168   2.150   6.400  1.0811  0.4217 -0.7992
17527THY    CA134239   2.998   2.207   6.370 -0.6629  0.2173  0.3672
17527THY    CA234240   2.869   2.184   6.335 -0.0347  0.0528 -0.2053
17527THY    CP134241   2.810   2.045   6.330 -0.1799 -0.7782 -0.0338
17527THY    HP134242   2.861   1.983   6.404  0.8197 -0.4299  1.1740
17527THY    CP234243   2.831   1.979   6.195  0.2554  0.2860  1.1463
17527THY    HP234244   2.757   1.898   6.194 -2.0996  2.8822  3.0564
17527THY    HP334245   2.935   1.944   6.194  0.2033 -0.3694  1.0061
17527THY    HP434246   2.814   2.041   6.106  0.7228 -2.0275 -1.8221
17527THY    CP334247   2.661   2.036   6.366  0.1162  0.6128 -0.4287
17527THY    HP534248   2.622   2.083   6.276  2.4678  0.3425  1.1635
17527THY    HP634249   2.639   2.097   6.455 -2.3587 -0.5646  0.5356
17527THY    HP734250   2.627   1.934   6.387  0.0049  3.2096  0.0618
17527THY    CA334251   2.796   2.295   6.302 -0.2048  0.2176 -0.2337
17527THY    HA334252   2.697   2.270   6.264 -0.0181  0.6652 -1.7310
17527THY    CA434253   2.843   2.431   6.314  0.8505 -0.3291 -0.2529
17527THY    HA434254   2.784   2.521   6.298 -1.2414  1.3506 -1.2541
17527THY    CA534255   2.975   2.441   6.358  0.2936  0.4280 -0.9530
17527THY    CM134256   3.029   2.578   6.383 -0.3822  0.5975  0.5345
17527THY    HM134257   2.944   2.643   6.403  0.2475  2.1391  0.9247
17527THY    HM234258   3.073   2.607   6.286 -0.3563  0.6238  0.5828
17527THY    HM334259   3.097   2.576   6.470  0.8408 -0.2780  1.5732
17527THY    CA634260   3.054   2.330   6.366 -0.3227 -0.6501 -0.1063
17527THY    HA634261   3.157   2.339   6.398  0.0432 -1.3651 -1.5217
17528THY      O34262   2.313   5.060   5.919  0.8609  0.4418  0.3001
17528THY     HO34263   2.314   5.074   6.015  2.1480  0.5424 -0.3335
17528THY    CA134264   2.260   4.943   5.888 -0.0597  0.1075  0.2808
17528THY    CA234265   2.127   4.933   5.841 -0.3543 -0.4392 -0.3320
17528THY    CP134266   2.039   5.063   5.833 -0.5124 -0.1156  0.6392
17528THY    HP134267   2.086   5.152   5.875 -0.7459  0.3795  0.5318
17528THY    CP234268   1.913   5.053   5.922 -0.2812 -0.1939  0.4897
17528THY    HP234269   1.942   5.030   6.025  0.9948 -0.8581 -1.0751
17528THY    HP334270   1.841   4.976   5.891 -0.5165  0.5929  0.3833
17528THY    HP434271   1.852   5.144   5.913 -2.7801 -1.4509 -1.2042
17528THY    CP334272   1.994   5.087   5.689  0.2598 -0.4097 -0.7829
17528THY    HP534273   2.088   5.106   5.636  2.0014  1.8891 -2.3759
17528THY    HP634274   1.929   5.175   5.692 -1.2763  1.9589 -1.9007
17528THY    HP734275   1.928   5.004   5.662 -2.4350  0.8543  0.8205
17528THY    CA334276   2.073   4.805   5.805  0.1227  0.7179 -0.3914
17528THY    HA334277   1.978   4.796   5.753  0.1559  0.2427  1.5004
17528THY    CA434278   2.153   4.692   5.818 -0.6416  0.4133 -0.1546
17528THY    HA434279   2.108   4.603   5.775 -2.2090  1.4408  0.1169
17528THY    CA534280   2.291   4.707   5.850 -0.4959  0.7425 -1.0314
17528THY    CM134281   2.379   4.582   5.850 -0.4685 -0.1808 -0.2389
17528THY    HM134282   2.361   4.526   5.758  1.1480  1.2711 -3.4437
17528THY    HM234283   2.361   4.522   5.940  1.6079 -0.2792 -1.1155
17528THY    HM334284   2.486   4.608   5.853 -0.3327 -1.5370 -0.5894
17528THY    CA634285   2.343   4.826   5.900  0.2392  0.2205 -0.0764
17528THY    HA634286   2.447   4.834   5.931  1.3215 -2.6107 -1.5254
17529THY      O34287   1.839   7.645   4.735  0.6660 -0.2214  0.0005
17529THY     HO34288   1.821   7.714   4.801 -0.4082 -0.8680  0.3517
17529THY    CA134289   1.748   7.544   4.748 -0.2899 -0.4534 -1.2306
17529THY    CA234290   1.724   7.455   4.643 -0.9184  0.6187 -0.4545
17529THY    CP134291   1.800   7.459   4.506  0.5399  0.2490 -0.2135
17529THY    HP134292   1.893   7.514   4.527 -1.5557  5.4023  2.0486
17529THY    CP234293   1.714   7.555   4.413  0.1841 -0.3099  0.3340
17529THY    HP234294   1.737   7.550   4.306 -0.3318 -0.5812  2.6901
17529THY    HP334295   1.726   7.659   4.444  0.3018 -1.0955  0.5612
17529THY    HP434296   1.609   7.525   4.427  0.6913 -0.6411 -1.8213
17529THY    CP334297   1.837   7.321   4.452 -0.5309  0.3803 -0.5484
17529THY    HP534298   1.889   7.256   4.523 -0.5243  0.9862  0.0991
17529THY    HP634299   1.909   7.338   4.370 -0.2838  0.6955 -0.0378
17529THY    HP734300   1.750   7.265   4.415 -1.6011 -1.0862  1.8998
17529THY    CA334301   1.633   7.352   4.669  0.0537  0.4209 -0.5615
17529THY    HA334302   1.616   7.279   4.590  2.2663  1.2300 -2.0491
17529THY    CA434303   1.578   7.333   4.801  0.1273 -0.1799 -0.1810
17529THY    HA434304   1.511   7.249   4.817 -1.3852 -3.1835  0.3485
17529THY    CA534305   1.591   7.431   4.900 -0.4576 -0.1581 -0.0226
17529THY    CM134306   1.532   7.408   5.034  0.1058 -0.0806 -0.9075
17529THY    HM134307   1.577   7.481   5.102  0.3176  0.3808 -1.4633
17529THY    HM234308   1.567   7.307   5.058 -0.3555 -2.9252 -1.8332
17529THY    HM334309   1.423   7.418   5.036 -0.2294 -5.5554 -0.6584
17529THY    CA634310   1.687   7.534   4.875 -0.0561  0.1112 -0.0630
17529THY    HA634311   1.718   7.594   4.960  0.4874  0.5280 -0.9131
17530THY      O34312   9.006   1.884   6.232  0.3977 -0.4935 -0.7457
17530THY     HO34313   9.009   1.924   6.143 -0.5207 -0.6788 -1.0781
17530THY    CA134314   9.005   1.746   6.208  1.3266  0.4177 -0.1518
17530THY    CA234315   9.002   1.643   6.310 -0.7727 -0.4332  0.1999
17530THY    CP134316   9.004   1.678   6.460  0.5376  0.1275  0.1471
17530THY    HP134317   9.033   1.783   6.471 -0.6488 -0.0635  0.5007
17530THY    CP234318   9.103   1.600   6.538  0.2880 -0.4916 -0.4930
17530THY    HP234319   9.189   1.589   6.472 -0.7103 -1.7221 -1.1313
17530THY    HP334320   9.071   1.495   6.543  0.3766 -1.1646 -0.5570
17530THY    HP434321   9.114   1.640   6.640  1.0061 -0.6030 -0.3850
17530THY    CP334322   8.861   1.664   6.514  0.6307  0.1181 -0.6011
17530THY    HP534323   8.793   1.739   6.470 -2.2171  0.7846 -2.6455
17530THY    HP634324   8.865   1.681   6.622 -1.2035 -0.1137  2.1136
17530THY    HP734325   8.813   1.566   6.504 -0.0906  0.5441 -0.3029
17530THY    CA334326   9.026   1.508   6.268  0.6216  0.3160 -0.2746
17530THY    HA334327   9.022   1.421   6.332  0.6396  0.7662  0.0480
17530THY    CA434328   9.023   1.485   6.132  0.5084  0.5401  0.3947
17530THY    HA434329   9.032   1.384   6.094  0.1880 -0.1634  0.6232
17530THY    CA534330   9.030   1.588   6.034 -0.7420 -0.4978 -0.4795
17530THY    CM134331   9.030   1.552   5.892  0.1559  0.2372 -0.9757
17530THY    HM134332   9.087   1.462   5.865  1.3093  0.6831 -0.3978
17530THY    HM234333   9.077   1.628   5.828 -0.2148  0.4518 -0.5606
17530THY    HM334334   8.924   1.552   5.864 -0.3370  1.7812  1.5407
17530THY    CA634335   9.024   1.720   6.076 -0.0322 -0.1925 -0.1562
17530THY    HA634336   9.022   1.801   6.003  3.2869  1.8956  2.0555
17531THY      O34337   2.134   5.941   5.000  0.1653  0.5778  0.8516
17531THY     HO34338   2.182   5.889   5.066  0.0866 -0.8894 -1.2015
17531THY    CA134339   2.028   5.864   4.976 -0.0545 -0.5264 -0.6079
17531THY    CA234340   1.936   5.886   4.871  0.2696 -0.0858 -0.2703
17531THY    CP134341   1.924   6.025   4.795  0.4905  0.4304  0.3457
17531THY    HP134342   1.958   6.104   4.863 -1.3517 -1.0732  2.5477
17531THY    CP234343   1.781   6.075   4.766 -0.0866  0.4204 -0.2904
17531THY    HP234344   1.750   6.025   4.673 -0.7799 -0.3512  1.4698
17531THY    HP334345   1.785   6.184   4.758 -0.1393  0.6783 -0.2696
17531THY    HP434346   1.721   6.048   4.854  0.2094  1.9096  3.3781
17531THY    CP334347   2.004   6.022   4.668 -0.1781  0.6609 -0.4668
17531THY    HP534348   2.111   6.000   4.682 -0.1156  0.5744 -0.2324
17531THY    HP634349   1.988   6.118   4.618 -1.5505 -0.6418 -1.3380
17531THY    HP734350   1.969   5.944   4.599  1.1085 -0.6022  0.0124
17531THY    CA334351   1.860   5.778   4.831 -0.0407  0.6211  0.2230
17531THY    HA334352   1.785   5.797   4.755  1.1638 -0.0362  2.7320
17531THY    CA434353   1.868   5.651   4.885  0.4644  0.3746  0.1607
17531THY    HA434354   1.809   5.562   4.861 -0.0474  1.8114  0.0898
17531THY    CA534355   1.951   5.635   5.000 -0.2595  0.3867 -0.1887
17531THY    CM134356   1.959   5.497   5.073  0.0706  0.3177 -0.1768
17531THY    HM134357   1.889   5.434   5.016  0.3576  1.8379 -1.9387
17531THY    HM234358   1.912   5.500   5.172  1.7331  1.1982 -1.4515
17531THY    HM334359   2.062   5.460   5.072 -0.1320  0.5713 -0.7590
17531THY    CA634360   2.023   5.737   5.047 -0.6420  0.1571  0.4465
17531THY    HA634361   2.077   5.720   5.140 -1.6753  1.1989  2.4772
17532THY      O34362   9.278   1.129   6.681 -0.2310  0.2337  0.3475
17532THY     HO34363   9.361   1.082   6.700  0.4450 -0.6027  1.1635
17532THY    CA134364   9.290   1.182   6.554  0.8816 -1.5520 -0.7963
17532THY    CA234365   9.204   1.140   6.449 -0.2291 -0.0689  0.3061
17532THY    CP134366   9.121   1.021   6.469  0.3545  0.4471  0.6357
17532THY    HP134367   9.095   1.006   6.574 -0.5313  0.0930 -0.4445
17532THY    CP234368   9.190   0.892   6.418  0.7625  0.1643 -0.3559
17532THY    HP234369   9.154   0.809   6.479 -0.0202  3.2962  2.1055
17532THY    HP334370   9.299   0.907   6.421  1.0840 -0.1983 -2.3317
17532THY    HP434371   9.163   0.880   6.312 -1.6302  0.3964  1.9658
17532THY    CP334372   8.987   1.047   6.402  0.4479  0.3895 -0.3878
17532THY    HP534373   8.908   0.980   6.438 -0.5715 -0.5457  0.2855
17532THY    HP634374   8.993   1.027   6.295 -0.9386 -0.0399  1.3129
17532THY    HP734375   8.946   1.145   6.427 -0.5641  0.8888 -0.9153
17532THY    CA334376   9.222   1.202   6.327  0.0676 -0.7580  0.8405
17532THY    HA334377   9.164   1.158   6.246  0.0913 -0.7453  0.7870
17532THY    CA434378   9.331   1.288   6.301  0.1784  0.3663  0.0272
17532THY    HA434379   9.355   1.321   6.200 -0.9598  0.2372  0.5091
17532THY    CA534380   9.404   1.330   6.411  0.3127 -0.0005  0.2219
17532THY    CM134381   9.508   1.435   6.390  0.1120  0.4491  0.2274
17532THY    HM134382   9.553   1.419   6.291 -1.0787 -0.4117  1.7743
17532THY    HM234383   9.584   1.433   6.468 -0.0957  0.6774  0.9400
17532THY    HM334384   9.468   1.536   6.371  1.8868  0.6836  1.0030
17532THY    CA634385   9.381   1.284   6.540  0.0149 -0.6810 -0.1102
17532THY    HA634386   9.430   1.319   6.630  0.8669 -0.9722 -0.5399
17533THY      O34387   4.152   0.549   5.588  0.0850 -0.6926  0.3878
17533THY     HO34388   4.164   0.614   5.517  0.0660  0.4803  1.7235
17533THY    CA134389   4.102   0.631   5.681  0.7112  0.5438 -0.2634
17533THY    CA234390   4.043   0.577   5.797 -0.3257 -0.1389 -0.3001
17533THY    CP134391   4.032   0.426   5.815  0.1776  0.3893 -0.3358
17533THY    HP134392   4.023   0.373   5.719 -0.6083  0.1961  0.1278
17533THY    CP234393   3.905   0.383   5.883  0.4094  0.4297 -0.0357
17533THY    HP234394   3.887   0.277   5.864 -0.7560  0.2026  0.1904
17533THY    HP334395   3.818   0.440   5.848 -0.1366  0.6288 -0.7213
17533THY    HP434396   3.915   0.392   5.992 -1.8899  0.7598 -0.6963
17533THY    CP334397   4.145   0.366   5.895  0.2250  0.0569  0.7303
17533THY    HP534398   4.234   0.403   5.844 -1.3122 -4.1559 -0.8256
17533THY    HP634399   4.159   0.257   5.890  0.2350 -0.7776  0.7661
17533THY    HP734400   4.146   0.387   6.003 -1.2766  0.4303 -0.8231
17533THY    CA334401   3.995   0.667   5.899 -0.1864  0.0151 -0.0341
17533THY    HA334402   3.946   0.641   5.992  0.2856  0.1982 -0.2980
17533THY    CA434403   4.029   0.799   5.884  0.4159 -0.0703  0.1658
17533THY    HA434404   4.001   0.870   5.962  0.9039 -2.0893  2.7300
17533THY    CA534405   4.082   0.853   5.770  0.3428  1.0239  0.3807
17533THY    CM134406   4.094   0.998   5.757 -0.3883 -0.7270 -1.0711
17533THY    HM134407   4.192   1.026   5.718 -0.6191 -1.3372 -1.0971
17533THY    HM234408   4.075   1.050   5.852 -0.6925 -0.8689 -0.9216
17533THY    HM334409   4.014   1.041   5.696  0.4894 -0.0887  1.6822
17533THY    CA634410   4.119   0.761   5.664  0.7480  0.5249 -0.0750
17533THY    HA634411   4.174   0.801   5.579  0.5739  0.2178 -0.4847
17534THY      O34412   8.707   3.234   6.122  0.7410  0.2137  0.1657
17534THY     HO34413   8.695   3.330   6.111 -4.7579  2.0247 -0.0002
17534THY    CA134414   8.822   3.197   6.061  0.3628  0.7435 -0.4304
17534THY    CA234415   8.917   3.121   6.134  0.1472  0.5329  0.3612
17534THY    CP134416   8.865   3.047   6.265  0.1398 -0.1285 -0.3622
17534THY    HP134417   8.772   3.089   6.306 -0.4463  0.8415 -2.4870
17534THY    CP234418   8.959   3.072   6.375 -0.2329  0.1231 -0.4678
17534THY    HP234419   9.005   3.171   6.381  0.2313 -2.6069 -0.4242
17534THY    HP334420   9.042   3.001   6.380 -0.1606  3.5688 -0.2754
17534THY    HP434421   8.901   3.056   6.467  0.9591  0.9111 -0.3731
17534THY    CP334422   8.843   2.898   6.257  0.6142 -0.4860 -0.0529
17534THY    HP534423   8.937   2.843   6.244  0.2885 -1.0140 -0.5039
17534THY    HP634424   8.772   2.882   6.174 -0.0931  0.2908 -1.1511
17534THY    HP734425   8.794   2.873   6.352  3.3264  0.9393 -0.2087
17534THY    CA334426   9.036   3.085   6.067 -0.4579  0.6809 -0.2463
17534THY    HA334427   9.100   3.009   6.110 -0.7779 -0.8595 -1.4192
17534THY    CA434428   9.066   3.142   5.939  0.2450 -0.1030 -0.1419
17534THY    HA434429   9.159   3.123   5.888  0.1648 -1.4295  2.5237
17534THY    CA534430   8.976   3.228   5.878  0.5677  0.1300 -0.0813
17534THY    CM134431   8.999   3.276   5.732 -0.4083 -0.5883 -0.2157
17534THY    HM134432   8.938   3.205   5.675 -1.4572 -0.8716  0.8903
17534THY    HM234433   9.103   3.250   5.710 -0.6796 -0.0678 -1.8477
17534THY    HM334434   8.979   3.383   5.724  2.2691 -0.1261  0.3994
17534THY    CA634435   8.854   3.244   5.933 -0.1623  0.0596  0.4224
17534THY    HA634436   8.778   3.289   5.870 -1.1776  0.7467 -0.2861
17535THY      O34437   2.721   5.238   7.467 -0.1337  0.4289 -0.4156
17535THY     HO34438   2.724   5.157   7.413 -0.4749 -0.9114  0.4411
17535THY    CA134439   2.853   5.268   7.492  0.2455 -1.0062  0.1788
17535THY    CA234440   2.911   5.398   7.468 -0.2622  0.6065  0.2985
17535THY    CP134441   2.820   5.516   7.413  0.7570 -0.1471  0.4575
17535THY    HP134442   2.713   5.493   7.408  0.4897  1.4927  1.1933
17535THY    CP234443   2.876   5.571   7.271  0.1271  0.0515 -0.6907
17535THY    HP234444   2.888   5.488   7.200 -2.0617 -1.5756  0.2938
17535THY    HP334445   2.974   5.615   7.291 -0.5605  2.1520 -0.0040
17535THY    HP434446   2.814   5.643   7.215 -0.2362  3.1936  1.6415
17535THY    CP334447   2.831   5.633   7.512  1.3790  0.1818 -0.2614
17535THY    HP534448   2.936   5.653   7.539  1.5485 -0.0730 -0.7770
17535THY    HP634449   2.774   5.613   7.604  0.4103 -0.6698 -1.5666
17535THY    HP734450   2.784   5.718   7.462 -0.1411 -1.6092 -2.0629
17535THY    CA334451   3.054   5.409   7.485  0.3351  0.2902 -0.0567
17535THY    HA334452   3.099   5.504   7.457 -0.5643 -2.3019 -0.3158
17535THY    CA434453   3.126   5.309   7.532  0.8511  1.4718 -0.1944
17535THY    HA434454   3.235   5.313   7.530  0.8140 -0.2816  0.9909
17535THY    CA534455   3.067   5.184   7.549 -0.2368 -0.1618 -0.1072
17535THY    CM134456   3.158   5.068   7.579  0.4623 -0.3252  0.5955
17535THY    HM134457   3.264   5.076   7.554  0.5153 -0.2590  0.1556
17535THY    HM234458   3.116   4.975   7.538  0.4604 -0.0229  0.4612
17535THY    HM334459   3.154   5.053   7.688  1.3176 -0.4549 -0.7393
17535THY    CA634460   2.930   5.161   7.533  0.9182 -0.2318  0.3686
17535THY    HA634461   2.876   5.068   7.546 -1.0315  0.2799  1.4973
17536THY      O34462   7.096   1.129   2.516  0.2853 -0.2029  0.2410
17536THY     HO34463   7.181   1.134   2.562  0.7109 -1.0646  2.2389
17536THY    CA134464   7.078   1.007   2.467  0.1702 -0.4351  0.2238
17536THY    CA234465   6.947   0.952   2.459 -0.3262  0.3175  0.1698
17536THY    CP134466   6.824   1.041   2.495  0.8159  0.0477 -0.2530
17536THY    HP134467   6.840   1.149   2.500  0.6181 -1.6265 -0.1307
17536THY    CP234468   6.779   0.993   2.623  0.7579 -0.2666  0.2864
17536THY    HP234469   6.851   1.026   2.698  2.9807 -2.4339  0.6966
17536THY    HP334470   6.768   0.885   2.631  0.6930 -0.0867  0.3068
17536THY    HP434471   6.679   1.032   2.647 -0.0672 -0.6417 -1.5264
17536THY    CP334472   6.711   1.012   2.392  0.4534 -0.5790 -0.0589
17536THY    HP534473   6.754   1.033   2.293 -1.8376 -1.4019  1.1902
17536THY    HP634474   6.627   1.080   2.411 -0.0487 -1.0984 -0.5254
17536THY    HP734475   6.666   0.912   2.386 -0.8264 -3.2783  0.5751
17536THY    CA334476   6.936   0.823   2.398  0.5733  0.3517 -0.1962
17536THY    HA334477   6.840   0.774   2.388  0.7480 -0.4487 -0.3855
17536THY    CA434478   7.048   0.749   2.371 -0.4679 -0.3059  0.1497
17536THY    HA434479   7.036   0.644   2.346  1.2019  1.7185 -0.5936
17536THY    CA534480   7.173   0.803   2.378 -0.4681 -0.6775 -0.3201
17536THY    CM134481   7.294   0.724   2.327 -0.6002 -0.4169 -0.1004
17536THY    HM134482   7.279   0.673   2.231  0.2008  0.4593 -2.0633
17536THY    HM234483   7.322   0.648   2.400  0.2108 -0.6731 -0.0634
17536THY    HM334484   7.378   0.792   2.308 -2.3750 -3.0224  1.5815
17536THY    CA634485   7.190   0.931   2.426 -0.2608 -0.1549 -0.5644
17536THY    HA634486   7.291   0.971   2.430  0.2043  0.8661 -1.7796
17537THY      O34487   3.046   3.267   2.391 -0.6284  0.6364 -0.1406
17537THY     HO34488   3.073   3.334   2.326  0.2964  1.4744  0.3301
17537THY    CA134489   3.015   3.152   2.316 -0.2521 -0.2483 -0.2726
17537THY    CA234490   2.957   3.044   2.375 -0.6789 -0.0120  0.6886
17537THY    CP134491   2.926   3.036   2.519 -0.4650  0.4092  0.1606
17537THY    HP134492   2.963   3.123   2.574  2.4196  0.5533 -1.0640
17537THY    CP234493   2.994   2.910   2.590  0.1693  0.1833 -1.5861
17537THY    HP234494   2.947   2.876   2.683  1.2636  1.2653 -0.2834
17537THY    HP334495   3.102   2.918   2.607 -0.2598  2.3474  1.1572
17537THY    HP434496   2.974   2.821   2.529 -2.0712  1.0732 -1.7724
17537THY    CP334497   2.778   3.034   2.543  0.4379  0.3732  0.7146
17537THY    HP534498   2.764   3.058   2.650  0.2407  0.2499  1.1644
17537THY    HP634499   2.729   2.937   2.528 -0.1502  0.8516  0.9275
17537THY    HP734500   2.728   3.108   2.479 -0.4695 -0.2353 -0.3854
17537THY    CA334501   2.915   2.937   2.299 -0.5180 -0.1599  0.3059
17537THY    HA334502   2.860   2.853   2.341 -1.6160  0.0304  1.0943
17537THY    CA434503   2.946   2.928   2.165 -0.2107  0.0965  0.7272
17537THY    HA434504   2.925   2.839   2.107  0.4170 -0.8442  1.1770
17537THY    CA534505   3.016   3.033   2.106 -0.5279  0.1679 -1.2650
17537THY    CM134506   3.055   3.024   1.957  0.4530  0.0615  0.3113
17537THY    HM134507   2.997   2.948   1.905 -0.5967 -0.2013  1.2782
17537THY    HM234508   3.158   2.987   1.958  0.4507 -0.1508  0.2985
17537THY    HM334509   3.056   3.115   1.896 -0.2611 -0.2808  0.0915
17537THY    CA634510   3.047   3.152   2.181  0.1454  0.1058 -0.5233
17537THY    HA634511   3.087   3.236   2.126  2.1422  1.5401 -0.4373
17538THY      O34512   2.153   4.605   3.154 -0.1839 -0.2248  0.5244
17538THY     HO34513   2.094   4.527   3.149  0.3571  0.0084  0.0968
17538THY    CA134514   2.084   4.699   3.081 -0.2028  0.3584  0.6552
17538THY    CA234515   2.153   4.789   3.000  0.7397 -0.2000  0.1653
17538THY    CP134516   2.312   4.801   2.996 -0.3761 -0.4521  0.5178
17538THY    HP134517   2.351   4.698   2.992  0.0901  1.7876  0.5518
17538THY    CP234518   2.368   4.875   3.124  0.3161  0.3301  0.4035
17538THY    HP234519   2.315   4.970   3.114 -0.0805  0.0838  0.1623
17538THY    HP334520   2.477   4.883   3.123  0.4663 -1.1273 -1.2041
17538THY    HP434521   2.348   4.811   3.210  1.1962  1.2245  1.3030
17538THY    CP334522   2.363   4.864   2.875 -0.2982  0.2257  0.4546
17538THY    HP534523   2.339   4.969   2.855 -0.1372 -0.1446  0.4212
17538THY    HP634524   2.344   4.814   2.780 -0.2823 -0.3905  1.5753
17538THY    HP734525   2.472   4.862   2.883 -0.3406  0.7420 -0.8065
17538THY    CA334526   2.071   4.880   2.927 -0.2954  0.1723 -0.9443
17538THY    HA334527   2.117   4.960   2.869  0.1593  1.2021 -0.4394
17538THY    CA434528   1.929   4.874   2.938  0.4178 -0.2247  0.5492
17538THY    HA434529   1.868   4.940   2.876  0.3819  0.9377  1.6402
17538THY    CA534530   1.873   4.772   3.015 -0.4988  0.1563 -0.1896
17538THY    CM134531   1.729   4.753   3.017  0.4229  0.2894 -0.2411
17538THY    HM134532   1.705   4.713   2.918  0.7168  0.9249 -2.1165
17538THY    HM234533   1.673   4.847   3.025  0.3189 -1.3064 -0.1361
17538THY    HM334534   1.699   4.684   3.096  1.0964 -0.6906 -1.7159
17538THY    CA634535   1.950   4.685   3.086 -0.4206 -0.3752 -0.5291
17538THY    HA634536   1.912   4.614   3.160 -0.6814 -0.0168 -0.0276
17539THY      O34537   6.177   5.615   4.602 -0.2107 -0.0401  0.2686
17539THY     HO34538   6.248   5.617   4.535 -0.1073  0.0461 -0.3453
17539THY    CA134539   6.058   5.599   4.543  0.1247 -0.1635 -0.3846
17539THY    CA234540   5.943   5.648   4.597 -0.0238 -0.3019  0.0208
17539THY    CP134541   5.940   5.726   4.727 -0.0000 -0.4933 -0.1005
17539THY    HP134542   6.039   5.722   4.774  0.7870 -2.0665 -0.2693
17539THY    CP234543   5.854   5.672   4.845  0.5582  1.0027  0.5052
17539THY    HP234544   5.879   5.565   4.855  0.9747 -3.2618  0.0222
17539THY    HP334545   5.749   5.694   4.823  0.8363 -0.9075  0.1027
17539THY    HP434546   5.883   5.723   4.937  1.2089  0.9150  0.3166
17539THY    CP334547   5.894   5.870   4.696  0.7328 -0.4204  0.5558
17539THY    HP534548   5.876   5.936   4.782  0.8314 -0.2744  0.3914
17539THY    HP634549   5.802   5.871   4.637 -1.0602  2.1656 -0.2796
17539THY    HP734550   5.974   5.917   4.637 -0.0846 -0.6977  1.6286
17539THY    CA334551   5.820   5.618   4.534  0.3341  0.1872 -0.3487
17539THY    HA334552   5.729   5.657   4.579  0.1199 -1.1537  0.7816
17539THY    CA434553   5.829   5.551   4.406 -0.0949 -0.6311  0.1600
17539THY    HA434554   5.739   5.521   4.353 -0.6491  1.4947 -2.3014
17539THY    CA534555   5.950   5.512   4.349 -0.1499  0.5673 -0.9220
17539THY    CM134556   5.955   5.453   4.210 -0.2468 -0.0607 -1.2296
17539THY    HM134557   5.919   5.533   4.144 -0.0221  0.0457 -1.0378
17539THY    HM234558   5.887   5.368   4.198 -1.1612  3.1238 -1.1020
17539THY    HM334559   6.053   5.413   4.181  1.4574 -0.0759  2.4814
17539THY    CA634560   6.068   5.540   4.418  0.2690 -0.6932 -0.1560
17539THY    HA634561   6.165   5.512   4.378  1.7539  1.3096  1.8135
17540THY      O34562   1.988   3.531   6.752  0.2233 -0.0876  0.2225
17540THY     HO34563   1.911   3.481   6.782 -0.4080 -1.4316  0.3294
17540THY    CA134564   1.984   3.640   6.838 -0.1251 -0.3617 -0.1014
17540THY    CA234565   2.069   3.746   6.817 -0.6207 -0.0734 -0.2950
17540THY    CP134566   2.170   3.742   6.702 -0.0239 -0.7484  0.2790
17540THY    HP134567   2.203   3.638   6.698 -0.1761  0.3422  0.1843
17540THY    CP234568   2.304   3.819   6.723 -1.8099 -0.0714 -0.0218
17540THY    HP234569   2.385   3.747   6.706 -2.6108 -0.1784 -0.9294
17540THY    HP334570   2.317   3.848   6.828 -0.2475 -0.0481 -0.6935
17540THY    HP434571   2.315   3.911   6.664 -0.8839  1.6598  1.0210
17540THY    CP334572   2.105   3.767   6.562  0.0727 -0.0162 -0.5879
17540THY    HP534573   2.183   3.765   6.484 -0.5474 -0.6552 -0.1946
17540THY    HP634574   2.049   3.861   6.556  1.1846 -0.2110  0.0800
17540THY    HP734575   2.034   3.687   6.538 -0.9044 -0.7202  0.4597
17540THY    CA334576   2.061   3.857   6.901 -0.6060  0.6048 -0.0380
17540THY    HA334577   2.131   3.940   6.893 -1.8675 -1.2760  0.9018
17540THY    CA434578   1.967   3.857   7.007 -0.6508 -0.7368  0.2277
17540THY    HA434579   1.966   3.934   7.084  1.5856  1.5470 -1.8556
17540THY    CA534580   1.881   3.748   7.021 -0.4281  0.3754 -0.1671
17540THY    CM134581   1.775   3.756   7.134 -0.6499 -0.1703  0.0574
17540THY    HM134582   1.822   3.781   7.229  0.4567 -0.8523  0.6492
17540THY    HM234583   1.735   3.655   7.149  1.3205  0.3213 -0.7052
17540THY    HM334584   1.693   3.827   7.120 -0.2174  1.4910  0.9323
17540THY    CA634585   1.886   3.638   6.934  0.2929 -0.2335 -0.2479
17540THY    HA634586   1.817   3.556   6.952  1.2597  0.8349 -0.8650
17541THY      O34587   8.084   1.602   3.658 -0.0883 -0.0390 -0.5878
17541THY     HO34588   8.012   1.546   3.625  0.0299  0.9932 -1.3749
17541THY    CA134589   8.148   1.665   3.559 -0.6036  0.2450 -0.2648
17541THY    CA234590   8.174   1.802   3.563 -0.3008 -0.2878 -1.4276
17541THY    CP134591   8.119   1.880   3.691  0.1064  0.1257  0.1982
17541THY    HP134592   8.023   1.842   3.728 -0.4763  1.6117  2.8335
17541THY    CP234593   8.104   2.032   3.668 -0.3260 -0.2481  0.1188
17541THY    HP234594   8.045   2.078   3.748 -0.6130 -1.8121  2.6135
17541THY    HP334595   8.067   2.057   3.568 -1.6780  0.3038  0.4092
17541THY    HP434596   8.203   2.081   3.667 -0.8514 -0.4417  1.1969
17541THY    CP334597   8.219   1.855   3.802 -0.0273  0.2743  0.1317
17541THY    HP534598   8.231   1.749   3.827 -0.4267 -1.1108 -0.2582
17541THY    HP634599   8.193   1.899   3.899 -1.3469  0.0907 -0.1756
17541THY    HP734600   8.314   1.905   3.780 -1.1611 -2.0567  1.4526
17541THY    CA334601   8.256   1.860   3.465  0.3464 -0.5375  0.1061
17541THY    HA334602   8.281   1.966   3.466 -0.1476  0.8512  0.2365
17541THY    CA434603   8.314   1.778   3.367 -0.6209 -0.7967 -0.0007
17541THY    HA434604   8.391   1.820   3.303  0.2547 -0.4263 -0.9888
17541THY    CA534605   8.288   1.642   3.366  0.1297 -0.0899  0.5066
17541THY    CM134606   8.364   1.549   3.272 -0.0712 -0.3391  0.2270
17541THY    HM134607   8.319   1.449   3.264  0.7529 -0.5898 -0.1278
17541THY    HM234608   8.471   1.554   3.293 -0.2751  0.9499 -0.3159
17541THY    HM334609   8.371   1.574   3.166  3.2453 -0.9626 -2.6808
17541THY    CA634610   8.213   1.583   3.466  0.8135  0.1673 -0.3027
17541THY    HA634611   8.213   1.475   3.476  0.1300 -2.4373 -0.6226
17542THY      O34612   2.589   7.231   3.478 -0.0776  0.2336 -0.2113
17542THY     HO34613   2.561   7.276   3.560 -1.8543  0.3834 -1.4690
17542THY    CA134614   2.621   7.106   3.519  0.6899  0.1377  0.2299
17542THY    CA234615   2.527   7.010   3.576 -0.6431 -0.6441 -0.6521
17542THY    CP134616   2.388   7.056   3.632  0.2738 -0.1693  0.7343
17542THY    HP134617   2.337   7.123   3.562 -3.4301  0.8575 -0.7850
17542THY    CP234618   2.412   7.118   3.764 -0.0131 -0.5529 -0.1931
17542THY    HP234619   2.318   7.158   3.804  0.2498  0.6108 -0.6880
17542THY    HP334620   2.494   7.190   3.764  0.4124  0.3112 -0.6580
17542THY    HP434621   2.437   7.045   3.841 -1.9109  0.1401 -0.1825
17542THY    CP334622   2.283   6.942   3.649  0.4199 -0.3086 -0.3845
17542THY    HP534623   2.298   6.900   3.750 -0.1569  0.0779  0.3260
17542THY    HP634624   2.291   6.865   3.571 -0.2879 -0.9835  0.2176
17542THY    HP734625   2.186   6.990   3.635  0.8079 -2.1436 -0.0831
17542THY    CA334626   2.573   6.880   3.593  0.0752  0.3050 -0.3964
17542THY    HA334627   2.519   6.809   3.655 -0.5355 -0.9040 -1.0172
17542THY    CA434628   2.701   6.843   3.549  0.2577 -0.1383  0.3599
17542THY    HA434629   2.748   6.748   3.572  1.2481  0.3199  0.9365
17542THY    CA534630   2.787   6.930   3.489  0.4291  0.4375 -0.7666
17542THY    CM134631   2.926   6.883   3.438 -0.3592 -0.1947  0.4951
17542THY    HM134632   2.938   6.849   3.335 -0.0732  0.1559 -0.4950
17542THY    HM234633   2.966   6.797   3.493  0.2213 -1.9162 -0.3935
17542THY    HM334634   2.996   6.966   3.451  0.2944 -0.2646 -0.0310
17542THY    CA634635   2.748   7.067   3.473  0.8567  0.3364 -0.4544
17542THY    HA634636   2.817   7.139   3.431 -0.6707 -0.0460  0.8250
17543THY      O34637   6.015   8.223   6.103  0.0420  0.3197 -0.1342
17543THY     HO34638   6.037   8.133   6.132 -1.4845 -1.0776 -1.0228
17543THY    CA134639   6.049   8.303   6.200  0.0541 -0.3996  0.1270
17543THY    CA234640   5.983   8.427   6.225 -0.3442 -0.2775 -0.2225
17543THY    CP134641   5.859   8.461   6.143 -0.2298  0.5222 -0.2237
17543THY    HP134642   5.875   8.415   6.044 -0.9172  0.0232  0.5785
17543THY    CP234643   5.850   8.608   6.133 -0.2639  0.2471 -0.5796
17543THY    HP234644   5.948   8.640   6.094  1.5059  1.6914 -3.7614
17543THY    HP334645   5.826   8.670   6.220  0.7962 -0.7169  1.2525
17543THY    HP434646   5.774   8.640   6.061  0.9669 -0.4785  0.8375
17543THY    CP334647   5.735   8.403   6.209  0.1010 -0.0082 -0.2565
17543THY    HP534648   5.637   8.440   6.174 -0.1396 -2.7301 -3.1148
17543THY    HP634649   5.744   8.420   6.317  0.9681  0.2743 -2.3288
17543THY    HP734650   5.729   8.294   6.204 -2.4847  1.4703 -0.2721
17543THY    CA334651   6.036   8.506   6.330 -0.5677 -0.2396 -0.4583
17543THY    HA334652   5.991   8.602   6.353 -1.2790 -0.1404 -0.8043
17543THY    CA434653   6.151   8.467   6.406  0.7258  0.3029  0.2619
17543THY    HA434654   6.200   8.529   6.479 -2.3092  1.5613  1.3660
17543THY    CA534655   6.198   8.338   6.387  0.0590  0.5740 -0.0371
17543THY    CM134656   6.305   8.284   6.468  0.1989  0.1085  0.1615
17543THY    HM134657   6.356   8.366   6.520  0.3777  1.2563 -0.6484
17543THY    HM234658   6.388   8.250   6.405  1.1542  1.4669 -0.0861
17543THY    HM334659   6.283   8.211   6.547 -0.8638 -0.0391  0.3142
17543THY    CA634660   6.154   8.258   6.273 -0.6912  0.5341 -0.1491
17543THY    HA634661   6.195   8.158   6.257  0.0749  1.3459  0.0185
17544THY      O34662   5.530   6.007   6.116 -0.2458 -0.1806  0.4137
17544THY     HO34663   5.473   5.956   6.055  1.4248 -0.1366 -1.6579
17544THY    CA134664   5.506   5.960   6.237 -0.3454  0.3462  0.4277
17544THY    CA234665   5.582   6.003   6.351  0.3323 -0.2000 -0.8710
17544THY    CP134666   5.697   6.104   6.342  0.0997 -0.8479 -0.8466
17544THY    HP134667   5.699   6.152   6.243  0.8867 -1.5121 -2.1832
17544THY    CP234668   5.825   6.025   6.353  0.3507 -0.4960  1.0938
17544THY    HP234669   5.844   5.966   6.263 -0.2323 -0.4942  0.8926
17544THY    HP334670   5.819   5.944   6.428 -2.7451 -0.1191  1.5334
17544THY    HP434671   5.916   6.081   6.378  2.1884 -0.6294 -1.6149
17544THY    CP334672   5.695   6.208   6.454 -0.0850  0.0156 -1.0945
17544THY    HP534673   5.779   6.279   6.453  0.3473 -0.6973 -1.5964
17544THY    HP634674   5.687   6.165   6.554  0.0626 -0.4991 -2.3736
17544THY    HP734675   5.607   6.268   6.428  0.6430 -0.2412 -0.1080
17544THY    CA334676   5.556   5.936   6.473  0.0626  0.3823  0.1490
17544THY    HA334677   5.611   5.959   6.563 -1.7340  1.6741 -0.4011
17544THY    CA434678   5.461   5.839   6.486  0.4664 -0.6197  0.2730
17544THY    HA434679   5.446   5.787   6.580 -1.7067 -0.6995  0.6745
17544THY    CA534680   5.378   5.807   6.380  0.7716  0.5576 -0.2949
17544THY    CM134681   5.265   5.710   6.383 -0.1444 -0.1607  0.4527
17544THY    HM134682   5.222   5.695   6.483 -0.2699 -0.3411 -0.4874
17544THY    HM234683   5.307   5.611   6.362  0.1599 -0.3815  0.6294
17544THY    HM334684   5.177   5.723   6.318  0.1239 -0.7305 -0.4685
17544THY    CA634685   5.402   5.872   6.254  0.0985  0.1631  0.1764
17544THY    HA634686   5.338   5.855   6.168  0.7144 -0.5324  1.2362
17545THY      O34687   5.438   0.731   5.265  0.2111  0.5138 -0.0203
17545THY     HO34688   5.510   0.687   5.216  0.8548  1.2060  0.2368
17545THY    CA134689   5.482   0.861   5.287  0.2177  0.6442 -0.2343
17545THY    CA234690   5.402   0.956   5.365  0.2229  0.4525  0.0355
17545THY    CP134691   5.280   0.905   5.441  0.1773 -1.3081 -0.0297
17545THY    HP134692   5.240   0.810   5.403  0.7073 -1.5202 -0.1719
17545THY    CP234693   5.158   1.010   5.411 -0.2563 -0.7494  0.2242
17545THY    HP234694   5.167   1.099   5.475  0.9982 -0.0008 -0.4141
17545THY    HP334695   5.066   0.965   5.450  0.5297  1.9750  0.7823
17545THY    HP434696   5.140   1.024   5.304  1.9852 -0.9789  1.8576
17545THY    CP334697   5.297   0.891   5.591 -0.0545 -0.3824 -0.2998
17545THY    HP534698   5.357   0.803   5.615 -0.4558  2.8507  0.1825
17545THY    HP634699   5.203   0.873   5.645  1.2047  1.6784 -1.0092
17545THY    HP734700   5.349   0.975   5.638  1.8235 -1.1279 -0.9920
17545THY    CA334701   5.461   1.078   5.390 -0.2958  0.0920 -0.6916
17545THY    HA334702   5.412   1.146   5.460 -0.2567 -0.0965 -0.4670
17545THY    CA434703   5.587   1.111   5.335 -0.1732 -0.5880 -0.5130
17545THY    HA434704   5.633   1.205   5.363 -0.3899  1.1713 -0.8912
17545THY    CA534705   5.653   1.019   5.253  0.4557  0.0031 -0.5519
17545THY    CM134706   5.795   1.052   5.210  0.2795 -0.2230  0.3643
17545THY    HM134707   5.795   1.160   5.191  0.8269 -0.2481  0.3618
17545THY    HM234708   5.835   0.996   5.125 -1.6872  0.0448 -1.6434
17545THY    HM334709   5.862   1.026   5.293  0.1072 -0.6449 -1.6186
17545THY    CA634710   5.595   0.895   5.224  0.0899 -0.0119 -0.9259
17545THY    HA634711   5.657   0.825   5.167  2.1778 -0.4844  1.1634
17546THY      O34712   5.347   4.858   7.224  0.6845  0.0223  0.0582
17546THY     HO34713   5.430   4.832   7.180 -0.0165 -1.6746  0.5977
17546THY    CA134714   5.315   4.750   7.307 -0.0835  0.3128  0.6282
17546THY    CA234715   5.416   4.664   7.364  0.2295  0.4385  0.3880
17546THY    CP134716   5.566   4.696   7.346  0.1982 -0.4344  0.2218
17546THY    HP134717   5.570   4.739   7.245  0.2575  0.4896  2.4905
17546THY    CP234718   5.668   4.584   7.369  0.0539 -0.6870 -0.1652
17546THY    HP234719   5.632   4.496   7.314 -1.3999  0.2089 -0.1606
17546THY    HP334720   5.678   4.548   7.472  0.6465 -1.5284 -2.6161
17546THY    HP434721   5.770   4.611   7.339  0.9926  1.7782 -0.7154
17546THY    CP334722   5.612   4.800   7.447 -0.0343 -0.2551  0.2903
17546THY    HP534723   5.721   4.812   7.446  0.2008  0.8036 -1.4533
17546THY    HP634724   5.575   4.765   7.545 -0.5378 -0.9159 -1.0949
17546THY    HP734725   5.558   4.890   7.416 -1.8237 -2.1811 -1.3429
17546THY    CA334726   5.376   4.558   7.447 -0.0261  0.5063 -0.5045
17546THY    HA334727   5.447   4.511   7.514  1.5166 -1.3387 -0.9108
17546THY    CA434728   5.241   4.538   7.476 -0.0505  0.0910 -0.3792
17546THY    HA434729   5.207   4.466   7.550  1.6396  1.3591  0.0605
17546THY    CA534730   5.145   4.609   7.418 -0.1445  0.5814 -0.2248
17546THY    CM134731   4.998   4.594   7.443  0.0609 -0.2017 -0.5028
17546THY    HM134732   4.973   4.556   7.543 -1.2432 -0.6157 -0.8112
17546THY    HM234733   4.956   4.526   7.368  2.5375 -1.8649 -0.3205
17546THY    HM334734   4.946   4.690   7.430  0.7218 -1.3465 -0.2840
17546THY    CA634735   5.180   4.714   7.335 -0.4760 -0.3027  0.1943
17546THY    HA634736   5.103   4.777   7.291  0.3375  0.9012  2.1141
17547THY      O34737   3.408   1.357   4.847  0.3088  0.3569 -0.4639
17547THY     HO34738   3.380   1.290   4.783 -0.7861  1.7667 -1.3917
17547THY    CA134739   3.512   1.425   4.789  0.0757 -0.1671  0.4092
17547THY    CA234740   3.598   1.506   4.869  0.5448  0.5611 -0.1810
17547THY    CP134741   3.554   1.533   5.009  0.4819  0.3124  0.3401
17547THY    HP134742   3.476   1.462   5.038 -1.4503  0.8593  2.5573
17547THY    CP234743   3.471   1.669   5.000 -0.0264 -0.1763 -0.7005
17547THY    HP234744   3.388   1.656   4.930  0.6009 -1.1654  0.4287
17547THY    HP334745   3.538   1.749   4.968  0.1601 -2.9774 -1.8604
17547THY    HP434746   3.433   1.686   5.101  2.0625  0.7566 -1.3392
17547THY    CP334747   3.668   1.540   5.110  0.2883 -0.3937 -0.3679
17547THY    HP534748   3.730   1.629   5.092  1.1440 -1.1043 -1.0968
17547THY    HP634749   3.739   1.460   5.088  1.7256 -2.7753  1.4038
17547THY    HP734750   3.632   1.540   5.213 -0.0954 -0.5282 -0.8581
17547THY    CA334751   3.713   1.567   4.811 -0.6472 -0.2876  0.0398
17547THY    HA334752   3.773   1.634   4.872  0.1516 -1.5353  0.4837
17547THY    CA434753   3.725   1.552   4.674  0.8564 -0.3037  0.4954
17547THY    HA434754   3.812   1.604   4.634  0.6845  1.0204  1.8637
17547THY    CA534755   3.653   1.456   4.598  0.3975  0.0766  0.5019
17547THY    CM134756   3.707   1.406   4.469 -0.4643  0.1890  0.8006
17547THY    HM134757   3.795   1.466   4.441  1.0206  2.1130 -0.3570
17547THY    HM234758   3.635   1.389   4.389  1.0070 -0.4103 -4.4551
17547THY    HM334759   3.754   1.307   4.477  1.3755 -1.3142  1.4976
17547THY    CA634760   3.544   1.396   4.661  0.1032  0.5045 -0.5304
17547THY    HA634761   3.490   1.321   4.604  1.0723 -1.3677  0.1207
17548THY      O34762   3.656   8.564   5.902  0.6002 -0.5961  0.2166
17548THY     HO34763   3.647   8.602   5.991 -0.7782 -1.1208  1.1851
17548THY    CA134764   3.529   8.541   5.863  1.1439 -0.1340 -0.0477
17548THY    CA234765   3.494   8.520   5.722  0.1346 -1.1293 -0.3325
17548THY    CP134766   3.595   8.558   5.622 -0.2927 -0.4887  0.6351
17548THY    HP134767   3.692   8.559   5.671 -1.5161  2.1648 -0.4787
17548THY    CP234768   3.565   8.691   5.562 -0.7418  0.8690 -0.3992
17548THY    HP234769   3.463   8.711   5.527 -0.9153  0.5609 -1.7319
17548THY    HP334770   3.635   8.721   5.483 -1.5610  0.4724  0.5246
17548THY    HP434771   3.574   8.764   5.643 -0.5016 -1.2475  2.0462
17548THY    CP334772   3.607   8.452   5.505 -0.0046 -0.2229 -0.3148
17548THY    HP534773   3.700   8.466   5.448  0.0796  0.3291  1.7950
17548THY    HP634774   3.526   8.459   5.432 -2.3028  2.0946 -1.1049
17548THY    HP734775   3.613   8.352   5.548  1.7043  2.2877  0.7421
17548THY    CA334776   3.365   8.475   5.701  0.5191 -0.3307 -0.8658
17548THY    HA334777   3.320   8.473   5.602 -1.1763  0.3719  0.0622
17548THY    CA434778   3.284   8.449   5.811 -0.3765 -0.9180 -0.5433
17548THY    HA434779   3.182   8.428   5.781  0.0196 -1.7705 -1.3007
17548THY    CA534780   3.324   8.470   5.945 -0.4554 -0.8094  0.0648
17548THY    CM134781   3.223   8.457   6.054  0.1033  0.1153 -0.3930
17548THY    HM134782   3.167   8.551   6.057  0.4984  2.0660 -0.1814
17548THY    HM234783   3.265   8.444   6.155  0.1623  0.2088  0.4932
17548THY    HM334784   3.158   8.371   6.034  0.3052 -2.6137  0.0068
17548THY    CA634785   3.443   8.521   5.974  0.6142 -0.1439  0.3069
17548THY    HA634786   3.465   8.541   6.079 -1.8158  0.5070 -0.0548
17549THY      O34787   6.392   7.491   2.392 -0.1616 -0.2606  0.8182
17549THY     HO34788   6.464   7.538   2.438 -0.9176  2.7253 -0.7326
17549THY    CA134789   6.449   7.385   2.331 -0.7335 -0.1879 -0.3056
17549THY    CA234790   6.411   7.331   2.209  0.0059  0.3522  0.0708
17549THY    CP134791   6.309   7.394   2.118  0.3650 -0.0966 -0.2093
17549THY    HP134792   6.256   7.476   2.169 -0.6820  0.8655 -1.4505
17549THY    CP234793   6.198   7.304   2.061 -0.3976  0.2002 -0.6415
17549THY    HP234794   6.234   7.241   1.979  1.0821  0.4618 -0.1659
17549THY    HP334795   6.123   7.375   2.025 -0.1865  0.6378 -0.1902
17549THY    HP434796   6.153   7.252   2.146 -0.3441  0.9197  0.4601
17549THY    CP334797   6.392   7.458   2.002  0.1402 -0.2219  0.6475
17549THY    HP534798   6.458   7.387   1.951  1.5404  0.4910  1.3808
17549THY    HP634799   6.453   7.532   2.055  0.9164 -0.0472 -0.1057
17549THY    HP734800   6.318   7.503   1.935  0.6024  0.2058  2.1062
17549THY    CA334801   6.477   7.216   2.156  0.4200 -0.0456 -0.4471
17549THY    HA334802   6.447   7.174   2.060  3.5285 -2.1461  1.6521
17549THY    CA434803   6.587   7.163   2.223 -0.1632  0.4345 -0.1683
17549THY    HA434804   6.639   7.074   2.188  0.1756  1.8659 -0.5514
17549THY    CA534805   6.628   7.217   2.350  0.4307 -0.0560  0.3398
17549THY    CM134806   6.742   7.151   2.411  0.1515 -0.3766 -0.5839
17549THY    HM134807   6.740   7.041   2.404 -0.6139 -1.1881 -0.5268
17549THY    HM234808   6.731   7.180   2.516  2.3683  0.0875 -1.1963
17549THY    HM334809   6.833   7.197   2.370  0.7426  1.3412 -0.1550
17549THY    CA634810   6.555   7.328   2.405  0.7949 -0.2405  0.3049
17549THY    HA634811   6.587   7.367   2.501  2.2363 -0.5227 -0.1290
17550THY      O34812   2.185   8.256   2.146 -0.1703 -0.5727 -0.1949
17550THY     HO34813   2.232   8.173   2.163  2.6930 -1.1547  1.1386
17550THY    CA134814   2.167   8.265   2.013  0.5063 -0.3519  1.3969
17550THY    CA234815   2.115   8.150   1.946  0.2899 -1.1099 -0.5945
17550THY    CP134816   2.033   8.049   2.031  0.3553 -0.8456  0.6045
17550THY    HP134817   2.017   8.096   2.128 -1.1706 -0.7154 -0.1106
17550THY    CP234818   2.109   7.919   2.060  0.1679  0.6126 -0.5697
17550THY    HP234819   2.119   7.862   1.966 -0.1408 -1.2154  2.1676
17550THY    HP334820   2.056   7.855   2.131  2.3897  2.1012 -0.8705
17550THY    HP434821   2.209   7.935   2.101 -1.3458  4.4628 -0.0132
17550THY    CP334822   1.897   8.006   1.968 -0.0644 -0.2823  0.4406
17550THY    HP534823   1.843   7.944   2.040 -0.5471 -0.3641  0.7619
17550THY    HP634824   1.921   7.938   1.885 -0.1677  2.5676 -3.3875
17550THY    HP734825   1.834   8.093   1.946 -1.3442  2.9086  0.4294
17550THY    CA334826   2.118   8.150   1.808 -0.7305  0.4000 -0.0598
17550THY    HA334827   2.086   8.066   1.746  1.0368  1.9870 -2.0295
17550THY    CA434828   2.166   8.260   1.736  0.0831  0.2919  0.9209
17550THY    HA434829   2.153   8.251   1.629  1.1055  0.3625 -3.1569
17550THY    CA534830   2.210   8.374   1.806 -0.2286 -0.2127  0.9152
17550THY    CM134831   2.260   8.493   1.730  0.0006 -0.2352 -0.6933
17550THY    HM134832   2.188   8.576   1.743  2.1804  2.1801  0.9573
17550THY    HM234833   2.272   8.468   1.624 -1.4371 -0.2921 -1.2368
17550THY    HM334834   2.358   8.525   1.765 -0.1471  0.0049 -0.5050
17550THY    CA634835   2.212   8.368   1.946  0.9181  0.1398 -0.5311
17550THY    HA634836   2.257   8.453   1.997  0.8411  1.1864 -1.0992
17551THY      O34837   1.979   0.855   3.902 -0.2206  0.0205  0.1222
17551THY     HO34838   1.905   0.814   3.853  0.6725  0.1437 -1.7420
17551THY    CA134839   2.088   0.853   3.815  0.8754 -0.4008 -0.7426
17551THY    CA234840   2.214   0.916   3.841 -0.1737 -0.0261  0.0800
17551THY    CP134841   2.224   1.007   3.967 -0.5600  0.6055 -0.6703
17551THY    HP134842   2.130   1.025   4.020 -0.9179  0.0327 -0.8335
17551THY    CP234843   2.287   1.145   3.933  0.1009  0.3780  0.0519
17551THY    HP234844   2.380   1.130   3.877 -1.4675 -2.5384  0.4905
17551THY    HP334845   2.316   1.202   4.023 -2.2039  0.6696  0.8573
17551THY    HP434846   2.221   1.200   3.865 -1.0902  1.4720  0.0394
17551THY    CP334847   2.321   0.943   4.068 -0.5476  0.2931  0.4799
17551THY    HP534848   2.292   0.840   4.091  0.8289  0.3520  0.0850
17551THY    HP634849   2.317   1.007   4.157  0.9178  0.1591  0.8009
17551THY    HP734850   2.426   0.944   4.036 -0.5092  0.2903 -1.0790
17551THY    CA334851   2.321   0.889   3.751 -0.0359  0.0633  0.1386
17551THY    HA334852   2.418   0.927   3.779  0.3645 -0.9644 -0.0959
17551THY    CA434853   2.297   0.801   3.642 -0.0697  0.3861 -0.2618
17551THY    HA434854   2.389   0.766   3.596  0.6615  2.6430 -1.4935
17551THY    CA534855   2.178   0.728   3.628  0.3123 -0.4189 -0.5716
17551THY    CM134856   2.174   0.613   3.545  0.2699  0.2929  0.4345
17551THY    HM134857   2.212   0.633   3.444 -0.8828  0.1601  2.1955
17551THY    HM234858   2.080   0.559   3.533  0.2062 -0.4611  0.7014
17551THY    HM334859   2.247   0.543   3.586  3.6169  1.5187  4.2490
17551THY    CA634860   2.069   0.760   3.715 -0.0539  0.6629  0.0884
17551THY    HA634861   1.980   0.698   3.713 -0.1207 -0.3740  0.1945
17552THY      O34862   1.668   7.388   5.782 -0.2314 -0.3026 -0.2045
17552THY     HO34863   1.632   7.316   5.836 -2.9208  0.6016  1.6748
17552THY    CA134864   1.558   7.460   5.740 -0.8092 -0.1830  0.4104
17552THY    CA234865   1.578   7.555   5.646  0.2015 -0.3858 -0.2391
17552THY    CP134866   1.710   7.592   5.585  0.0292  0.2985  0.2308
17552THY    HP134867   1.782   7.588   5.668  1.6549 -1.1141 -0.7019
17552THY    CP234868   1.723   7.741   5.531  0.3766 -0.5535  0.7391
17552THY    HP234869   1.652   7.767   5.453 -2.6201  1.8206  0.2498
17552THY    HP334870   1.825   7.764   5.497  0.1386 -0.3133  2.2814
17552THY    HP434871   1.711   7.821   5.605 -0.2060  0.2271 -0.0531
17552THY    CP334872   1.745   7.487   5.478 -0.2483  0.2163  0.6744
17552THY    HP534873   1.790   7.399   5.525  0.5020 -2.2842 -0.3774
17552THY    HP634874   1.821   7.533   5.413  0.2986  0.9178  0.7809
17552THY    HP734875   1.659   7.457   5.418  2.6640 -3.0849 -1.9101
17552THY    CA334876   1.461   7.620   5.594  0.3836  0.1554  0.1352
17552THY    HA334877   1.468   7.687   5.509  0.9463 -0.0821 -0.2120
17552THY    CA434878   1.336   7.600   5.655 -0.5443 -0.7946  0.1969
17552THY    HA434879   1.242   7.647   5.628 -0.2440 -1.5076  0.4063
17552THY    CA534880   1.323   7.518   5.767 -0.0717 -0.0162 -0.0069
17552THY    CM134881   1.189   7.504   5.823  0.3876  0.1994 -0.2059
17552THY    HM134882   1.192   7.455   5.920  0.6419  0.9189  1.1886
17552THY    HM234883   1.124   7.445   5.757  1.0145  1.1404 -1.9947
17552THY    HM334884   1.143   7.603   5.835  0.1967  1.5946 -0.4514
17552THY    CA634885   1.433   7.446   5.801 -0.5655 -0.2302 -0.3949
17552THY    HA634886   1.424   7.364   5.872  1.6568  0.5037 -0.0788
17553THY      O34887   5.413   6.330   2.823  0.5590  0.0785 -0.6004
17553THY     HO34888   5.370   6.382   2.753  1.1852  0.8247  0.9886
17553THY    CA134889   5.445   6.205   2.779 -1.2402  0.8865 -0.4815
17553THY    CA234890   5.558   6.138   2.838 -0.0550 -0.0389  0.1633
17553THY    CP134891   5.640   6.200   2.955  0.0489 -0.1063 -0.9412
17553THY    HP134892   5.582   6.278   3.007  0.6128 -0.5224 -0.2279
17553THY    CP234893   5.773   6.262   2.905  1.2684 -0.4016  0.9095
17553THY    HP234894   5.854   6.190   2.890  0.7090  0.1887  0.1514
17553THY    HP334895   5.811   6.342   2.970  1.2133  0.1563  0.4800
17553THY    HP434896   5.763   6.309   2.806  3.5815 -0.4963  1.3166
17553THY    CP334897   5.667   6.101   3.067 -0.5951  0.2369  0.0096
17553THY    HP534898   5.761   6.047   3.057  0.7321 -0.1844  2.2845
17553THY    HP634899   5.588   6.026   3.081  1.3390 -0.8583 -2.3372
17553THY    HP734900   5.674   6.149   3.166 -1.6414 -0.7296  2.3559
17553THY    CA334901   5.603   6.013   2.788 -0.2651 -0.2545 -0.1161
17553THY    HA334902   5.680   5.949   2.829 -1.0608  0.4488 -0.6409
17553THY    CA434903   5.542   5.977   2.669 -0.9235 -0.6267 -0.2211
17553THY    HA434904   5.577   5.881   2.632  0.6828 -0.1108  0.1347
17553THY    CA534905   5.448   6.054   2.603  0.2043 -0.1775  0.2097
17553THY    CM134906   5.402   6.009   2.470 -0.0619  0.3544 -0.4134
17553THY    HM134907   5.312   5.948   2.478 -0.0154 -1.1491 -0.7189
17553THY    HM234908   5.479   5.952   2.417 -0.8005 -3.3771  1.7549
17553THY    HM334909   5.381   6.094   2.404 -1.3577  0.4534 -0.6446
17553THY    CA634910   5.398   6.168   2.655  0.7279 -0.1019  0.3390
17553THY    HA634911   5.328   6.230   2.600  2.0517 -0.2032  1.8136
17554THY      O34912   0.354   4.979   2.382 -0.0132  0.2672  0.3702
17554THY     HO34913   0.406   5.043   2.434  1.8200  1.0169 -1.6125
17554THY    CA134914   0.426   4.918   2.281 -0.1951  0.4297 -0.3611
17554THY    CA234915   0.368   4.879   2.161  0.7162 -0.6208  0.4862
17554THY    CP134916   0.217   4.911   2.138 -0.1391  0.1266  0.1912
17554THY    HP134917   0.182   5.003   2.187 -1.6925 -1.2401  0.3852
17554THY    CP234918   0.125   4.814   2.199  0.4088 -0.2563  1.2239
17554THY    HP234919   0.148   4.783   2.302 -0.4142  0.2315  2.1790
17554THY    HP334920   0.111   4.728   2.132 -1.1286  0.5364  0.8097
17554THY    HP434921   0.025   4.856   2.214 -0.5911  0.6994 -1.3110
17554THY    CP334922   0.186   4.935   1.993  0.3806 -0.8349  0.4417
17554THY    HP534923   0.176   4.840   1.939  1.1303  0.6608 -0.5236
17554THY    HP634924   0.260   5.000   1.946 -0.3893 -0.5524  1.5456
17554THY    HP734925   0.097   4.997   1.977  1.3764 -1.1601  1.8187
17554THY    CA334926   0.445   4.808   2.069 -0.2823  0.1809  0.9238
17554THY    HA334927   0.403   4.764   1.979 -2.6631  1.3864  0.5574
17554THY    CA434928   0.580   4.779   2.098  0.0510 -0.2546  0.0097
17554THY    HA434929   0.641   4.719   2.031 -0.6232  0.6696 -1.7808
17554THY    CA534930   0.638   4.822   2.217  0.8903  0.3326 -0.3834
17554THY    CM134931   0.781   4.785   2.245  0.3880 -0.5336 -0.2771
17554THY    HM134932   0.792   4.678   2.221 -1.3634  0.1406 -0.6534
17554THY    HM234933   0.808   4.785   2.351  2.1651 -0.9539 -0.8525
17554THY    HM334934   0.854   4.841   2.187 -1.0375 -0.7959  1.3700
17554THY    CA634935   0.563   4.895   2.304 -0.3002 -0.0035  0.0743
17554THY    HA634936   0.617   4.930   2.391  0.1213 -0.7004  1.2124
17555THY      O34937   2.734   8.975   3.004  0.1309 -0.1189  0.3130
17555THY     HO34938   2.664   9.031   3.041 -1.2096 -0.0437 -1.3301
17555THY    CA134939   2.737   8.868   3.077  0.7447 -0.6079  0.3310
17555THY    CA234940   2.764   8.736   3.026  0.1510 -1.1207  0.2086
17555THY    CP134941   2.796   8.713   2.882 -0.0087  0.3474 -0.0666
17555THY    HP134942   2.754   8.797   2.825  0.4767  0.0221 -0.0391
17555THY    CP234943   2.734   8.587   2.831 -0.0611 -0.0995  0.4911
17555THY    HP234944   2.789   8.499   2.865 -0.6085 -1.9115 -0.6148
17555THY    HP334945   2.751   8.593   2.723  1.6686  0.1029 -0.1663
17555THY    HP434946   2.627   8.594   2.855 -0.1213  0.0063 -0.5669
17555THY    CP334947   2.946   8.711   2.864 -0.1595 -0.6318  1.0939
17555THY    HP534948   2.984   8.802   2.912  0.1135  2.0845 -0.3500
17555THY    HP634949   2.968   8.723   2.757 -0.7632 -0.9688 -0.4928
17555THY    HP734950   3.009   8.626   2.892 -2.9657 -0.7017 -1.1579
17555THY    CA334951   2.770   8.630   3.118 -0.8051  0.2215 -0.5101
17555THY    HA334952   2.790   8.529   3.084 -0.7143 -0.9586 -0.1094
17555THY    CA434953   2.776   8.664   3.252 -0.1470 -0.2962  0.2876
17555THY    HA434954   2.805   8.587   3.324  0.3557 -1.8099 -0.9828
17555THY    CA534955   2.740   8.789   3.303 -0.0990 -0.7130 -0.8745
17555THY    CM134956   2.730   8.816   3.454  0.2947 -0.5454  1.0454
17555THY    HM134957   2.828   8.826   3.503  0.6820 -1.0090 -0.1889
17555THY    HM234958   2.667   8.739   3.500 -1.6710 -0.0809  2.8522
17555THY    HM334959   2.687   8.916   3.465 -0.6461  0.6921  0.5212
17555THY    CA634960   2.707   8.884   3.211  0.0696  0.6289  0.4393
17555THY    HA634961   2.667   8.978   3.248 -1.9759 -1.2502  0.4137
17556THY      O34962   7.557   1.937   4.452 -0.0972  0.7467 -0.2282
17556THY     HO34963   7.497   1.927   4.528  1.0877  1.5531 -1.6574
17556THY    CA134964   7.669   1.871   4.477  0.1095 -0.4177 -0.0605
17556THY    CA234965   7.799   1.916   4.451 -0.1850  0.3249  0.4280
17556THY    CP134966   7.815   2.040   4.364  0.6778 -0.0124 -0.2236
17556THY    HP134967   7.739   2.040   4.286  0.1852  0.4319  1.1179
17556THY    CP234968   7.936   2.037   4.284  0.5893 -0.4909 -0.4319
17556THY    HP234969   8.022   2.050   4.351  1.5365 -1.7983  0.2212
17556THY    HP334970   7.928   2.125   4.220 -0.4264  2.4689  1.7962
17556THY    HP434971   7.941   1.946   4.223  1.2266 -2.2847  0.7600
17556THY    CP334972   7.807   2.163   4.451 -0.1173  0.1161 -0.4329
17556THY    HP534973   7.884   2.163   4.529 -1.1221  1.1379  0.3908
17556THY    HP634974   7.706   2.158   4.495 -1.2142 -2.0378  1.0716
17556THY    HP734975   7.806   2.249   4.384  0.4414 -3.1972 -2.8071
17556THY    CA334976   7.907   1.840   4.505  0.2309 -0.6009 -0.5236
17556THY    HA334977   8.009   1.870   4.480  0.4622  2.1151  1.4350
17556THY    CA434978   7.883   1.730   4.588  0.1306 -0.4539  0.4535
17556THY    HA434979   7.968   1.674   4.625 -0.6727  1.8594  0.6633
17556THY    CA534980   7.752   1.689   4.619  0.0771 -0.0291 -0.1291
17556THY    CM134981   7.730   1.577   4.707  0.4452 -1.3146  0.9573
17556THY    HM134982   7.814   1.507   4.704 -0.8527  1.0121 -0.8604
17556THY    HM234983   7.648   1.511   4.675  1.2166 -2.0036  0.3069
17556THY    HM334984   7.707   1.603   4.810  0.4683 -1.1513  0.3568
17556THY    CA634985   7.648   1.757   4.554 -0.2837 -0.3226 -0.0760
17556THY    HA634986   7.551   1.716   4.577  0.6800  2.3276 -1.1389
17557THY      O34987   4.280   1.710   7.583 -0.2127 -0.3278 -0.8455
17557THY     HO34988   4.353   1.763   7.621 -1.0422  1.7025 -1.0438
17557THY    CA134989   4.306   1.730   7.452 -0.2292  0.0794 -0.2007
17557THY    CA234990   4.215   1.779   7.361 -0.0195 -0.4610 -0.4482
17557THY    CP134991   4.079   1.822   7.405  0.5408  0.6140  0.5942
17557THY    HP134992   4.039   1.751   7.478 -1.7650 -0.3188  0.8800
17557THY    CP234993   3.965   1.831   7.296  0.8522  0.4546  0.2046
17557THY    HP234994   3.972   1.903   7.214 -3.2686 -1.1893 -1.0028
17557THY    HP334995   3.872   1.840   7.353 -0.3038 -1.5854  1.9939
17557THY    HP434996   3.953   1.732   7.251  1.1232 -1.0327  0.8294
17557THY    CP334997   4.085   1.948   7.496  0.3364  0.0520 -0.0419
17557THY    HP534998   3.986   1.968   7.538  1.1912  1.9184  0.5775
17557THY    HP634999   4.125   2.023   7.427 -0.6472 -2.0563 -1.3731
17557THY    HP735000   4.154   1.935   7.581 -0.8030  0.8576 -1.0663
17557THY    CA335001   4.260   1.811   7.238 -0.0728  0.0223 -0.6650
17557THY    HA335002   4.188   1.856   7.171  0.2050  1.7083  2.4994
17557THY    CA435003   4.395   1.797   7.201  0.2226  0.5050  0.6415
17557THY    HA435004   4.436   1.830   7.106  1.0100  0.7450  0.3834
17557THY    CA535005   4.483   1.728   7.287  0.5075  0.1309 -0.6497
17557THY    CM135006   4.630   1.700   7.252  0.0149 -0.3051  0.5549
17557THY    HM135007   4.637   1.705   7.143 -1.5604 -0.5260 -1.0373
17557THY    HM235008   4.652   1.596   7.280 -2.9254 -3.6132 -1.1777
17557THY    HM335009   4.702   1.762   7.307  0.7315  0.1131 -0.6082
17557THY    CA635010   4.436   1.695   7.418  0.5951 -0.3735 -1.0558
17557THY    HA635011   4.507   1.657   7.491  2.6777 -1.4535  0.5492
17558THY      O35012   1.498   7.264   3.783  0.3421  0.4977 -0.3782
17558THY     HO35013   1.435   7.270   3.710  1.7037 -0.5720  2.3282
17558THY    CA135014   1.492   7.391   3.838  0.0811 -0.1398 -0.2431
17558THY    CA235015   1.535   7.423   3.970 -0.6890  0.1649 -0.6829
17558THY    CP135016   1.592   7.313   4.051  0.0431  0.5795 -0.1691
17558THY    HP135017   1.548   7.222   4.008 -1.0886 -2.2673  1.5795
17558THY    CP235018   1.542   7.314   4.192 -0.1739  0.2399 -0.3367
17558THY    HP235019   1.433   7.324   4.185  0.1122 -1.4694  3.0871
17558THY    HP335020   1.584   7.402   4.242  0.3645 -2.4342  1.0264
17558THY    HP435021   1.568   7.222   4.245  1.6681  0.1744  0.1051
17558THY    CP335022   1.743   7.315   4.054  0.0463  0.2675 -0.8180
17558THY    HP535023   1.773   7.329   3.950 -0.2214  0.2266 -0.5174
17558THY    HP635024   1.793   7.231   4.103 -0.5941 -0.2773 -1.5320
17558THY    HP735025   1.779   7.407   4.102  0.5842  0.4101 -1.1040
17558THY    CA335026   1.553   7.559   4.003  0.4627  0.1218  0.1754
17558THY    HA335027   1.599   7.591   4.096 -0.8287 -0.1629  3.2008
17558THY    CA435028   1.490   7.660   3.926 -0.5018  0.0200 -0.3370
17558THY    HA435029   1.503   7.763   3.958 -1.0210  1.7683 -0.7755
17558THY    CA535030   1.433   7.620   3.799  0.4943  0.4384 -0.6879
17558THY    CM135031   1.381   7.740   3.715  0.0934  0.1459  0.1984
17558THY    HM135032   1.325   7.708   3.626 -1.5930  0.7794  1.2612
17558THY    HM235033   1.458   7.804   3.672 -0.3166  0.0912  0.6606
17558THY    HM335034   1.318   7.808   3.774 -0.9426  0.1012 -0.6822
17558THY    CA635035   1.428   7.488   3.758  0.0979  0.2553 -0.7184
17558THY    HA635036   1.387   7.461   3.661 -0.3383  0.0471  0.6267
17559THY      O35037   7.319   7.506   4.742 -0.0269  0.3649 -0.0321
17559THY     HO35038   7.355   7.418   4.763 -2.9450  0.6737 -1.2637
17559THY    CA135039   7.423   7.588   4.714 -0.5027  0.1739 -0.1111
17559THY    CA235040   7.412   7.718   4.677 -0.5114 -0.1121 -1.1109
17559THY    CP135041   7.272   7.793   4.672  0.0657 -0.0744  0.1584
17559THY    HP135042   7.199   7.732   4.728  1.5174  0.9585 -0.6970
17559THY    CP235043   7.227   7.823   4.533 -0.9622  0.1175 -0.1460
17559THY    HP235044   7.256   7.744   4.463 -1.1729 -0.3988  0.2323
17559THY    HP335045   7.270   7.916   4.493  2.8916  0.1357 -1.7525
17559THY    HP435046   7.122   7.837   4.505 -0.3337 -2.2924  0.1554
17559THY    CP335047   7.276   7.917   4.767 -0.0421  0.2777  0.3492
17559THY    HP535048   7.320   7.879   4.859  1.4120 -0.6505 -0.2864
17559THY    HP635049   7.177   7.960   4.785 -0.6553  0.4122 -1.0636
17559THY    HP735050   7.334   8.000   4.723 -1.0917 -0.3628  0.7629
17559THY    CA335051   7.532   7.785   4.643 -0.2040 -0.2322 -0.1221
17559THY    HA335052   7.530   7.892   4.626 -1.5898  1.7586  0.2455
17559THY    CA435053   7.649   7.725   4.629 -0.9898  0.2532  0.2628
17559THY    HA435054   7.738   7.777   4.594 -0.4667  0.2015 -0.6254
17559THY    CA535055   7.657   7.585   4.658  0.4642 -0.5557 -0.2350
17559THY    CM135056   7.782   7.507   4.629  0.2722 -0.0102 -0.3034
17559THY    HM135057   7.863   7.576   4.605 -1.1530 -0.6184  1.2218
17559THY    HM235058   7.779   7.444   4.539  2.5104 -0.7091  0.5033
17559THY    HM335059   7.812   7.448   4.717  0.9176  0.5725  0.8691
17559THY    CA635060   7.547   7.524   4.712  0.1210  0.3215  0.5671
17559THY    HA635061   7.552   7.422   4.748 -1.9231 -0.9978 -0.0630
17560THY      O35062   6.761   4.622   6.250 -0.2588  0.7213 -0.2617
17560THY     HO35063   6.734   4.657   6.163 -1.8950  1.3675  0.1793
17560THY    CA135064   6.812   4.499   6.221  0.3088  0.6362 -0.1620
17560THY    CA235065   6.870   4.427   6.323 -0.8146 -0.0762 -0.0834
17560THY    CP135066   6.868   4.469   6.465 -0.0701 -0.9672  0.6418
17560THY    HP135067   6.800   4.553   6.478 -2.2162  1.4960 -1.3179
17560THY    CP235068   7.002   4.528   6.500  0.1234 -0.1558 -0.5855
17560THY    HP235069   7.010   4.563   6.603 -2.2051 -0.3210  0.6467
17560THY    HP335070   7.022   4.623   6.449  1.3279 -0.8418 -1.1873
17560THY    HP435071   7.087   4.458   6.492 -2.5673  0.2489 -4.1979
17560THY    CP335072   6.812   4.365   6.571 -0.3852  0.0113  0.3883
17560THY    HP535073   6.812   4.424   6.663  1.8958  0.5469 -0.3625
17560THY    HP635074   6.860   4.269   6.591 -0.5869  1.2820  0.5459
17560THY    HP735075   6.706   4.344   6.548 -0.5879  1.5152 -0.3620
17560THY    CA335076   6.921   4.298   6.290 -0.1469 -0.1381  0.3925
17560THY    HA335077   6.957   4.225   6.362 -0.6976 -0.6001 -0.3460
17560THY    CA435078   6.909   4.250   6.158 -0.0272  0.2298 -0.3167
17560THY    HA435079   6.946   4.150   6.136  1.1390  1.4097 -0.1832
17560THY    CA535080   6.848   4.325   6.060  0.1147 -0.2582  0.2032
17560THY    CM135081   6.850   4.265   5.921  0.4041  0.2237 -0.1424
17560THY    HM135082   6.944   4.229   5.876 -0.4273 -0.0498 -2.1183
17560THY    HM235083   6.816   4.342   5.850 -2.4916 -2.0738 -3.2152
17560THY    HM335084   6.779   4.182   5.913 -1.1876  0.0216  1.1992
17560THY    CA635085   6.793   4.448   6.091 -0.7475 -0.1979 -0.7936
17560THY    HA635086   6.748   4.508   6.012  1.8265 -0.6393  0.6805
17561THY      O35087   5.832   3.260   2.018 -0.0189 -0.8393 -0.2541
17561THY     HO35088   5.924   3.234   2.000 -0.0016  0.1373 -0.9085
17561THY    CA135089   5.820   3.390   1.979 -0.2290  0.8585  0.2037
17561THY    CA235090   5.701   3.466   1.995  0.4512  1.0197  0.8777
17561THY    CP135091   5.565   3.403   2.055 -0.0365 -0.2342 -0.1421
17561THY    HP135092   5.563   3.294   2.052  2.6153 -1.0752 -0.2322
17561THY    CP235093   5.437   3.445   1.971  0.2247  0.4698 -0.5191
17561THY    HP235094   5.456   3.403   1.872  3.7613  0.2228  1.3529
17561THY    HP335095   5.429   3.553   1.954 -0.5287  0.0111 -0.6381
17561THY    HP435096   5.341   3.416   2.016  0.8772  2.5469  0.3526
17561THY    CP335097   5.544   3.435   2.202 -0.6916  0.0220  0.3619
17561THY    HP535098   5.438   3.428   2.230 -0.8192 -0.5345 -0.0042
17561THY    HP635099   5.580   3.534   2.231  1.7530  1.5947 -0.8827
17561THY    HP735100   5.599   3.368   2.269  2.8683 -0.2682  2.7366
17561THY    CA335101   5.707   3.603   1.986  0.0365  0.4159 -0.1492
17561THY    HA335102   5.618   3.664   1.994 -0.1523 -0.5731 -0.2938
17561THY    CA435103   5.836   3.661   1.967  0.0656  0.0447 -0.5947
17561THY    HA435104   5.838   3.768   1.987 -4.8829  0.9909 -0.4027
17561THY    CA535105   5.948   3.581   1.945 -0.5519  0.5147 -0.0443
17561THY    CM135106   6.076   3.655   1.932 -0.0507  0.2350  0.3690
17561THY    HM135107   6.074   3.704   1.833  3.2860  0.2526  0.7431
17561THY    HM235108   6.166   3.594   1.942 -1.4503  0.1681 -1.7929
17561THY    HM335109   6.086   3.726   2.015  0.2730  0.5479 -0.0412
17561THY    CA635110   5.938   3.443   1.943  0.7231  0.1450  0.2262
17561THY    HA635111   6.024   3.382   1.920  0.7587 -0.2778  0.4322
17562THY      O35112   9.180   4.778   3.202  0.3029 -0.5936 -0.3041
17562THY     HO35113   9.222   4.851   3.153 -3.3446 -0.5509  2.1158
17562THY    CA135114   9.167   4.677   3.112 -0.5000 -0.1069  0.3996
17562THY    CA235115   9.080   4.673   3.000 -0.4031  0.3358  0.1488
17562THY    CP135116   8.999   4.796   2.963 -0.3115 -0.5676 -0.0640
17562THY    HP135117   9.015   4.875   3.037  1.8083 -0.0575 -0.8902
17562THY    CP235118   8.851   4.747   2.950  0.3033  0.1151  0.0410
17562THY    HP235119   8.840   4.671   3.028  1.6229  1.1103  0.8353
17562THY    HP335120   8.825   4.704   2.852 -1.4031 -0.2024  1.6568
17562THY    HP435121   8.780   4.830   2.963 -1.1523 -0.0346 -1.1459
17562THY    CP335122   9.057   4.861   2.828  0.8362 -0.0534  0.6184
17562THY    HP535123   8.994   4.947   2.805 -0.5723 -0.8371 -0.5839
17562THY    HP635124   9.048   4.790   2.745 -2.6483  2.1743 -1.8562
17562THY    HP735125   9.161   4.897   2.838  0.2957 -0.7334  2.4941
17562THY    CA335126   9.081   4.553   2.917  0.2162  0.0939 -0.0545
17562THY    HA335127   9.019   4.540   2.829  0.9455 -0.5786  0.8972
17562THY    CA435128   9.173   4.450   2.948  0.1691  0.3872  0.2264
17562THY    HA435129   9.179   4.355   2.896 -1.8306  0.6859 -0.0987
17562THY    CA535130   9.262   4.457   3.060  1.0775  0.4363  0.2829
17562THY    CM135131   9.356   4.345   3.097 -0.1322  0.5857  0.0911
17562THY    HM135132   9.355   4.317   3.203 -1.4207  0.7486  0.6902
17562THY    HM235133   9.456   4.389   3.086 -0.5662  1.2029  1.2632
17562THY    HM335134   9.344   4.271   3.017 -0.2462 -3.1206  3.7059
17562THY    CA635135   9.261   4.576   3.132 -0.5865 -0.5026 -0.6982
17562THY    HA635136   9.341   4.593   3.204 -1.7155  0.2210  2.3106
17563THY      O35137   8.714   4.194   3.800 -0.2137  0.2294  0.1385
17563THY     HO35138   8.664   4.118   3.765  1.2010 -1.2733 -0.1637
17563THY    CA135139   8.684   4.200   3.934 -0.3124  0.1436  0.4804
17563THY    CA235140   8.714   4.303   4.017  0.6947 -0.3491 -0.0954
17563THY    CP135141   8.819   4.413   3.974 -0.2114 -0.4772 -0.5478
17563THY    HP135142   8.805   4.434   3.867 -0.3347 -0.7660 -1.9903
17563THY    CP235143   8.957   4.354   3.974 -0.2451 -0.0506 -0.1599
17563THY    HP235144   8.996   4.315   4.068  2.2922 -0.5693  0.9317
17563THY    HP335145   9.014   4.442   3.943 -0.9050  2.2388  1.1637
17563THY    HP435146   8.958   4.287   3.887 -4.8708 -0.7832  0.3500
17563THY    CP335147   8.824   4.541   4.049  0.5720  0.0272 -0.2186
17563THY    HP535148   8.904   4.545   4.124 -0.2794  0.9055  1.2655
17563THY    HP635149   8.724   4.574   4.080  1.1058 -0.1253  1.6451
17563THY    HP735150   8.852   4.621   3.979 -2.4776 -0.5304  0.4579
17563THY    CA335151   8.667   4.291   4.154  0.4475 -0.0227  0.0136
17563THY    HA335152   8.688   4.372   4.222  3.2123 -1.2719  0.4556
17563THY    CA435153   8.589   4.181   4.196  0.0611  0.1266  0.5077
17563THY    HA435154   8.553   4.178   4.298  0.7428  0.3546 -0.4059
17563THY    CA535155   8.559   4.080   4.103  0.5624 -0.0967 -0.7844
17563THY    CM135156   8.470   3.964   4.135 -0.1590  0.4710  0.2017
17563THY    HM135157   8.487   3.869   4.083  0.6895  0.5364  0.3096
17563THY    HM235158   8.362   3.977   4.118 -0.5223  2.3674 -0.1397
17563THY    HM335159   8.483   3.928   4.237  0.3868 -0.5380 -2.7707
17563THY    CA635160   8.616   4.090   3.973  0.4145  0.0449 -0.3042
17563THY    HA635161   8.594   4.015   3.897 -0.5989 -2.5210  2.3955
17564THY      O35162   9.091   6.257   3.289 -0.0764  0.1670  0.0921
17564THY     HO35163   9.054   6.172   3.257 -1.1744  0.8891  0.2787
17564THY    CA135164   9.191   6.215   3.375 -0.0379  0.1433 -0.6037
17564THY    CA235165   9.270   6.307   3.448  0.0073 -0.8555 -0.3755
17564THY    CP135166   9.231   6.451   3.441 -0.0633  0.1178 -0.3651
17564THY    HP135167   9.225   6.489   3.339 -1.4771  0.3558  0.1022
17564THY    CP235168   9.344   6.540   3.493  0.2442  0.0295  0.3297
17564THY    HP235169   9.324   6.643   3.462  1.2369  1.7038  1.0713
17564THY    HP335170   9.439   6.503   3.453 -0.5080  0.1638 -1.8515
17564THY    HP435171   9.357   6.540   3.602 -0.3939  0.1229  1.0597
17564THY    CP335172   9.094   6.458   3.513 -0.3544 -0.6722  0.3012
17564THY    HP535173   9.067   6.564   3.507 -1.6927 -0.9985 -0.0248
17564THY    HP635174   9.104   6.434   3.620  0.1407 -0.8091 -0.1220
17564THY    HP735175   9.011   6.404   3.465 -1.2642  1.1513 -0.0201
17564THY    CA335176   9.377   6.261   3.526 -0.7244  0.1158  0.2434
17564THY    HA335177   9.438   6.326   3.588  1.0337 -1.9368  0.6591
17564THY    CA435178   9.398   6.121   3.534  0.0283 -0.3302  0.5941
17564THY    HA435179   9.477   6.080   3.597  0.7691 -0.4525  1.7842
17564THY    CA535180   9.322   6.036   3.457 -0.5728  0.3462  0.1950
17564THY    CM135181   9.358   5.885   3.468 -0.0687  0.5435  0.2117
17564THY    HM135182   9.302   5.820   3.400 -0.2304  1.5407 -0.7268
17564THY    HM235183   9.323   5.836   3.559 -2.6776 -1.7436 -2.5402
17564THY    HM335184   9.466   5.868   3.461 -0.3933  0.9629 -2.3419
17564THY    CA635185   9.211   6.079   3.385 -0.0627 -0.7200 -0.0280
17564THY    HA635186   9.152   6.007   3.329  2.2261 -1.2904 -1.5795
17565THY      O35187   5.138   5.446   4.236 -0.0844  0.2991  0.1955
17565THY     HO35188   5.189   5.426   4.317  1.5916 -0.7799 -0.1755
17565THY    CA135189   5.203   5.548   4.182 -0.6304  0.3750  0.2717
17565THY    CA235190   5.167   5.587   4.057 -0.2720  0.0545  0.7783
17565THY    CP135191   5.059   5.509   3.975  0.7426 -0.2248 -0.2690
17565THY    HP135192   5.028   5.424   4.036 -1.2205  0.7504  1.0709
17565THY    CP235193   5.129   5.460   3.839 -0.4498 -0.5525  0.1556
17565THY    HP235194   5.228   5.423   3.866 -1.0360 -1.3710 -2.1939
17565THY    HP335195   5.134   5.542   3.766 -1.9459 -1.6907 -0.7110
17565THY    HP435196   5.070   5.386   3.783 -1.0084  0.0272  0.1472
17565THY    CP335197   4.933   5.593   3.942  0.2085  0.0924  0.1079
17565THY    HP535198   4.871   5.606   4.031 -0.5455 -0.2890 -0.7715
17565THY    HP635199   4.876   5.539   3.865 -0.1191  0.9759 -0.8269
17565THY    HP735200   4.958   5.696   3.912 -2.9902  1.3475  1.3828
17565THY    CA335201   5.231   5.691   3.996  0.7856 -0.4538 -0.0909
17565THY    HA335202   5.204   5.734   3.901  0.6824  0.5434  2.2031
17565THY    CA435203   5.332   5.759   4.073 -0.1915 -0.3812  0.4920
17565THY    HA435204   5.371   5.850   4.029 -0.6817 -3.7602 -0.7903
17565THY    CA535205   5.367   5.727   4.204  0.7408 -0.6033  0.1799
17565THY    CM135206   5.460   5.815   4.288 -0.0041 -0.0972 -0.7185
17565THY    HM135207   5.425   5.837   4.389  0.4571  0.4461 -2.4030
17565THY    HM235208   5.476   5.914   4.244  1.6481  0.1902 -0.8439
17565THY    HM335209   5.553   5.763   4.312  2.2867 -2.6228  1.8364
17565THY    CA635210   5.294   5.626   4.259  0.2667  0.2158  0.9225
17565THY    HA635211   5.313   5.590   4.360 -0.5611 -0.4510 -1.5926
17566THY      O35212   4.591   9.196   6.071  0.5575 -0.4545 -0.0458
17566THY     HO35213   4.566   9.108   6.038 -0.0376  0.5436 -0.2674
17566THY    CA135214   4.565   9.177   6.203 -0.3900  0.1927 -0.5830
17566THY    CA235215   4.637   9.247   6.308  0.2304 -0.5879  0.4678
17566THY    CP135216   4.722   9.366   6.272 -0.4144 -0.2309  1.1557
17566THY    HP135217   4.696   9.431   6.188  0.4357 -1.9391 -0.5933
17566THY    CP235218   4.856   9.302   6.235  0.2867 -0.1229 -0.0723
17566THY    HP235219   4.932   9.380   6.219 -1.5158  0.2217  1.8189
17566THY    HP335220   4.859   9.236   6.147  3.0719 -0.4731  0.3953
17566THY    HP435221   4.896   9.239   6.316  1.6162  0.0947  0.9976
17566THY    CP335222   4.734   9.470   6.389  0.3639  0.7733 -0.5714
17566THY    HP535223   4.765   9.424   6.483  0.5075  0.0002 -2.1181
17566THY    HP635224   4.641   9.527   6.390 -0.5459  0.9002 -2.0230
17566THY    HP735225   4.822   9.534   6.374 -0.7018  1.3680  1.1107
17566THY    CA335226   4.610   9.204   6.445  0.7566 -0.6318  0.3937
17566THY    HA335227   4.657   9.256   6.529  1.0155 -1.4611  1.5350
17566THY    CA435228   4.505   9.106   6.465 -0.0359 -0.3403  0.4999
17566THY    HA435229   4.480   9.084   6.568  0.9422 -0.2300 -0.1296
17566THY    CA535230   4.447   9.043   6.361 -0.4230 -0.6857  0.3214
17566THY    CM135231   4.352   8.920   6.381  0.3530  0.5823 -0.6587
17566THY    HM135232   4.248   8.942   6.356  0.3392  0.5389 -0.7735
17566THY    HM235233   4.350   8.895   6.487  1.3986  0.9738  0.7618
17566THY    HM335234   4.398   8.836   6.328  3.2665 -0.5474  1.4482
17566THY    CA635235   4.478   9.074   6.230 -0.1581 -0.3962 -0.1847
17566THY    HA635236   4.417   9.027   6.154  0.8925 -0.1246 -2.0694
17567THY      O35237   8.398   5.925   4.898  0.4802 -0.1591  0.0640
17567THY     HO35238   8.340   5.892   4.827  0.2514 -1.6796  3.2967
17567THY    CA135239   8.484   6.019   4.852 -0.2632 -0.2571 -0.4301
17567THY    CA235240   8.544   6.123   4.934  0.6152 -0.4410 -0.0827
17567THY    CP135241   8.514   6.138   5.086 -0.2086  0.5691  0.5246
17567THY    HP135242   8.417   6.093   5.110 -0.3014 -0.0683  0.3776
17567THY    CP235243   8.490   6.286   5.117 -0.0046  0.1502  0.1804
17567THY    HP235244   8.425   6.339   5.046 -0.6369  0.5298 -0.0833
17567THY    HP335245   8.589   6.334   5.124 -0.6104 -0.6848  1.6299
17567THY    HP435246   8.454   6.289   5.221  0.5364  0.5322  5.8074
17567THY    CP335247   8.625   6.069   5.169 -0.4071  0.3175  0.2650
17567THY    HP535248   8.721   6.120   5.168  0.1929 -1.5087 -0.7948
17567THY    HP635249   8.644   5.968   5.130 -3.4966  1.1716 -0.7744
17567THY    HP735250   8.595   6.071   5.274  1.0517  0.8389 -1.9456
17567THY    CA335251   8.643   6.195   4.870  0.0648  0.1691 -0.8100
17567THY    HA335252   8.701   6.267   4.927  0.5950 -1.2435 -0.0651
17567THY    CA435253   8.668   6.184   4.731 -0.1758  0.4775  0.1678
17567THY    HA435254   8.737   6.247   4.677 -0.7945  0.5914  0.9636
17567THY    CA535255   8.594   6.095   4.653  0.0637 -0.4798  0.3395
17567THY    CM135256   8.605   6.107   4.505 -0.1706  0.3172 -0.2432
17567THY    HM135257   8.549   6.024   4.459  0.9810 -0.5616 -0.5531
17567THY    HM235258   8.710   6.092   4.478 -0.3702 -0.2063 -0.7411
17567THY    HM335259   8.566   6.202   4.466 -1.3426  1.2319 -0.3239
17567THY    CA635260   8.499   6.010   4.712  0.1804  0.0148  0.7173
17567THY    HA635261   8.433   5.943   4.658  1.0681 -1.7549  1.2054
17568THY      O35262   9.057   5.454   5.007  0.2329  0.5326  0.1788
17568THY     HO35263   9.112   5.378   4.981  0.5494  0.5870  0.3879
17568THY    CA135264   9.032   5.510   4.886 -0.3151  0.4568  0.0490
17568THY    CA235265   8.953   5.625   4.869  0.1526  0.1425 -0.3407
17568THY    CP135266   8.884   5.693   4.996  0.0746  1.0100  0.4570
17568THY    HP135267   8.874   5.632   5.087  1.8585  1.3858  0.6807
17568THY    CP235268   8.741   5.737   4.959 -0.0508  0.8196  0.2395
17568THY    HP235269   8.739   5.829   4.899  0.6291 -0.3042 -0.4594
17568THY    HP335270   8.674   5.739   5.046  0.5408  1.4194 -2.4427
17568THY    HP435271   8.693   5.666   4.892 -1.2775  0.8490  1.0118
17568THY    CP335272   8.952   5.820   5.041 -0.3514  0.3309 -0.2316
17568THY    HP535273   8.922   5.870   5.133  1.9681  0.6552  0.7137
17568THY    HP635274   8.951   5.895   4.961  0.2263 -0.6712 -1.2427
17568THY    HP735275   9.059   5.795   5.037 -0.4041 -2.2093 -0.2818
17568THY    CA335276   8.936   5.683   4.744  0.0022  0.9022  0.4868
17568THY    HA335277   8.885   5.778   4.734 -0.2145 -0.9468  0.2046
17568THY    CA435278   8.990   5.623   4.634 -0.4163 -0.4426 -0.4538
17568THY    HA435279   8.966   5.661   4.535  2.9334 -0.6328  1.6470
17568THY    CA535280   9.060   5.501   4.649  0.3147 -0.6184 -0.2811
17568THY    CM135281   9.118   5.432   4.537 -0.0605  0.7327 -0.1103
17568THY    HM135282   9.115   5.322   4.537 -0.1330 -1.4404 -0.1601
17568THY    HM235283   9.218   5.470   4.516 -0.2107 -0.8384 -0.4956
17568THY    HM335284   9.065   5.455   4.444 -2.1379  1.5918 -1.1657
17568THY    CA635285   9.077   5.441   4.778  0.5421 -0.5109 -0.0026
17568THY    HA635286   9.141   5.354   4.786  3.3988 -0.9320  1.9233
17569THY      O35287   2.152   7.125   6.844  0.1816 -0.2981  0.1471
17569THY     HO35288   2.246   7.143   6.831  0.1190 -0.8314  0.1088
17569THY    CA135289   2.131   7.021   6.768  0.4305 -0.2116 -0.1810
17569THY    CA235290   2.004   7.005   6.713 -0.0829  0.0335 -0.5128
17569THY    CP135291   1.897   7.113   6.726  0.4057  0.3266 -0.6171
17569THY    HP135292   1.949   7.208   6.739  0.9858  3.8696 -1.2753
17569THY    CP235293   1.812   7.112   6.854 -0.1932 -0.3498 -0.0331
17569THY    HP235294   1.767   7.012   6.863  1.9855 -0.4402 -1.0791
17569THY    HP335295   1.726   7.181   6.854 -0.1470 -0.0156  0.0236
17569THY    HP435296   1.872   7.132   6.943  1.7881 -1.9490  1.4372
17569THY    CP335297   1.809   7.127   6.603  0.0576 -0.3761  0.4410
17569THY    HP535298   1.755   7.222   6.592 -0.2990 -2.2779  0.0573
17569THY    HP635299   1.730   7.052   6.598  0.1354  0.2301  0.3211
17569THY    HP735300   1.867   7.105   6.512  1.5413  0.2138  1.6721
17569THY    CA335301   1.974   6.888   6.638 -0.1507  0.4647  0.6579
17569THY    HA335302   1.875   6.876   6.593  0.7503 -1.2353 -0.8649
17569THY    CA435303   2.073   6.793   6.615 -0.5100  0.3988 -0.4614
17569THY    HA435304   2.066   6.708   6.549  2.2386  0.4481 -0.7993
17569THY    CA535305   2.196   6.810   6.681  0.8989 -0.2433  0.6013
17569THY    CM135306   2.291   6.696   6.694  0.6526  0.5514  0.5387
17569THY    HM135307   2.238   6.600   6.688  0.8170  1.2838  0.3891
17569THY    HM235308   2.331   6.699   6.797  1.1958  0.3426  0.6593
17569THY    HM335309   2.376   6.710   6.626 -0.4626 -0.4539  2.7845
17569THY    CA635310   2.224   6.920   6.765  0.3536  0.0244 -0.3512
17569THY    HA635311   2.316   6.927   6.823 -0.2170  0.9828 -0.6180
17570THY      O35312   7.592   2.266   5.995  0.6561  0.4452 -0.2070
17570THY     HO35313   7.663   2.299   5.937  1.7045  0.9472 -1.5162
17570THY    CA135314   7.611   2.135   6.006  0.1686  0.4783 -0.1951
17570THY    CA235315   7.544   2.058   6.103  0.8063  1.0320 -0.4346
17570THY    CP135316   7.429   2.122   6.184 -0.0403  0.5099  0.7644
17570THY    HP135317   7.412   2.228   6.164 -0.4666 -0.6186  0.4884
17570THY    CP235318   7.460   2.126   6.340  0.4628 -0.2243  0.2912
17570THY    HP235319   7.488   2.032   6.389 -1.8329  2.6101  0.9317
17570THY    HP335320   7.378   2.178   6.391  0.7502  0.5062  0.0392
17570THY    HP435321   7.546   2.192   6.357  1.6266 -2.0296 -0.6655
17570THY    CP335322   7.307   2.038   6.153  1.0827  0.1599  0.4432
17570THY    HP535323   7.224   2.100   6.190  0.1906 -0.1988 -0.5005
17570THY    HP635324   7.296   1.938   6.197  0.0167 -1.1919 -0.0615
17570THY    HP735325   7.287   2.022   6.047 -1.5214  0.6037  0.1897
17570THY    CA335326   7.577   1.920   6.111 -0.1903  0.3552  0.8194
17570THY    HA335327   7.526   1.855   6.183 -1.2828 -2.4736 -1.6965
17570THY    CA435328   7.685   1.863   6.039 -0.1136  0.3094  0.2952
17570THY    HA435329   7.710   1.759   6.056 -0.8418 -0.2014  0.0222
17570THY    CA535330   7.753   1.945   5.946  0.4164  0.1303  0.1337
17570THY    CM135331   7.866   1.889   5.859 -0.8809  1.0871  0.4198
17570THY    HM135332   7.898   1.945   5.769  2.4905  2.8049  1.5418
17570THY    HM235333   7.826   1.797   5.816 -1.2456 -0.6270  1.3302
17570THY    HM335334   7.952   1.855   5.917 -1.0149 -0.0209 -1.9816
17570THY    CA635335   7.709   2.080   5.925 -0.1769 -0.2231  0.1969
17570THY    HA635336   7.762   2.147   5.858 -1.4167  0.0672  1.5243
17571THY      O35337   8.298   3.096   6.634 -0.1440 -0.2944  0.0053
17571THY     HO35338   8.236   3.022   6.637 -0.5580  0.0776  0.3605
17571THY    CA135339   8.423   3.054   6.634 -0.0293 -0.2895  0.8142
17571THY    CA235340   8.531   3.142   6.635 -0.4259 -0.0986 -0.5878
17571THY    CP135341   8.513   3.293   6.635 -0.5622  0.4775  0.3946
17571THY    HP135342   8.408   3.320   6.618 -0.0649 -0.3640  1.8976
17571THY    CP235343   8.612   3.351   6.526  0.6495 -0.1268 -0.0838
17571THY    HP235344   8.613   3.286   6.438  2.4104  0.3652 -0.7939
17571THY    HP335345   8.716   3.334   6.556  0.2874  1.0124 -0.3865
17571THY    HP435346   8.586   3.454   6.499 -1.8420  1.9635 -0.0747
17571THY    CP335347   8.547   3.347   6.772 -0.5061  0.2565  0.5583
17571THY    HP535348   8.539   3.456   6.775 -0.2326 -0.8455  0.6228
17571THY    HP635349   8.650   3.323   6.801 -0.6375  1.6063  1.5000
17571THY    HP735350   8.487   3.297   6.849  0.6873  1.0647  0.3402
17571THY    CA335351   8.661   3.083   6.645 -0.4140 -0.4006  0.0475
17571THY    HA335352   8.752   3.142   6.652  0.4157 -2.3578 -0.9078
17571THY    CA435353   8.681   2.944   6.632 -0.1074  0.7165  0.0280
17571THY    HA435354   8.782   2.908   6.618  0.0690 -1.3104  1.1472
17571THY    CA535355   8.576   2.858   6.630  0.6675  0.3358  0.4907
17571THY    CM135356   8.591   2.711   6.603 -0.0720 -0.5002  0.4386
17571THY    HM135357   8.635   2.696   6.504 -0.3040 -0.6055  0.4395
17571THY    HM235358   8.494   2.661   6.612  0.8286 -1.3924 -1.5582
17571THY    HM335359   8.653   2.667   6.682 -2.2915  0.4608 -1.1446
17571THY    CA635360   8.446   2.917   6.624  0.3530 -0.2241 -0.1384
17571THY    HA635361   8.359   2.853   6.611 -2.3195  0.3573  3.0777
17572THY      O35362   3.606   7.884   6.855  0.4576 -0.5802  0.6759
17572THY     HO35363   3.569   7.874   6.766 -2.4354  0.7320 -2.2660
17572THY    CA135364   3.737   7.903   6.835 -0.0221 -0.2697  0.0430
17572THY    CA235365   3.836   7.818   6.887  0.2587 -0.1573 -0.2387
17572THY    CP135366   3.799   7.687   6.951 -0.3064  0.3049  0.1695
17572THY    HP135367   3.692   7.667   6.961 -1.1319 -2.0841  2.7045
17572THY    CP235368   3.869   7.648   7.081  0.1850 -0.1611 -0.4010
17572THY    HP235369   3.875   7.726   7.158  0.6859 -2.2634  1.7404
17572THY    HP335370   3.976   7.631   7.064 -0.1763 -1.9624 -1.1341
17572THY    HP435371   3.831   7.561   7.135  1.5367 -1.2630 -1.7213
17572THY    CP335372   3.845   7.573   6.862 -1.0279  0.6220 -0.4144
17572THY    HP535373   3.776   7.570   6.777  0.9849 -1.1347  0.4767
17572THY    HP635374   3.831   7.474   6.908  2.5319  2.6482 -0.1584
17572THY    HP735375   3.951   7.577   6.833 -1.3330 -0.4869 -0.0644
17572THY    CA335376   3.972   7.851   6.872 -0.2611  0.3892  0.1170
17572THY    HA335377   4.045   7.781   6.913  1.8527 -2.3633  0.5141
17572THY    CA435378   4.002   7.976   6.811  0.7505  0.3832 -0.6912
17572THY    HA435379   4.105   8.011   6.803  0.2456  0.6190  0.9323
17572THY    CA535380   3.903   8.053   6.749  0.3819 -0.0880  0.3332
17572THY    CM135381   3.926   8.177   6.673  0.1833 -0.4255 -0.3158
17572THY    HM135382   3.942   8.142   6.571 -2.1455 -0.1572 -2.4757
17572THY    HM235383   4.012   8.229   6.716 -2.1536  3.1913  1.0071
17572THY    HM335384   3.846   8.252   6.675  2.2998  0.0038  2.0651
17572THY    CA635385   3.767   8.018   6.763 -0.7615  0.3403  0.4813
17572THY    HA635386   3.690   8.085   6.725 -0.0074 -1.6504  0.2771
17573THY      O35387   8.177   6.414   6.361  0.0888  0.0538 -0.4174
17573THY     HO35388   8.100   6.364   6.328  0.4799 -0.5460 -0.6233
17573THY    CA135389   8.268   6.391   6.264 -0.1990  0.0944 -0.7392
17573THY    CA235390   8.326   6.496   6.190  0.4504 -0.0977 -0.4066
17573THY    CP135391   8.288   6.641   6.226  0.7641  0.3236 -0.7427
17573THY    HP135392   8.244   6.650   6.325  0.7446  0.2233  0.4195
17573THY    CP235393   8.173   6.707   6.148  0.4076  0.5484  0.0664
17573THY    HP235394   8.161   6.813   6.172  0.3951  2.5174 -0.3416
17573THY    HP335395   8.078   6.653   6.162 -0.7730 -0.5646  1.7650
17573THY    HP435396   8.199   6.692   6.042 -1.2399  0.1193 -0.0303
17573THY    CP335397   8.415   6.739   6.221  0.4937  0.8301 -0.2144
17573THY    HP535398   8.493   6.684   6.276  0.1484 -0.9735 -2.6825
17573THY    HP635399   8.397   6.838   6.265 -0.6501  0.7565 -0.3718
17573THY    HP735400   8.447   6.757   6.118 -3.1091 -0.1785  1.3857
17573THY    CA335401   8.426   6.469   6.099 -0.4012 -0.4110  0.7603
17573THY    HA335402   8.477   6.550   6.048 -0.5127  0.6559  1.5278
17573THY    CA435403   8.474   6.333   6.080  0.0130 -0.0840  0.2089
17573THY    HA435404   8.560   6.321   6.015 -1.4517 -2.2088  0.6355
17573THY    CA535405   8.426   6.232   6.159 -0.1806  0.0692  0.0090
17573THY    CM135406   8.482   6.094   6.144  0.4434 -0.0734  0.0536
17573THY    HM135407   8.560   6.067   6.216  0.5376 -0.8184 -1.8142
17573THY    HM235408   8.526   6.071   6.046  0.0735 -0.6009  1.4904
17573THY    HM335409   8.389   6.037   6.155 -0.2363  0.2211  1.1958
17573THY    CA635410   8.319   6.262   6.244 -0.4654 -0.1999  0.3329
17573THY    HA635411   8.286   6.186   6.314 -2.2800 -1.0104  0.3060
17574THY      O35412   7.112   2.624   4.153  0.7679 -0.2521  0.2397
17574THY     HO35413   7.147   2.714   4.161 -2.0436  0.3580  1.3697
17574THY    CA135414   7.069   2.603   4.287 -0.5412  0.7331  0.7406
17574THY    CA235415   6.998   2.487   4.324  0.6027 -0.1564  0.7798
17574THY    CP135416   6.951   2.390   4.218 -0.4694 -0.8658  0.5325
17574THY    HP135417   7.001   2.408   4.121 -0.2906 -0.8710  0.0176
17574THY    CP235418   6.801   2.402   4.186 -0.2506 -0.2481  0.3249
17574THY    HP235419   6.788   2.325   4.109 -0.2507 -1.6559  1.6790
17574THY    HP335420   6.791   2.500   4.139  2.8208 -0.5640  0.5941
17574THY    HP435421   6.750   2.379   4.280 -1.8634 -0.9709  0.7922
17574THY    CP335422   6.984   2.245   4.260  0.6099  0.4837 -0.4386
17574THY    HP535423   6.910   2.197   4.326 -1.1605  0.9133  2.5603
17574THY    HP635424   7.079   2.260   4.313  0.7766 -0.6272  3.7193
17574THY    HP735425   6.996   2.188   4.168  2.1620 -2.1742  3.7562
17574THY    CA335426   6.954   2.465   4.461 -0.5142  0.4906  0.4552
17574THY    HA335427   6.882   2.391   4.493  0.4393  0.3907 -0.5429
17574THY    CA435428   6.995   2.565   4.554 -0.3357 -0.3673 -0.7596
17574THY    HA435429   6.950   2.565   4.652 -0.5977 -0.4129  1.9265
17574THY    CA535430   7.070   2.675   4.507 -0.2746  0.7865 -0.4576
17574THY    CM135431   7.099   2.787   4.608  0.3307  0.7902 -0.5209
17574THY    HM135432   7.157   2.864   4.554  0.7921  0.8105 -0.8503
17574THY    HM235433   7.154   2.758   4.698  1.1209  0.6259  0.3817
17574THY    HM335434   7.006   2.834   4.642 -0.9164 -0.1569 -2.2078
17574THY    CA635435   7.110   2.692   4.375  0.1689 -0.8081  0.8003
17574THY    HA635436   7.177   2.775   4.351  3.6114  0.7180 -1.3272
17575THY      O35437   2.025   6.534   5.160 -0.0634  0.3146 -0.2045
17575THY     HO35438   1.935   6.496   5.153  0.8204 -1.2943 -2.2065
17575THY    CA135439   2.067   6.497   5.278 -0.7263 -0.4675  0.0030
17575THY    CA235440   2.197   6.446   5.296 -0.8350 -0.5539 -0.1718
17575THY    CP135441   2.297   6.441   5.179  0.3401 -0.1766 -0.3547
17575THY    HP135442   2.255   6.480   5.085 -1.3551 -0.1775 -2.0263
17575THY    CP235443   2.318   6.295   5.139 -0.5444  0.5693  0.0682
17575THY    HP235444   2.369   6.240   5.220  0.5286  0.2789  0.6103
17575THY    HP335445   2.385   6.279   5.053 -0.6610  0.3115  0.9317
17575THY    HP435446   2.226   6.247   5.104  0.9513  0.8282 -3.3238
17575THY    CP335447   2.426   6.524   5.199  0.3465 -0.0257 -0.0024
17575THY    HP535448   2.503   6.469   5.143 -0.6806 -1.1779 -0.3031
17575THY    HP635449   2.458   6.536   5.304  2.4940 -0.6514  0.2733
17575THY    HP735450   2.417   6.623   5.152  0.8964 -0.7552 -0.2925
17575THY    CA335451   2.236   6.423   5.429 -0.3358  0.3741  0.4799
17575THY    HA335452   2.339   6.394   5.445 -0.1642  1.2534  1.5199
17575THY    CA435453   2.154   6.430   5.538 -0.0304  0.2046 -0.2958
17575THY    HA435454   2.189   6.420   5.640 -0.1752  0.3340  0.4888
17575THY    CA535455   2.017   6.465   5.513 -0.2350 -0.1798 -0.1415
17575THY    CM135456   1.924   6.480   5.629  0.1379 -0.2020 -0.7109
17575THY    HM135457   1.906   6.385   5.680 -0.9401  1.2827  0.2513
17575THY    HM235458   1.827   6.504   5.585  0.8961 -0.9971  1.0881
17575THY    HM335459   1.964   6.549   5.705 -0.1771  0.7163 -1.5251
17575THY    CA635460   1.972   6.497   5.381 -0.8356  0.4227 -0.1112
17575THY    HA635461   1.866   6.507   5.362 -0.3315 -2.1559  0.9558
17576THY      O35462   5.776   1.272   7.316  0.3007 -0.8388 -0.0763
17576THY     HO35463   5.781   1.292   7.221 -0.6425 -0.8296  0.2907
17576THY    CA135464   5.644   1.301   7.337  0.2495  0.3095  0.5007
17576THY    CA235465   5.580   1.245   7.450 -0.3855 -1.0213  0.1693
17576THY    CP135466   5.663   1.143   7.530 -0.7478  0.7578  0.1918
17576THY    HP135467   5.767   1.179   7.534 -0.3577 -2.9999 -0.0606
17576THY    CP235468   5.667   1.005   7.464  0.1149  0.3806  0.5652
17576THY    HP235469   5.760   0.959   7.499  0.1950 -1.2277 -0.5650
17576THY    HP335470   5.675   1.017   7.356 -2.3996  0.2298  1.4240
17576THY    HP435471   5.576   0.947   7.485  0.3520 -1.1120 -0.3845
17576THY    CP335472   5.620   1.138   7.682  0.1143  0.2457 -1.0228
17576THY    HP535473   5.595   1.239   7.716 -2.4407  1.4811 -1.9772
17576THY    HP635474   5.699   1.084   7.736  0.5199 -1.7939 -2.6183
17576THY    HP735475   5.529   1.078   7.696  0.3246 -1.1648 -1.7279
17576THY    CA335476   5.447   1.275   7.472 -0.3114 -0.3121  0.4404
17576THY    HA335477   5.395   1.231   7.557  2.3990  0.9339 -0.6405
17576THY    CA435478   5.388   1.374   7.387  0.3202  0.2496  0.5226
17576THY    HA435479   5.285   1.398   7.412 -0.7115  1.0214 -3.7925
17576THY    CA535480   5.458   1.436   7.289 -0.6090  0.1515  0.0614
17576THY    CM135481   5.392   1.550   7.219 -0.1051 -0.2435 -0.4494
17576THY    HM135482   5.434   1.567   7.119  3.1495  1.1203  0.3994
17576THY    HM235483   5.412   1.645   7.271  1.3298 -0.2530 -0.7184
17576THY    HM335484   5.284   1.534   7.211 -0.2659 -0.0320  0.4529
17576THY    CA635485   5.590   1.399   7.261  0.0816 -0.1468  0.1399
17576THY    HA635486   5.642   1.451   7.181 -0.6422 -0.6144  0.1691
17577THY      O35487   8.907   0.386   4.183  0.0294 -0.4755 -0.7657
17577THY     HO35488   8.950   0.392   4.270 -1.7169  0.3360  1.1292
17577THY    CA135489   8.998   0.402   4.088  0.3432 -0.3942 -0.3402
17577THY    CA235490   8.964   0.388   3.950 -0.9285 -0.1449 -0.1647
17577THY    CP135491   8.819   0.380   3.904  0.6809  0.2725  0.3460
17577THY    HP135492   8.753   0.349   3.986 -1.4285 -1.3938  0.1360
17577THY    CP235493   8.804   0.261   3.808  0.1701 -0.4442  0.1147
17577THY    HP235494   8.832   0.163   3.850  0.8498  0.2909  0.6153
17577THY    HP335495   8.874   0.268   3.724 -0.6389 -0.9510  2.9510
17577THY    HP435496   8.710   0.266   3.752  1.0158 -1.7738  2.0097
17577THY    CP335497   8.771   0.512   3.841  0.1688 -0.4714  0.6447
17577THY    HP535498   8.665   0.526   3.862  0.0129 -1.4281  0.9859
17577THY    HP635499   8.782   0.515   3.732  1.7124 -0.5181 -2.4387
17577THY    HP735500   8.818   0.600   3.886  0.2978  1.3579 -0.3109
17577THY    CA335501   9.071   0.382   3.860 -0.6745 -0.5051  0.1762
17577THY    HA335502   9.058   0.374   3.752  1.2524 -0.9459  1.9315
17577THY    CA435503   9.203   0.388   3.907  0.9918  0.0784  0.4810
17577THY    HA435504   9.292   0.388   3.844  1.8601  1.2257 -1.2088
17577THY    CA535505   9.235   0.404   4.042 -0.0178  0.4230  0.5237
17577THY    CM135506   9.381   0.408   4.091  0.7544 -0.6776 -0.1625
17577THY    HM135507   9.376   0.380   4.197 -0.2235 -1.0347 -1.4604
17577THY    HM235508   9.436   0.498   4.059  0.0849 -3.9213 -0.7804
17577THY    HM335509   9.444   0.334   4.040  0.9006 -1.8988  0.7668
17577THY    CA635510   9.131   0.407   4.134  0.2044 -0.0857  0.5648
17577THY    HA635511   9.152   0.415   4.240 -0.0109  0.1595 -1.4982
17578THY      O35512   3.124   6.668   3.724 -0.4624 -0.0634  0.3653
17578THY     HO35513   3.040   6.629   3.693  1.0440 -1.3375 -2.1085
17578THY    CA135514   3.083   6.795   3.747  0.4196 -0.3653 -0.0040
17578THY    CA235515   3.176   6.900   3.771  0.2906 -0.2390  0.0652
17578THY    CP135516   3.317   6.880   3.755 -0.4707 -0.5374 -1.1596
17578THY    HP135517   3.342   6.794   3.692 -1.1381 -0.7992 -1.1656
17578THY    CP235518   3.382   6.885   3.897 -0.3201 -0.0808 -1.0619
17578THY    HP235519   3.373   6.974   3.960  0.8193  1.0766 -1.7484
17578THY    HP335520   3.488   6.863   3.877 -0.6018 -1.3105 -1.3997
17578THY    HP435521   3.348   6.802   3.958  1.3944 -0.8479 -2.3888
17578THY    CP335522   3.376   6.991   3.665  0.3803 -0.1334 -0.0822
17578THY    HP535523   3.484   6.980   3.652  0.6762 -0.5668  2.5272
17578THY    HP635524   3.353   7.088   3.711 -3.6625  1.2948 -1.5025
17578THY    HP735525   3.340   6.986   3.561  0.1848 -0.0372 -0.7279
17578THY    CA335526   3.108   7.018   3.827  0.6190 -0.4433  0.7828
17578THY    HA335527   3.160   7.105   3.865  0.5241  0.2957  0.5245
17578THY    CA435528   2.973   7.018   3.858 -0.3448 -0.4013  0.3876
17578THY    HA435529   2.933   7.097   3.920 -2.4477 -0.4814 -0.5479
17578THY    CA535530   2.892   6.909   3.841 -0.1937  0.2400 -0.1255
17578THY    CM135531   2.757   6.908   3.899  0.1328 -0.1295  0.0981
17578THY    HM135532   2.767   6.881   4.005 -0.5306  0.8661  3.3626
17578THY    HM235533   2.690   6.837   3.850  0.8421 -1.2176  0.1675
17578THY    HM335534   2.705   7.004   3.895 -0.1808 -0.0701 -0.0657
17578THY    CA635535   2.946   6.795   3.788 -0.0768  0.4066  0.4675
17578THY    HA635536   2.883   6.707   3.773  0.0047 -0.1280  0.5015
17579THY      O35537   5.309   3.707   7.370  0.1347 -0.1360  0.2458
17579THY     HO35538   5.234   3.646   7.358  1.9298 -5.4258 -1.4423
17579THY    CA135539   5.274   3.782   7.474  0.1655  0.7575 -0.6629
17579THY    CA235540   5.361   3.807   7.581 -0.4019 -0.1025  0.3439
17579THY    CP135541   5.505   3.754   7.588  0.2923 -0.0974  0.1107
17579THY    HP135542   5.523   3.698   7.496 -2.6522  0.6208 -2.2840
17579THY    CP235543   5.522   3.661   7.711  0.6102  0.0553  0.0159
17579THY    HP235544   5.501   3.715   7.805 -1.0596 -1.1521  1.6180
17579THY    HP335545   5.613   3.606   7.733  0.6331 -0.8857 -0.3350
17579THY    HP435546   5.446   3.582   7.710  0.9366 -0.6312 -0.2909
17579THY    CP335547   5.609   3.862   7.589 -0.1554  0.3902  0.0043
17579THY    HP535548   5.710   3.827   7.612 -0.1894  3.0207  1.4065
17579THY    HP635549   5.580   3.937   7.663  2.9375 -0.0705  1.8405
17579THY    HP735550   5.605   3.919   7.495 -2.4555 -0.4353 -1.3661
17579THY    CA335551   5.311   3.896   7.686 -0.1660 -0.1051  0.3278
17579THY    HA335552   5.373   3.932   7.767 -0.9763  0.2057  1.0646
17579THY    CA435553   5.186   3.955   7.670 -0.3600 -0.0358  0.0511
17579THY    HA435554   5.149   4.017   7.751  0.0675  0.9799 -0.9884
17579THY    CA535555   5.100   3.936   7.558 -0.0368  0.5554 -0.0629
17579THY    CM135556   4.976   4.015   7.539  0.0814 -0.0334 -0.3267
17579THY    HM135557   4.930   4.040   7.635 -0.6176  0.1212 -2.0816
17579THY    HM235558   4.901   3.956   7.484 -0.2838  2.1950 -2.0717
17579THY    HM335559   4.996   4.111   7.489 -1.0548  0.6223  0.2660
17579THY    CA635560   5.144   3.844   7.460 -0.1809 -0.5311  0.1002
17579THY    HA635561   5.070   3.826   7.383 -2.2706  0.6532  2.8913
17580THY      O35562   8.448   1.462   5.728 -0.0982  0.1179 -0.1472
17580THY     HO35563   8.543   1.442   5.721  0.5924  2.5385  1.7588
17580THY    CA135564   8.399   1.481   5.601  0.1822 -0.5707 -0.8250
17580THY    CA235565   8.333   1.596   5.556 -0.2021  0.3030 -0.9944
17580THY    CP135566   8.321   1.718   5.651 -0.0765 -0.1564 -0.3686
17580THY    HP135567   8.331   1.693   5.757  0.6498 -0.0719  0.2285
17580THY    CP235568   8.189   1.801   5.637  0.2300 -0.0034  0.2288
17580THY    HP235569   8.182   1.880   5.713 -0.1823 -0.0125  0.2023
17580THY    HP335570   8.106   1.733   5.661  0.3932  5.1559  1.3848
17580THY    HP435571   8.178   1.860   5.545 -1.3887  1.0739  1.7362
17580THY    CP335572   8.430   1.812   5.622  0.0874  0.3953  0.0572
17580THY    HP535573   8.430   1.901   5.686 -0.7303 -0.7991  0.9438
17580THY    HP635574   8.431   1.843   5.517 -3.8679  0.2047  0.1432
17580THY    HP735575   8.520   1.753   5.641  0.9322 -0.9623  0.8619
17580THY    CA335576   8.301   1.612   5.415  0.2951  0.0113  0.5377
17580THY    HA335577   8.245   1.697   5.377 -1.4058 -1.2514 -1.0588
17580THY    CA435578   8.334   1.500   5.326  0.2918  0.5515 -0.1926
17580THY    HA435579   8.317   1.506   5.219  0.2371  0.5801  0.1358
17580THY    CA535580   8.393   1.387   5.378 -0.1530 -0.1172 -0.5262
17580THY    CM135581   8.416   1.268   5.283 -0.1464  0.3844  0.0446
17580THY    HM135582   8.327   1.205   5.276  0.0838  2.1291 -0.5390
17580THY    HM235583   8.496   1.202   5.321  1.5626  1.2167  2.4416
17580THY    HM335584   8.436   1.306   5.182 -0.7326  0.6117  0.9997
17580THY    CA635585   8.430   1.379   5.513  0.1696 -0.9975  0.3641
17580THY    HA635586   8.489   1.292   5.540  0.4342 -0.1397  0.8018
17581THY      O35587   3.286   8.101   6.784 -0.3572 -0.1471 -0.2097
17581THY     HO35588   3.305   8.071   6.874  3.8658 -1.1676 -1.2797
17581THY    CA135589   3.262   8.231   6.779 -0.0667 -0.5312  0.4428
17581THY    CA235590   3.237   8.293   6.656 -0.2198  0.1716 -0.2046
17581THY    CP135591   3.241   8.215   6.520 -0.6258 -0.5281  0.1819
17581THY    HP135592   3.215   8.110   6.540 -1.3944 -1.2692  0.2197
17581THY    CP235593   3.369   8.218   6.444  0.3133 -0.1987  1.3606
17581THY    HP235594   3.448   8.196   6.516 -0.0436 -0.4218 -0.8422
17581THY    HP335595   3.391   8.312   6.392  2.6715 -2.2924 -0.1972
17581THY    HP435596   3.385   8.138   6.371  2.7238  1.2441  0.4166
17581THY    CP335597   3.132   8.264   6.429 -0.3317  0.7170  0.3368
17581THY    HP535598   3.097   8.183   6.363 -1.6449 -0.3998  1.7743
17581THY    HP635599   3.160   8.357   6.379 -3.2686 -0.3715  0.7351
17581THY    HP735600   3.047   8.292   6.492 -1.4937 -0.5403 -0.2437
17581THY    CA335601   3.200   8.431   6.664  0.3414  0.3147  0.7738
17581THY    HA335602   3.179   8.482   6.571 -1.6337  1.2753  1.8362
17581THY    CA435603   3.197   8.497   6.789  0.4426  0.7467 -0.1348
17581THY    HA435604   3.172   8.602   6.780 -1.6500 -1.2088 -0.7331
17581THY    CA535605   3.210   8.426   6.910  0.3679  0.2360  0.2821
17581THY    CM135606   3.196   8.502   7.032 -0.0571 -0.3443  0.8711
17581THY    HM135607   3.204   8.610   7.017  0.9991 -1.4001  0.6626
17581THY    HM235608   3.271   8.465   7.103 -0.5042  0.0494  0.7050
17581THY    HM335609   3.096   8.489   7.076  0.5024  1.0255  1.1119
17581THY    CA635610   3.242   8.294   6.903 -0.7539  0.0928  0.3910
17581THY    HA635611   3.256   8.243   6.998 -1.5361 -0.4444 -0.8813
17582THY      O35612   8.170   8.120   2.392 -0.0246 -0.2916 -0.0886
17582THY     HO35613   8.242   8.095   2.452  0.8438 -0.7282  1.2170
17582THY    CA135614   8.233   8.102   2.281 -0.1148  0.1008 -0.3618
17582THY    CA235615   8.210   8.182   2.164 -0.4835  0.6523 -0.6113
17582THY    CP135616   8.121   8.303   2.171  0.2271  0.1719 -0.2377
17582THY    HP135617   8.062   8.293   2.263  0.3278  0.1784 -0.8452
17582THY    CP235618   8.014   8.305   2.059 -0.8144  0.0545  0.4602
17582THY    HP235619   7.969   8.205   2.061  2.1278  1.1456 -0.9924
17582THY    HP335620   8.053   8.315   1.957  0.6474  0.4791 -0.4533
17582THY    HP435621   7.943   8.381   2.093  0.5544  0.3073  1.6831
17582THY    CP335622   8.194   8.429   2.177  0.0540 -0.7084  0.7108
17582THY    HP535623   8.269   8.430   2.097  1.4972  0.4005 -2.6971
17582THY    HP635624   8.248   8.441   2.272 -3.0154  1.3127 -0.4391
17582THY    HP735625   8.117   8.507   2.178 -2.0140  1.4617 -1.1869
17582THY    CA335626   8.266   8.140   2.044  0.2189  0.3008 -0.6907
17582THY    HA335627   8.257   8.202   1.955  0.6812 -0.7260 -2.0470
17582THY    CA435628   8.346   8.026   2.039 -0.1931  0.1230  0.1074
17582THY    HA435629   8.408   7.999   1.954  0.9845  0.0610  2.6844
17582THY    CA535630   8.360   7.950   2.151  0.2199 -0.1985 -0.5828
17582THY    CM135631   8.430   7.816   2.139 -0.3772  0.3163  0.3994
17582THY    HM135632   8.460   7.791   2.037 -0.4996  0.1778  0.7975
17582THY    HM235633   8.352   7.746   2.172  1.5985  1.8412 -1.1814
17582THY    HM335634   8.514   7.810   2.208  0.2652 -0.2997  1.7244
17582THY    CA635635   8.307   7.987   2.270  0.4029  0.3827 -0.7534
17582THY    HA635636   8.309   7.923   2.357 -3.0918 -0.5745 -2.4201
17583THY      O35637   0.410   1.328   6.733  0.1789 -0.1013 -0.8440
17583THY     HO35638   0.419   1.413   6.687  0.7205 -0.1231 -0.9066
17583THY    CA135639   0.522   1.259   6.695 -0.2799  0.5165 -0.4980
17583THY    CA235640   0.562   1.136   6.749  0.2753 -0.8527 -0.0229
17583THY    CP135641   0.470   1.060   6.846  0.0832 -0.1476 -0.6578
17583THY    HP135642   0.378   1.114   6.871  0.2650 -1.4042  0.2985
17583THY    CP235643   0.535   1.045   6.984  0.1724 -0.2006 -0.4560
17583THY    HP235644   0.590   0.950   6.989  0.5349 -2.4877 -0.4235
17583THY    HP335645   0.470   1.063   7.071  0.9599  0.1533  0.8788
17583THY    HP435646   0.604   1.127   7.006  0.3802  0.7329 -0.8620
17583THY    CP335647   0.431   0.929   6.780 -0.1498  0.6614  0.4002
17583THY    HP535648   0.376   0.953   6.688 -1.8720  1.3420 -0.7374
17583THY    HP635649   0.358   0.878   6.843 -1.0576 -2.0506 -1.8915
17583THY    HP735650   0.508   0.857   6.750 -2.0739 -2.6134 -0.5266
17583THY    CA335651   0.694   1.086   6.718  0.0726  0.7606 -0.6404
17583THY    HA335652   0.715   0.988   6.760  0.4650 -0.0813 -0.9295
17583THY    CA435653   0.767   1.153   6.617  0.3547 -0.2886  0.1840
17583THY    HA435654   0.865   1.115   6.590  0.3150  0.1367 -0.2374
17583THY    CA535655   0.727   1.270   6.560 -0.5242  0.3747  0.4237
17583THY    CM135656   0.826   1.344   6.465 -0.0579  0.3571  0.0841
17583THY    HM135657   0.920   1.374   6.514  0.5936 -0.9642  0.2825
17583THY    HM235658   0.772   1.430   6.424  0.5222 -0.6774 -0.0231
17583THY    HM335659   0.869   1.288   6.381  1.9976  0.1149  1.8909
17583THY    CA635660   0.609   1.330   6.604 -0.1335 -0.4502  0.1268
17583THY    HA635661   0.577   1.423   6.558 -0.6146 -2.5046 -0.9820
17584THY      O35662   1.180   3.085   5.400 -0.5600 -0.1761  0.3268
17584THY     HO35663   1.245   3.013   5.388  2.0425  0.3763  2.4400
17584THY    CA135664   1.132   3.088   5.529 -0.2979  1.2695  1.1751
17584THY    CA235665   1.033   3.180   5.574 -0.0065  0.4570  0.3061
17584THY    CP135666   0.976   3.263   5.463 -0.9235  0.6516  0.3063
17584THY    HP135667   1.049   3.283   5.383 -0.1420  0.9788 -1.0967
17584THY    CP235668   0.939   3.400   5.514 -0.6915  0.1974  0.1386
17584THY    HP235669   0.958   3.472   5.433  0.1750 -0.2580 -0.5710
17584THY    HP335670   1.005   3.433   5.595  0.5933 -0.3367 -1.0250
17584THY    HP435671   0.834   3.403   5.544 -1.4142 -1.6462 -2.7514
17584THY    CP335672   0.852   3.194   5.405 -0.1366  1.5175 -0.3118
17584THY    HP535673   0.816   3.245   5.315 -1.4234  1.5620 -1.0769
17584THY    HP635674   0.772   3.183   5.480 -0.2570  1.3771 -0.4069
17584THY    HP735675   0.864   3.098   5.352 -0.0789 -0.5218  0.7765
17584THY    CA335676   0.989   3.179   5.710  0.1349  0.7108  0.0915
17584THY    HA335677   0.914   3.255   5.732  1.4734  0.1124  1.6565
17584THY    CA435678   1.035   3.084   5.797 -0.1367  0.2089 -0.1169
17584THY    HA435679   1.002   3.090   5.900 -3.4671 -0.7210 -0.7759
17584THY    CA535680   1.135   2.991   5.758 -0.1502 -0.1624  0.4635
17584THY    CM135681   1.214   2.913   5.865  0.2014 -0.6877 -0.6438
17584THY    HM135682   1.149   2.827   5.887  0.5300 -2.1556 -1.2986
17584THY    HM235683   1.238   2.984   5.945 -1.5981 -1.2069  0.6187
17584THY    HM335684   1.298   2.864   5.814  0.3005 -0.8245 -0.3305
17584THY    CA635685   1.182   2.997   5.629  0.3421 -0.5446 -0.0953
17584THY    HA635686   1.263   2.929   5.608  0.6187 -0.1056  0.0947
17585THY      O35687   5.697   0.491   7.116  0.1115  0.4375 -0.4654
17585THY     HO35688   5.660   0.580   7.104 -2.5706 -1.5811 -1.7274
17585THY    CA135689   5.758   0.474   7.233 -0.3055  0.2370  0.2888
17585THY    CA235690   5.873   0.401   7.250 -0.4260 -0.3039 -0.2412
17585THY    CP135691   5.944   0.335   7.131  0.3605  1.1285 -0.4233
17585THY    HP135692   5.889   0.354   7.038  0.9836  0.8423  0.0287
17585THY    CP235693   5.972   0.184   7.154 -0.5305 -0.0030  0.6996
17585THY    HP235694   5.998   0.132   7.061  0.6260 -0.0630  1.3484
17585THY    HP335695   5.887   0.133   7.201  0.1433 -0.9941 -1.4257
17585THY    HP435696   6.060   0.177   7.219 -1.4473  1.0614 -2.8325
17585THY    CP335697   6.078   0.399   7.097  0.3808 -0.3648  0.2407
17585THY    HP535698   6.133   0.410   7.192  0.1900 -0.1445 -0.6575
17585THY    HP635699   6.057   0.499   7.058  0.0254 -0.2108  0.2273
17585THY    HP735700   6.137   0.337   7.029  1.0245  0.5033 -0.1278
17585THY    CA335701   5.924   0.396   7.379  0.3121 -0.4034  0.0153
17585THY    HA335702   6.006   0.327   7.397 -0.0058  0.1222 -0.2324
17585THY    CA435703   5.856   0.466   7.483 -0.1383  0.4871 -0.0890
17585THY    HA435704   5.895   0.449   7.583  0.5825 -0.2255 -3.2366
17585THY    CA535705   5.735   0.531   7.463  0.0433  0.3273  0.0424
17585THY    CM135706   5.664   0.587   7.587 -0.8891 -0.0909  0.4298
17585THY    HM135707   5.661   0.515   7.670  0.4507 -0.2599  0.1608
17585THY    HM235708   5.562   0.617   7.559 -0.8793 -1.6634 -0.8832
17585THY    HM335709   5.733   0.664   7.621  0.9217 -0.8411 -0.7961
17585THY    CA635710   5.690   0.541   7.330 -0.3724 -0.2197 -0.2357
17585THY    HA635711   5.596   0.595   7.317  0.0424  1.2368  0.9032
17586THY      O35712   4.748   3.337   6.003  0.4169 -0.3011 -0.1456
17586THY     HO35713   4.720   3.297   6.087 -0.3876 -0.8485 -0.7667
17586THY    CA135714   4.759   3.470   6.031  0.0954  0.2233 -0.2690
17586THY    CA235715   4.802   3.556   5.929  0.6276 -0.0066  0.1806
17586THY    CP135716   4.829   3.506   5.785  0.1331  0.5764  0.1636
17586THY    HP135717   4.759   3.425   5.760 -1.2977  2.6312  0.6773
17586THY    CP235718   4.969   3.455   5.770  0.3439 -0.6876  0.1596
17586THY    HP235719   4.985   3.419   5.668  1.9120  0.0830 -1.5010
17586THY    HP335720   4.986   3.372   5.840  0.4196  0.4204  1.0900
17586THY    HP435721   5.053   3.519   5.799 -0.0175  2.2801 -0.5575
17586THY    CP335722   4.801   3.625   5.691 -0.0721 -0.1580  0.7724
17586THY    HP535723   4.881   3.698   5.704  0.3694 -3.4048  0.9736
17586THY    HP635724   4.707   3.673   5.722 -1.2669 -1.3526 -0.6971
17586THY    HP735725   4.794   3.599   5.585 -2.2567 -0.3129  1.7576
17586THY    CA335726   4.822   3.695   5.970 -0.3426  0.5210 -0.3268
17586THY    HA335727   4.843   3.781   5.907 -0.1103  0.4883 -0.4058
17586THY    CA435728   4.806   3.735   6.105  0.1730  0.1717 -0.1304
17586THY    HA435729   4.817   3.838   6.137  0.3931 -2.5958  0.7789
17586THY    CA535730   4.765   3.641   6.199 -0.3257 -0.0122  0.0734
17586THY    CM135731   4.733   3.692   6.337  0.0232  0.1002 -0.2573
17586THY    HM135732   4.658   3.623   6.378 -0.9153 -2.2366 -0.7133
17586THY    HM235733   4.692   3.793   6.335  1.3131  0.8908  0.3129
17586THY    HM335734   4.817   3.689   6.408 -0.6626  0.9674  0.3608
17586THY    CA635735   4.739   3.506   6.163 -0.2878 -0.2544 -0.3636
17586THY    HA635736   4.705   3.435   6.237 -1.7656  0.1118  0.7016
17587THY      O35737   7.033   7.840   1.926  0.1574  0.4842  0.7622
17587THY     HO35738   7.120   7.884   1.930 -0.7235  0.8108  2.5739
17587THY    CA135739   7.022   7.773   2.044  0.9536 -0.8832 -0.0843
17587THY    CA235740   6.897   7.716   2.084  0.0454  0.1086  0.2107
17587THY    CP135741   6.774   7.722   1.996  0.2244 -0.5021 -0.0436
17587THY    HP135742   6.784   7.788   1.909 -0.1407 -0.9659 -0.5864
17587THY    CP235743   6.650   7.780   2.068 -0.4997  0.4055 -0.5160
17587THY    HP235744   6.574   7.799   1.991  0.5932 -0.6058 -0.1043
17587THY    HP335745   6.672   7.879   2.110 -2.9540  1.5447 -0.3762
17587THY    HP435746   6.615   7.717   2.150 -1.5630  0.3369 -0.0482
17587THY    CP335747   6.744   7.571   1.949 -0.9325  0.2127  0.0456
17587THY    HP535748   6.833   7.536   1.896  0.2899  1.7116  0.7505
17587THY    HP635749   6.657   7.554   1.885 -0.9718  0.7734 -2.3153
17587THY    HP735750   6.734   7.499   2.032  1.6854  1.2111  0.7173
17587THY    CA335751   6.893   7.648   2.212 -0.1249 -0.2886 -0.3853
17587THY    HA335752   6.803   7.614   2.261  0.8156  1.9445  0.1343
17587THY    CA435753   7.008   7.643   2.294  0.3963 -0.0442 -0.2335
17587THY    HA435754   7.003   7.609   2.397  0.8753  0.6753  1.7119
17587THY    CA535755   7.128   7.707   2.249 -0.6010 -0.9233  0.7512
17587THY    CM135756   7.245   7.716   2.351 -0.2429  0.5898  0.5540
17587THY    HM135757   7.219   7.702   2.457  3.2514  1.5456  0.2390
17587THY    HM235758   7.288   7.816   2.348 -2.1625  1.0383  1.4295
17587THY    HM335759   7.323   7.642   2.330 -2.2905  0.5589 -1.7162
17587THY    CA635760   7.137   7.767   2.125 -0.5090  0.6374  0.6565
17587THY    HA635761   7.228   7.809   2.084 -0.6645  0.1119  0.4823
17588THY      O35762   8.799   2.912   2.386  0.0972 -0.3769 -0.5941
17588THY     HO35763   8.798   3.009   2.396 -1.5238 -0.6819 -0.5476
17588THY    CA135764   8.908   2.878   2.308 -0.0296  0.5313 -0.7474
17588THY    CA235765   8.916   2.752   2.249 -0.8237 -0.1134  0.4703
17588THY    CP135766   8.804   2.651   2.272 -0.5898  0.6617 -0.3904
17588THY    HP135767   8.761   2.664   2.372  0.3152  1.2421 -1.6731
17588THY    CP235768   8.866   2.508   2.288 -0.3412 -0.5719  0.2840
17588THY    HP235769   8.800   2.439   2.343  0.2839 -0.7755 -0.4822
17588THY    HP335770   8.951   2.507   2.357 -2.3810  2.1296 -1.5133
17588THY    HP435771   8.900   2.466   2.193  1.2506 -1.0652  2.5255
17588THY    CP335772   8.709   2.661   2.158  1.1089 -0.0810  0.2580
17588THY    HP535773   8.676   2.763   2.134 -0.8825 -1.0189 -0.5587
17588THY    HP635774   8.622   2.597   2.175  1.9301 -1.3551 -1.2694
17588THY    HP735775   8.759   2.621   2.069  1.1158 -0.0627  0.2263
17588THY    CA335776   9.035   2.716   2.183  0.1017  0.1777 -0.3439
17588THY    HA335777   9.037   2.624   2.125  2.2708  0.5218 -0.5817
17588THY    CA435778   9.142   2.813   2.168  0.6358 -0.3432  0.5009
17588THY    HA435779   9.233   2.794   2.112 -0.0734 -1.9327  1.5548
17588THY    CA535780   9.123   2.943   2.227 -0.1549 -0.5634  0.5992
17588THY    CM135781   9.220   3.045   2.209 -0.2312 -0.4992  0.1372
17588THY    HM135782   9.191   3.119   2.134  3.3452  0.4010  2.7337
17588THY    HM235783   9.318   3.008   2.179  1.5570  0.8099  3.4096
17588THY    HM335784   9.240   3.115   2.292  0.2285 -1.2577  0.9262
17588THY    CA635785   9.016   2.966   2.306  0.1856 -0.5008  0.3085
17588THY    HA635786   9.013   3.068   2.345  0.5264 -1.3666  0.6599
17589THY      O35787   1.841   1.907   6.153 -1.1827  0.4206  0.2634
17589THY     HO35788   1.895   1.963   6.095 -1.3205  0.2801  0.2504
17589THY    CA135789   1.894   1.782   6.129 -0.4208 -0.2924 -0.4338
17589THY    CA235790   1.848   1.664   6.195  0.0433  0.2407 -0.4324
17589THY    CP135791   1.727   1.672   6.288  0.1458  0.1764  0.2732
17589THY    HP135792   1.694   1.777   6.286  1.0639 -3.0394  0.6093
17589THY    CP235793   1.755   1.614   6.431 -0.3931  0.5591 -0.3346
17589THY    HP235794   1.661   1.603   6.487 -1.4028 -1.5154 -3.3356
17589THY    HP335795   1.828   1.675   6.486 -0.8119  1.3506 -0.5353
17589THY    HP435796   1.801   1.515   6.424  1.4546 -1.4642  0.5964
17589THY    CP335797   1.603   1.599   6.225  0.6810 -0.6164 -0.1625
17589THY    HP535798   1.570   1.652   6.135 -0.2780 -0.8745 -1.1892
17589THY    HP635799   1.510   1.618   6.280 -0.3348 -2.7099  1.4258
17589THY    HP735800   1.620   1.491   6.217 -0.7332  1.7189 -0.6288
17589THY    CA335801   1.901   1.541   6.161 -0.3521 -0.4230  0.3991
17589THY    HA335802   1.857   1.446   6.192 -0.5295 -0.1473  0.5683
17589THY    CA435803   1.997   1.531   6.058  0.3625 -0.5772 -0.4388
17589THY    HA435804   2.040   1.432   6.046  3.0295  2.4478  0.2149
17589THY    CA535805   2.052   1.644   5.997 -0.1899 -0.5945  0.3158
17589THY    CM135806   2.162   1.639   5.895  0.4166 -0.0170 -0.6058
17589THY    HM135807   2.230   1.554   5.903  0.0783 -1.8166 -1.0841
17589THY    HM235808   2.200   1.740   5.876 -0.7156 -0.8146 -0.3159
17589THY    HM335809   2.113   1.619   5.799  1.1589 -0.4071 -0.5878
17589THY    CA635810   2.003   1.771   6.038  0.5519  0.4938  0.7372
17589THY    HA635811   2.036   1.863   5.991 -2.4930 -0.1053  1.6334
17590THY      O35812   6.179   2.240   7.407  0.0110 -0.3304  0.0058
17590THY     HO35813   6.144   2.154   7.434 -0.6591  1.6750  0.8517
17590THY    CA135814   6.073   2.306   7.376 -0.4426 -0.6197  0.4671
17590THY    CA235815   6.073   2.441   7.360 -0.0074 -0.1403 -0.1609
17590THY    CP135816   6.206   2.525   7.363  0.7317  0.4943 -0.3884
17590THY    HP135817   6.292   2.463   7.391  0.0453 -1.5969 -2.4563
17590THY    CP235818   6.200   2.651   7.448  0.7157  0.3527  0.2327
17590THY    HP235819   6.149   2.731   7.393 -0.3123  1.0165  0.0514
17590THY    HP335820   6.301   2.685   7.474  0.8261  0.9862 -0.5586
17590THY    HP435821   6.147   2.639   7.543 -3.0812 -1.4302  1.1498
17590THY    CP335822   6.260   2.576   7.222  0.5701  0.5892  0.0830
17590THY    HP535823   6.173   2.609   7.164 -0.8536  1.5945 -1.7294
17590THY    HP635824   6.295   2.487   7.168 -1.1173  1.0214 -0.8843
17590THY    HP735825   6.336   2.652   7.239 -1.7174  0.6288  2.5014
17590THY    CA335826   5.953   2.506   7.331  0.2048  0.2782 -0.6328
17590THY    HA335827   5.953   2.613   7.316  2.8679  1.0963 -0.4444
17590THY    CA435828   5.840   2.429   7.317 -0.1025  0.2758 -0.1821
17590THY    HA435829   5.750   2.475   7.276  0.5254 -1.5303 -0.4926
17590THY    CA535830   5.836   2.291   7.329  0.6188  0.2643 -0.7390
17590THY    CM135831   5.711   2.218   7.310  0.5859  0.3221 -0.1035
17590THY    HM135832   5.664   2.245   7.215  2.0209 -0.7051 -1.0218
17590THY    HM235833   5.633   2.255   7.378  0.0355 -0.2134 -0.2702
17590THY    HM335834   5.730   2.111   7.322 -1.0957  1.9916 -0.2607
17590THY    CA635835   5.957   2.229   7.355  0.2137 -0.0365 -0.1625
17590THY    HA635836   5.952   2.121   7.370  0.4665 -2.1156 -0.5115
17591THY      O35837   6.456   3.910   4.161 -0.0395 -0.0380  0.2044
17591THY     HO35838   6.459   3.817   4.135 -1.0482  0.1975  0.0932
17591THY    CA135839   6.459   3.968   4.037  0.1811 -0.9061 -0.2857
17591THY    CA235840   6.402   4.094   4.009  0.1464  0.0000  1.1669
17591THY    CP135841   6.333   4.176   4.120 -0.8419 -0.8469  0.7164
17591THY    HP135842   6.309   4.105   4.200  0.0981 -2.0619 -1.0407
17591THY    CP235843   6.199   4.240   4.080  0.0651 -0.1908 -0.6027
17591THY    HP235844   6.139   4.172   4.018 -0.5023 -0.4073  0.0701
17591THY    HP335845   6.217   4.329   4.018 -0.9817 -1.3890 -1.1710
17591THY    HP435846   6.150   4.276   4.171 -1.2414 -1.4746  1.0420
17591THY    CP335847   6.417   4.284   4.187 -0.2170 -0.0126 -0.0718
17591THY    HP535848   6.417   4.372   4.122  0.4205 -1.0646 -0.8242
17591THY    HP635849   6.520   4.248   4.195  0.2705 -0.9599  1.0333
17591THY    HP735850   6.380   4.322   4.282 -0.5479 -0.1291 -0.0952
17591THY    CA335851   6.416   4.154   3.884 -0.3395  0.5226 -0.5786
17591THY    HA335852   6.383   4.255   3.859  1.3145  0.8000  0.0635
17591THY    CA435853   6.493   4.086   3.785 -0.4499  0.3277 -0.0448
17591THY    HA435854   6.516   4.135   3.691 -0.5720  0.3470  0.0509
17591THY    CA535855   6.553   3.961   3.813 -0.2593 -0.0355 -0.1430
17591THY    CM135856   6.622   3.886   3.709  0.3870  0.2309  0.0196
17591THY    HM135857   6.565   3.797   3.679 -1.8940  0.5494  1.3012
17591THY    HM235858   6.721   3.865   3.749 -0.2250  1.0578 -1.4458
17591THY    HM335859   6.627   3.948   3.618 -1.2295  0.2893  0.2977
17591THY    CA635860   6.530   3.903   3.935 -0.2157 -0.8705 -0.0639
17591THY    HA635861   6.571   3.806   3.959 -0.7356 -2.5590 -0.7370
17592THY      O35862   3.606   3.460   6.472 -0.0541 -0.1420  0.0225
17592THY     HO35863   3.581   3.545   6.432 -0.0332  0.9890  0.5844
17592THY    CA135864   3.738   3.465   6.503  0.3907  0.5846 -0.6171
17592THY    CA235865   3.828   3.393   6.420 -0.9511 -0.3489 -0.2783
17592THY    CP135866   3.770   3.293   6.316  0.7609  0.1581 -0.3845
17592THY    HP135867   3.682   3.341   6.272 -0.2168  2.7342  0.3868
17592THY    CP235868   3.720   3.164   6.378  0.1789  0.4926  0.0292
17592THY    HP235869   3.796   3.110   6.436  0.7422  1.1303  1.4611
17592THY    HP335870   3.689   3.112   6.286 -1.1311  0.2630  1.1764
17592THY    HP435871   3.634   3.190   6.441 -0.0608  0.4627 -0.6684
17592THY    CP335872   3.865   3.264   6.195  0.4609 -0.4210 -0.5201
17592THY    HP535873   3.955   3.209   6.223  0.6401 -0.5317 -0.2836
17592THY    HP635874   3.898   3.365   6.168 -0.5376  2.3422  0.6450
17592THY    HP735875   3.807   3.216   6.115  0.4412 -0.1313 -0.9887
17592THY    CA335876   3.969   3.392   6.440  0.7865  0.2745  1.2312
17592THY    HA335877   4.036   3.338   6.375 -2.6903 -3.0288  0.4560
17592THY    CA435878   4.012   3.461   6.548 -0.4186  0.0313  0.4946
17592THY    HA435879   4.119   3.467   6.564 -0.2911 -0.4019 -0.4518
17592THY    CA535880   3.927   3.541   6.632  0.6779 -0.0129  0.7949
17592THY    CM135881   3.986   3.630   6.741 -0.1134  0.2280  0.3695
17592THY    HM135882   4.091   3.615   6.768  1.0608 -3.6898  0.4804
17592THY    HM235883   3.917   3.626   6.826 -0.5038 -0.0847  0.4044
17592THY    HM335884   3.994   3.731   6.700  0.1260  2.1931  1.1881
17592THY    CA635885   3.791   3.547   6.603  0.4569 -0.4267  0.5209
17592THY    HA635886   3.729   3.597   6.677  2.0829  0.9148  0.5992
17593THY      O35887   2.987   0.599   2.564 -0.6922  0.9990  0.2288
17593THY     HO35888   2.946   0.680   2.530  0.2835  1.5918  0.9872
17593THY    CA135889   3.119   0.625   2.543 -0.1504  0.0722  0.1847
17593THY    CA235890   3.217   0.523   2.533  0.7832 -0.7417  0.1771
17593THY    CP135891   3.180   0.378   2.520  0.8157 -0.5089 -0.2563
17593THY    HP135892   3.084   0.372   2.467  0.4442 -0.1748  2.0586
17593THY    CP235893   3.146   0.324   2.661  0.4056 -0.2576 -0.1296
17593THY    HP235894   3.108   0.222   2.649  1.1623 -0.9735 -0.3362
17593THY    HP335895   3.069   0.385   2.711  0.2053  0.4946 -0.9566
17593THY    HP435896   3.234   0.341   2.724  1.3846 -1.9896  1.6137
17593THY    CP335897   3.268   0.283   2.445  0.3879 -0.2264  0.4066
17593THY    HP535898   3.331   0.335   2.372  0.0969 -1.4563 -0.9020
17593THY    HP635899   3.214   0.208   2.386  1.5849  0.5770 -1.1718
17593THY    HP735900   3.337   0.235   2.516 -0.1246  0.0988  0.1529
17593THY    CA335901   3.347   0.549   2.533 -0.0607 -0.0289 -0.2119
17593THY    HA335902   3.417   0.467   2.522  0.6465 -1.0837  0.5085
17593THY    CA435903   3.395   0.682   2.528 -0.8373 -0.6010 -0.2896
17593THY    HA435904   3.502   0.697   2.526 -0.5416  1.4850 -1.6851
17593THY    CA535905   3.299   0.786   2.548 -1.2154 -0.3173 -0.6763
17593THY    CM135906   3.344   0.931   2.560 -0.5823 -0.6747  0.6378
17593THY    HM135907   3.282   0.997   2.497  0.6989  0.6162  3.2310
17593THY    HM235908   3.447   0.944   2.525 -0.9044 -2.1987 -0.5799
17593THY    HM335909   3.322   0.978   2.657  1.3018 -0.6679  1.6000
17593THY    CA635910   3.162   0.759   2.554 -0.2966 -0.3240  0.2109
17593THY    HA635911   3.091   0.831   2.595  0.3989  0.4352  0.4817
17594THY      O35912   7.616   5.319   3.231  0.2978 -0.1010  0.4455
17594THY     HO35913   7.543   5.308   3.294 -0.0239 -0.7564 -1.5812
17594THY    CA135914   7.543   5.362   3.121 -0.3143 -0.2977 -0.1171
17594THY    CA235915   7.595   5.379   2.990 -0.5852  1.0226  0.5730
17594THY    CP135916   7.739   5.340   2.942  0.0802 -0.2635 -1.1365
17594THY    HP135917   7.793   5.307   3.032  1.2299 -0.5382 -0.0895
17594THY    CP235918   7.814   5.472   2.910  0.4447  0.1245  0.4977
17594THY    HP235919   7.774   5.513   2.817 -0.4018 -0.4474 -1.5097
17594THY    HP335920   7.920   5.446   2.892  0.7244  0.5717  1.3128
17594THY    HP435921   7.804   5.542   2.993  2.5773 -0.0481  1.0784
17594THY    CP335922   7.742   5.234   2.833  0.2974  0.3208  0.2950
17594THY    HP535923   7.680   5.147   2.855  0.3991 -1.7885 -0.3891
17594THY    HP635924   7.840   5.187   2.817 -0.0140 -1.5410  0.1991
17594THY    HP735925   7.701   5.273   2.739  0.1633 -0.1116 -0.8321
17594THY    CA335926   7.508   5.421   2.892  1.0490 -0.2587  0.0304
17594THY    HA335927   7.542   5.424   2.789  1.2171 -0.1808  1.2542
17594THY    CA435928   7.375   5.476   2.929 -0.7086  0.0383 -0.7280
17594THY    HA435929   7.316   5.529   2.854  1.5401  0.8448  3.3816
17594THY    CA535930   7.333   5.475   3.056  0.0428  0.4124 -0.3335
17594THY    CM135931   7.199   5.556   3.089 -0.2635 -0.0899  1.0326
17594THY    HM135932   7.168   5.539   3.193 -0.0098 -0.3445 -1.4685
17594THY    HM235933   7.119   5.536   3.016 -1.4317  0.8789  2.0073
17594THY    HM335934   7.225   5.662   3.082  2.2857  2.6056  0.6959
17594THY    CA635935   7.419   5.416   3.152  0.2630  0.2309 -0.1983
17594THY    HA635936   7.388   5.423   3.256  2.0194  0.9534 -2.1816
17595THY      O35937   1.686   5.757   4.009 -0.1754 -0.0166 -0.2868
17595THY     HO35938   1.625   5.692   4.046 -0.3495  1.0774  0.4519
17595THY    CA135939   1.811   5.706   4.008 -0.3488  0.4813 -0.4772
17595THY    CA235940   1.919   5.790   3.985  0.4653  0.2693 -0.0196
17595THY    CP135941   1.917   5.946   3.977 -0.8434  0.6343 -0.2690
17595THY    HP135942   1.810   5.971   3.975 -0.5849 -0.7189  0.8198
17595THY    CP235943   1.995   6.018   3.870 -0.3926  0.5666 -0.1504
17595THY    HP235944   1.975   6.126   3.878 -2.2010  1.6306 -0.5347
17595THY    HP335945   1.966   5.983   3.770 -2.9398  0.9586  0.6781
17595THY    HP435946   2.104   6.005   3.879 -0.6655  1.0615 -2.6367
17595THY    CP335947   1.972   6.008   4.106  0.1659 -0.3905 -0.4217
17595THY    HP535948   1.952   6.115   4.097  1.2053  2.1343  0.0723
17595THY    HP635949   2.081   6.002   4.118  0.2370 -0.4995  0.4676
17595THY    HP735950   1.933   5.960   4.197  2.9104  0.3886 -1.3990
17595THY    CA335951   2.044   5.723   3.986 -0.1240  0.0086 -0.0585
17595THY    HA335952   2.134   5.784   3.982 -1.3445 -4.9097  1.8983
17595THY    CA435953   2.055   5.584   4.009  0.1013 -0.9034 -0.4648
17595THY    HA435954   2.154   5.539   4.006 -0.9219 -0.0914 -2.9485
17595THY    CA535955   1.942   5.500   4.029  0.0177  0.4622 -0.7206
17595THY    CM135956   1.942   5.357   4.062 -0.6694 -0.0416 -0.2209
17595THY    HM135957   1.845   5.306   4.066  0.0008  1.6696 -1.4533
17595THY    HM235958   1.997   5.355   4.157  1.5392 -1.2390 -0.3166
17595THY    HM335959   1.995   5.298   3.986 -0.4565 -2.4145  2.8249
17595THY    CA635960   1.815   5.565   4.022  0.3303 -0.3325 -0.1721
17595THY    HA635961   1.726   5.503   4.028 -0.4889  2.2187  1.1193
17596THY      O35962   5.534   9.082   4.595 -0.0226  0.2433  0.3313
17596THY     HO35963   5.552   9.176   4.574 -0.2780 -2.0022 -0.0858
17596THY    CA135964   5.614   9.010   4.522 -0.7180 -0.3654  0.0905
17596THY    CA235965   5.687   8.888   4.562  0.4899  0.2437 -0.0054
17596THY    CP135966   5.688   8.839   4.711 -0.2773  0.1054 -0.4874
17596THY    HP135967   5.654   8.922   4.773  0.4594  0.9899 -0.8401
17596THY    CP235968   5.825   8.801   4.767 -0.0793  0.0161  0.0278
17596THY    HP235969   5.836   8.830   4.872  0.9348 -0.1271  0.1818
17596THY    HP335970   5.896   8.868   4.717  0.1629  0.0937 -0.1722
17596THY    HP435971   5.857   8.697   4.758  2.0130 -0.6888  0.6746
17596THY    CP335972   5.596   8.724   4.727 -0.1895 -0.1281 -0.4416
17596THY    HP535973   5.613   8.679   4.826  0.4272 -0.4614 -0.9771
17596THY    HP635974   5.614   8.637   4.663  1.0235 -1.0252  0.4313
17596THY    HP735975   5.495   8.764   4.715 -0.4846  1.2053 -0.7519
17596THY    CA335976   5.763   8.814   4.474  0.4112  0.3968  0.7402
17596THY    HA335977   5.816   8.725   4.507  0.6163 -1.7718  0.0009
17596THY    CA435978   5.784   8.869   4.346 -0.0780 -0.0437  0.3320
17596THY    HA435979   5.850   8.818   4.277  0.1108  0.5734 -0.2649
17596THY    CA535980   5.724   8.989   4.309  0.2553 -0.5428  0.2988
17596THY    CM135981   5.754   9.051   4.182 -0.9882  0.4377 -0.2360
17596THY    HM135982   5.861   9.075   4.182  0.2005 -1.4310 -4.6622
17596THY    HM235983   5.709   9.152   4.178 -2.5577 -1.0132 -0.9424
17596THY    HM335984   5.720   8.993   4.096  1.1186 -1.5057  1.2315
17596THY    CA635985   5.633   9.059   4.397  0.0383  0.3979 -0.0702
17596THY    HA635986   5.580   9.149   4.368  0.3026  0.4116  0.0897
17597THY      O35987   1.577   1.140   7.246 -0.2714 -0.1675  0.5994
17597THY     HO35988   1.588   1.233   7.271  1.6331 -0.0849  0.3958
17597THY    CA135989   1.625   1.075   7.356  0.0416  0.3742  0.1825
17597THY    CA235990   1.685   0.944   7.350  0.0123 -0.1932 -0.4371
17597THY    CP135991   1.684   0.859   7.216  0.0661 -0.6351 -0.0789
17597THY    HP135992   1.604   0.903   7.154  0.3435  0.5094  2.1986
17597THY    CP235993   1.628   0.710   7.245 -0.3605  0.7006 -0.4166
17597THY    HP235994   1.610   0.666   7.147 -0.9786  0.5732  0.1047
17597THY    HP335995   1.536   0.709   7.305 -1.1683 -0.4694  1.0176
17597THY    HP435996   1.711   0.645   7.276 -0.3252 -0.6334 -1.0234
17597THY    CP335997   1.817   0.860   7.139 -0.1720  0.1685 -0.2405
17597THY    HP535998   1.890   0.797   7.190 -0.1189  0.7222  0.2599
17597THY    HP635999   1.847   0.964   7.152 -1.9455 -0.2693  0.3712
17597THY    HP736000   1.804   0.840   7.032 -0.1544  0.4928 -2.1245
17597THY    CA336001   1.726   0.888   7.473  0.5189 -0.3277 -0.1288
17597THY    HA336002   1.757   0.784   7.469 -0.5928  1.7973 -0.5935
17597THY    CA436003   1.697   0.946   7.596 -0.2432 -0.7858  0.4594
17597THY    HA436004   1.721   0.898   7.691 -0.1469 -1.6302 -1.2543
17597THY    CA536005   1.640   1.075   7.598  0.3014 -0.4487  0.4671
17597THY    CM136006   1.622   1.151   7.723 -0.1056 -0.5473  0.4227
17597THY    HM136007   1.688   1.108   7.799 -0.0524 -0.6866  0.2574
17597THY    HM236008   1.519   1.152   7.760  0.4850  1.2040  0.0438
17597THY    HM336009   1.656   1.256   7.721  3.7547  0.4550 -0.6733
17597THY    CA636010   1.604   1.135   7.476  0.1154 -0.6270 -1.1822
17597THY    HA636011   1.572   1.238   7.489  1.5055  1.0879 -0.9266
17598THY      O36012   3.075   4.380   4.043 -0.5679  0.5065 -0.0502
17598THY     HO36013   3.038   4.295   4.071  1.5009  1.5610 -0.6691
17598THY    CA136014   2.986   4.464   4.097  0.0339  0.3673 -0.1787
17598THY    CA236015   3.020   4.591   4.119 -0.2926 -0.9275 -0.7141
17598THY    CP136016   3.157   4.647   4.076  0.7061 -0.3784  0.4533
17598THY    HP136017   3.188   4.584   3.991  2.1053  2.4188 -2.9550
17598THY    CP236018   3.254   4.630   4.187  0.1271 -0.0749  0.2755
17598THY    HP236019   3.212   4.629   4.287  1.3213  0.4500 -0.7600
17598THY    HP336020   3.331   4.709   4.191  0.3106  0.0051  0.0944
17598THY    HP436021   3.308   4.535   4.180 -0.4758  0.7928 -0.1353
17598THY    CP336022   3.155   4.791   4.028  0.2088  0.4805 -0.1891
17598THY    HP536023   3.177   4.854   4.115 -0.3122  1.0296 -0.7485
17598THY    HP636024   3.066   4.831   3.979  1.2577 -0.3400  1.2206
17598THY    HP736025   3.237   4.816   3.960  0.2226  1.3835  2.5535
17598THY    CA336026   2.919   4.679   4.166  0.0376  0.8404 -0.1978
17598THY    HA336027   2.943   4.785   4.164  0.3894  1.8033 -0.2510
17598THY    CA436028   2.803   4.629   4.213  0.8249  0.2665  0.0952
17598THY    HA436029   2.733   4.701   4.256  2.3220 -0.2487  1.9334
17598THY    CA536030   2.782   4.493   4.219 -0.8531  0.3032 -0.1626
17598THY    CM136031   2.660   4.422   4.288  0.1396  0.1526  0.2298
17598THY    HM136032   2.678   4.314   4.296 -2.3246  3.3739 -0.1207
17598THY    HM236033   2.570   4.434   4.226 -0.9710  1.9606  1.9677
17598THY    HM336034   2.628   4.462   4.385  1.0820  0.7527 -0.4276
17598THY    CA636035   2.875   4.414   4.162  0.0934  0.2342  0.4753
17598THY    HA636036   2.852   4.308   4.156 -0.8119  0.8405  0.6325
17599THY      O36037   1.927   8.199   3.344  0.3559 -0.0028  0.6900
17599THY     HO36038   1.954   8.283   3.387  0.4707  3.6516 -1.0188
17599THY    CA136039   2.018   8.102   3.367  0.6308  0.5560  0.4533
17599THY    CA236040   1.977   7.972   3.405 -0.2021 -0.1115  0.3918
17599THY    CP136041   1.833   7.947   3.433  1.4322  0.4439  0.5437
17599THY    HP136042   1.760   8.010   3.382 -0.5691  2.2979 -0.1859
17599THY    CP236043   1.791   7.977   3.576  0.1187  0.1107  0.1857
17599THY    HP236044   1.681   7.977   3.582  0.1527  1.1426  1.6009
17599THY    HP336045   1.829   8.075   3.607 -0.2824 -3.2210  1.5246
17599THY    HP436046   1.827   7.905   3.651 -2.8283  0.3319 -1.2089
17599THY    CP336047   1.788   7.811   3.383  0.3322  0.4884 -0.3714
17599THY    HP536048   1.849   7.724   3.408  0.6289 -0.6165 -0.5008
17599THY    HP636049   1.807   7.820   3.276  4.0250  1.1743  2.0559
17599THY    HP736050   1.682   7.790   3.402  0.0038  1.3759  1.7357
17599THY    CA336051   2.081   7.880   3.431  0.5213 -0.0251  0.1573
17599THY    HA336052   2.045   7.788   3.476 -0.8128 -0.5473  0.3970
17599THY    CA436053   2.220   7.916   3.421 -0.6746  0.5303  0.1939
17599THY    HA436054   2.298   7.844   3.446 -2.8453  0.7254 -2.2526
17599THY    CA536055   2.244   8.045   3.372 -0.3898  0.0200  0.5141
17599THY    CM136056   2.390   8.087   3.353 -0.0475 -0.8306 -0.2635
17599THY    HM136057   2.417   8.117   3.251  3.6940  0.1234  0.1165
17599THY    HM236058   2.462   8.005   3.358 -0.5657  0.5889 -0.6685
17599THY    HM336059   2.419   8.162   3.428 -0.9347 -0.9535  0.2175
17599THY    CA636060   2.141   8.132   3.339 -0.1149  0.0486 -0.1655
17599THY    HA636061   2.166   8.226   3.293  0.3810  0.2406 -0.2005
17600THY      O36062   8.633   1.903   4.371  0.1348 -0.1897  0.4500
17600THY     HO36063   8.578   1.944   4.440 -0.2725 -1.5631  2.3138
17600THY    CA136064   8.546   1.831   4.295  0.3349  0.5607  0.0678
17600THY    CA236065   8.599   1.740   4.204 -0.3583 -0.2542 -0.2163
17600THY    CP136066   8.748   1.719   4.178 -0.2698 -1.0208  0.3166
17600THY    HP136067   8.808   1.752   4.264  3.0822 -2.8564 -0.5821
17600THY    CP236068   8.801   1.794   4.065 -0.8199  0.1724  0.2591
17600THY    HP236069   8.747   1.761   3.975  0.3767 -0.1693 -0.8377
17600THY    HP336070   8.901   1.757   4.037 -0.1574  1.1985  1.2108
17600THY    HP436071   8.800   1.903   4.078 -2.1405 -0.2171  0.3052
17600THY    CP336072   8.779   1.565   4.167 -0.0064 -0.7592 -0.0015
17600THY    HP536073   8.769   1.539   4.061  0.3790 -0.6691 -0.5302
17600THY    HP636074   8.705   1.511   4.227 -1.2611 -2.5130 -0.3170
17600THY    HP736075   8.879   1.549   4.210  0.2327 -0.3453  2.2678
17600THY    CA336076   8.508   1.680   4.115  0.3496  0.0597  0.1835
17600THY    HA336077   8.551   1.616   4.038  0.9778 -0.6384  1.3889
17600THY    CA436078   8.375   1.703   4.122 -0.2621 -0.5080 -1.0370
17600THY    HA436079   8.301   1.662   4.055  0.7532 -2.5748  0.3520
17600THY    CA536080   8.325   1.786   4.226  0.8620 -0.2679  1.3453
17600THY    CM136081   8.180   1.810   4.242 -0.6648  0.0192  0.7557
17600THY    HM136082   8.133   1.784   4.338 -0.9172  0.9441  4.1130
17600THY    HM236083   8.114   1.785   4.158 -0.1719  0.0822 -0.8360
17600THY    HM336084   8.179   1.920   4.231  0.5912  1.3269  0.9206
17600THY    CA636085   8.409   1.854   4.317 -0.0326 -0.5646 -0.0963
17600THY    HA636086   8.364   1.920   4.390 -0.9229 -1.9765  0.9263
17601THY      O36087   4.760   3.338   1.862 -0.3243 -0.5410  0.3013
17601THY     HO36088   4.682   3.280   1.872 -0.3068  1.3262  0.5473
17601THY    CA136089   4.846   3.290   1.958  0.8848  0.1032 -0.1722
17601THY    CA236090   4.922   3.376   2.048  0.3839  0.5546  0.5089
17601THY    CP136091   4.922   3.529   2.027 -0.2029 -0.8671 -0.2784
17601THY    HP136092   4.828   3.563   1.981 -0.7796  0.5340  0.1062
17601THY    CP236093   5.035   3.572   1.934  0.1219 -0.1130 -0.5604
17601THY    HP236094   4.996   3.542   1.836 -1.1317  0.2756 -0.2359
17601THY    HP336095   5.130   3.517   1.943 -0.0377  0.1065 -0.8008
17601THY    HP436096   5.049   3.681   1.945  0.2463 -1.0627 -0.4726
17601THY    CP336097   4.929   3.607   2.157  0.0443  0.4981 -0.3051
17601THY    HP536098   5.034   3.618   2.185  0.9953 -1.9435 -2.3382
17601THY    HP636099   4.874   3.565   2.242  0.1530 -0.3848 -2.3125
17601THY    HP736100   4.883   3.707   2.152 -2.5135  1.3240 -1.3505
17601THY    CA336101   5.001   3.322   2.152  0.8310 -0.6207 -0.5650
17601THY    HA336102   5.057   3.379   2.225 -0.6220 -0.7326  1.0791
17601THY    CA436103   5.005   3.181   2.157 -0.2639  0.6862 -0.4294
17601THY    HA436104   5.076   3.129   2.220 -0.8630  0.8529 -1.0545
17601THY    CA536105   4.934   3.100   2.075  0.5158  0.2666 -0.1878
17601THY    CM136106   4.941   2.953   2.096  0.2607  0.5212  0.2435
17601THY    HM136107   4.836   2.924   2.110  0.4797 -0.3925 -1.0962
17601THY    HM236108   4.984   2.913   2.188  0.2371  0.3076 -0.2705
17601THY    HM336109   4.971   2.895   2.008  0.3794 -0.1898  1.3507
17601THY    CA636110   4.848   3.153   1.986  0.0211  0.1470 -0.2277
17601THY    HA636111   4.791   3.089   1.919 -2.7262  1.0327  1.1314
17602THY      O36112   8.676   8.721   3.483  0.2975 -0.4708  0.0481
17602THY     HO36113   8.759   8.698   3.438  2.3603  2.5008  1.0621
17602THY    CA136114   8.680   8.657   3.610  1.2265  0.5367 -0.4524
17602THY    CA236115   8.583   8.674   3.706  0.5376 -0.1121 -0.2083
17602THY    CP136116   8.451   8.754   3.682  0.3542 -0.0912  0.4443
17602THY    HP136117   8.472   8.834   3.610 -2.9466  1.3309  2.8377
17602THY    CP236118   8.409   8.826   3.824  0.4612  0.6185 -0.4041
17602THY    HP236119   8.325   8.888   3.790  0.6499  1.0605  0.0920
17602THY    HP336120   8.481   8.890   3.876  0.2504 -0.5660  0.8256
17602THY    HP436121   8.376   8.752   3.898  0.8947  1.5594  0.3254
17602THY    CP336122   8.335   8.670   3.627  0.5036 -0.0254  0.0634
17602THY    HP536123   8.360   8.639   3.525 -1.5826 -1.1582  1.8424
17602THY    HP636124   8.240   8.725   3.621 -0.1458 -0.8091 -1.1130
17602THY    HP736125   8.326   8.583   3.693  2.5204  1.1341  0.6569
17602THY    CA336126   8.575   8.577   3.812  0.0257 -0.3709 -0.9754
17602THY    HA336127   8.491   8.574   3.881 -0.7579 -1.1478  1.4193
17602THY    CA436128   8.681   8.488   3.833 -0.1728  0.2299 -0.3532
17602THY    HA436129   8.670   8.412   3.909 -3.0414 -1.2454 -1.5542
17602THY    CA536130   8.786   8.485   3.744 -0.1513  0.8293  0.0806
17602THY    CM136131   8.886   8.380   3.760 -0.1757  0.2388  0.3173
17602THY    HM136132   8.900   8.351   3.865  1.1357 -0.2255 -0.8008
17602THY    HM236133   8.975   8.407   3.703 -0.3050  0.2770  0.8318
17602THY    HM336134   8.849   8.292   3.706 -1.0001  1.1903  0.0498
17602THY    CA636135   8.781   8.562   3.624 -0.4270 -0.5259 -0.5352
17602THY    HA636136   8.861   8.557   3.550 -0.8809 -1.1159  0.5137
17603THY      O36137   5.227   0.648   5.068  0.1850 -0.6073 -0.0893
17603THY     HO36138   5.284   0.692   5.133  1.9456 -1.2180 -1.3117
17603THY    CA136139   5.178   0.750   5.004  0.5600  0.3080 -0.8196
17603THY    CA236140   5.048   0.741   4.948  0.2176 -0.3718  0.1365
17603THY    CP136141   4.975   0.606   4.950 -0.2895 -0.0519  0.2286
17603THY    HP136142   5.025   0.527   5.008 -3.1478  2.0535 -0.1715
17603THY    CP236143   4.954   0.560   4.798 -0.1380 -0.6464  0.0590
17603THY    HP236144   4.881   0.478   4.791 -3.3333 -1.4341  2.7689
17603THY    HP336145   5.046   0.513   4.762  0.2010 -0.9538  0.9508
17603THY    HP436146   4.931   0.644   4.731 -1.4466  0.3885  0.5709
17603THY    CP336147   4.834   0.617   5.017 -0.3918  0.4871 -0.7480
17603THY    HP536148   4.777   0.694   4.965  0.2534 -0.9423 -1.1909
17603THY    HP636149   4.843   0.637   5.124 -0.0488  0.0131  1.9929
17603THY    HP736150   4.778   0.525   4.997 -0.2490 -2.3875 -0.3269
17603THY    CA336151   4.989   0.862   4.903  0.5464  0.5185 -0.1811
17603THY    HA336152   4.887   0.856   4.865  0.5880  0.5979 -1.6869
17603THY    CA436153   5.052   0.985   4.916  0.9098  0.0726  0.3126
17603THY    HA436154   4.994   1.070   4.880  0.4632  0.1028  0.0231
17603THY    CA536155   5.186   0.999   4.974  0.0237  0.2415 -0.2596
17603THY    CM136156   5.250   1.133   4.996  0.3350  0.1658 -0.7895
17603THY    HM136157   5.188   1.216   5.032  1.5960  0.0204  0.2485
17603THY    HM236158   5.320   1.154   4.914 -0.4666 -0.3818 -0.2113
17603THY    HM336159   5.317   1.115   5.081  1.4739 -0.0806  1.8244
17603THY    CA636160   5.245   0.879   5.018 -0.7429 -0.5173  1.2606
17603THY    HA636161   5.338   0.880   5.074 -0.1147 -1.5015  0.1718
17604THY      O36162   4.312   4.200   3.632 -0.0101  0.6768  0.3741
17604THY     HO36163   4.295   4.180   3.726 -1.0768  0.3590 -0.2804
17604THY    CA136164   4.364   4.099   3.566 -0.2290 -0.2883  0.6405
17604THY    CA236165   4.392   4.107   3.426  0.7068 -0.8833  0.6161
17604THY    CP136166   4.348   4.227   3.342 -0.3310  0.1614 -0.1471
17604THY    HP136167   4.311   4.304   3.411 -0.2838 -0.5188  0.4951
17604THY    CP236168   4.232   4.198   3.256  0.5056  0.3810 -0.5369
17604THY    HP236169   4.243   4.108   3.195  0.1826  0.5827 -0.7167
17604THY    HP336170   4.213   4.286   3.192  0.8198  0.2083 -0.5961
17604THY    HP436171   4.152   4.173   3.327  1.3857  1.5510 -0.1017
17604THY    CP336172   4.475   4.295   3.272  0.3227 -0.3351  0.6854
17604THY    HP536173   4.539   4.218   3.229  1.1256  1.3583  0.3696
17604THY    HP636174   4.530   4.334   3.359  1.2859 -0.3975 -0.4783
17604THY    HP736175   4.455   4.381   3.206  1.0109 -1.7535 -0.1988
17604THY    CA336176   4.446   3.999   3.357  0.2907  0.1679  0.0597
17604THY    HA336177   4.455   4.005   3.249 -4.2714 -0.3910  0.4651
17604THY    CA436178   4.477   3.884   3.431 -0.3202 -0.2660 -0.1706
17604THY    HA436179   4.521   3.801   3.376  1.6015  0.3669  0.3690
17604THY    CA536180   4.450   3.877   3.567  0.2947  0.1937 -0.4216
17604THY    CM136181   4.484   3.753   3.637  0.5969 -0.7997 -0.5112
17604THY    HM136182   4.471   3.769   3.744 -2.2250 -1.5319  3.6840
17604THY    HM236183   4.587   3.738   3.601  0.3840 -1.6582  0.0065
17604THY    HM336184   4.419   3.669   3.611 -1.6308  1.9093  0.2579
17604THY    CA636185   4.385   3.979   3.637 -0.6489  0.4381  0.3677
17604THY    HA636186   4.367   3.973   3.744 -1.0715  0.3645  0.2979
17605THY      O36187   8.468   5.026   4.321  0.1060 -0.6428 -0.3781
17605THY     HO36188   8.426   4.943   4.293 -0.8795 -1.6088  0.4320
17605THY    CA136189   8.421   5.111   4.224  0.6000 -0.8743  0.0524
17605THY    CA236190   8.503   5.163   4.128 -0.7062  0.1030 -0.5137
17605THY    CP136191   8.650   5.118   4.117  0.4058  0.0597  0.5542
17605THY    HP136192   8.690   5.103   4.218 -0.1037 -0.1303 -3.1130
17605THY    CP236193   8.754   5.213   4.056  0.0156 -0.5152  0.5816
17605THY    HP236194   8.717   5.254   3.961 -2.9915 -0.2379 -1.1803
17605THY    HP336195   8.852   5.164   4.052 -0.5024 -0.5875 -0.4807
17605THY    HP436196   8.757   5.300   4.122 -3.0522  0.7821 -0.1806
17605THY    CP336197   8.655   4.971   4.070  0.2327 -0.1487  0.1316
17605THY    HP536198   8.748   4.921   4.099 -0.9186  0.1031 -1.9438
17605THY    HP636199   8.630   4.956   3.964  0.6981 -0.5705  1.9985
17605THY    HP736200   8.575   4.913   4.117  0.7059  0.2670 -0.1976
17605THY    CA336201   8.446   5.256   4.034 -0.4030 -0.6529 -0.4757
17605THY    HA336202   8.502   5.309   3.958 -2.0926  0.0564  2.5564
17605THY    CA436203   8.310   5.287   4.037  0.1021 -0.1733 -0.4497
17605THY    HA436204   8.275   5.362   3.967  1.3964  1.7959  2.1338
17605THY    CA536205   8.225   5.225   4.129  0.3943  0.2347 -0.3518
17605THY    CM136206   8.080   5.239   4.124  0.4919 -0.1127 -0.0121
17605THY    HM136207   8.039   5.326   4.071 -2.7211  0.0938 -1.2426
17605THY    HM236208   8.043   5.258   4.226  0.3574 -0.2820  0.6501
17605THY    HM336209   8.032   5.152   4.078  0.4742 -0.3154  0.1045
17605THY    CA636210   8.283   5.133   4.214 -0.4689 -0.6200  0.0585
17605THY    HA636211   8.219   5.076   4.280 -0.1350  0.1962  0.6028
17606THY      O36212   6.684   6.557   5.405 -0.3694  0.2013 -0.2649
17606THY     HO36213   6.775   6.583   5.430 -0.2179  0.6332 -1.1930
17606THY    CA136214   6.670   6.574   5.278  0.1293  0.3372 -0.0596
17606THY    CA236215   6.548   6.551   5.219 -0.4713 -0.6825  0.2293
17606THY    CP136216   6.430   6.493   5.297 -0.7044 -0.2806  0.0793
17606THY    HP136217   6.461   6.443   5.390 -0.2048  0.1541  1.1476
17606THY    CP236218   6.345   6.381   5.230  0.7844 -0.9820 -0.2648
17606THY    HP236219   6.410   6.300   5.197  2.0305  0.3745  0.1250
17606THY    HP336220   6.298   6.411   5.136 -0.9828 -0.3114 -0.8495
17606THY    HP436221   6.276   6.342   5.305  1.5127 -0.1225  0.0546
17606THY    CP336222   6.341   6.610   5.350  0.0545  0.0109 -0.1581
17606THY    HP536223   6.414   6.664   5.413  0.1174  0.8608 -1.2128
17606THY    HP636224   6.257   6.587   5.416 -0.7961 -0.5378  1.2495
17606THY    HP736225   6.313   6.664   5.259  2.8639 -1.3318 -0.7327
17606THY    CA336226   6.533   6.565   5.085 -0.6450  0.9607 -0.1181
17606THY    HA336227   6.437   6.563   5.035  0.1035 -0.5391 -1.3819
17606THY    CA436228   6.648   6.605   5.008 -0.2448 -0.3069  0.0501
17606THY    HA436229   6.635   6.622   4.902 -0.2660 -0.6438 -1.8056
17606THY    CA536230   6.780   6.616   5.069  0.2541  0.8054  0.8570
17606THY    CM136231   6.910   6.637   4.995 -0.5522  0.7523 -0.4117
17606THY    HM136232   6.970   6.719   5.034  0.0195 -0.6663 -0.1137
17606THY    HM236233   6.882   6.638   4.889  0.3407  0.5043 -0.5330
17606THY    HM336234   6.975   6.551   5.016 -1.6144  0.3420 -1.3342
17606THY    CA636235   6.784   6.603   5.207 -0.6279  0.2741 -0.1059
17606THY    HA636236   6.881   6.608   5.256 -0.7566  0.5272 -0.1163
17607THY      O36237   3.255   3.613   4.973 -0.3837  0.0952  0.4953
17607THY     HO36238   3.314   3.671   4.921  1.2167  1.1650 -0.1079
17607THY    CA136239   3.155   3.600   4.887  0.5187  0.7045  0.4439
17607THY    CA236240   3.038   3.526   4.914 -0.0594  0.6801 -0.4338
17607THY    CP136241   3.023   3.453   5.049 -0.1309 -0.1807 -0.3547
17607THY    HP136242   3.122   3.410   5.070  0.8483 -0.4840  1.6588
17607THY    CP236243   2.925   3.338   5.041  0.1089 -0.2638 -0.4515
17607THY    HP236244   2.827   3.369   5.004  1.3015 -2.5535  0.8415
17607THY    HP336245   2.905   3.304   5.143 -1.0729 -0.4942 -0.4950
17607THY    HP436246   2.963   3.271   4.963  0.7841 -1.2944  1.0638
17607THY    CP336247   2.979   3.551   5.165  0.0141 -0.7603 -0.3598
17607THY    HP536248   2.920   3.511   5.249  0.0938 -0.6198 -0.1860
17607THY    HP636249   2.899   3.609   5.117 -0.8976 -0.6074 -1.4710
17607THY    HP736250   3.064   3.609   5.202 -0.5617  1.8626 -1.0652
17607THY    CA336251   2.942   3.511   4.809 -0.1178  0.0251  0.3202
17607THY    HA336252   2.860   3.440   4.818 -0.7748  1.2400  1.1994
17607THY    CA436253   2.950   3.582   4.694 -0.4610 -0.5699 -0.0229
17607THY    HA436254   2.875   3.559   4.619  0.2811 -0.6458 -2.5161
17607THY    CA536255   3.061   3.667   4.675 -0.3280 -0.1309  0.2282
17607THY    CM136256   3.079   3.744   4.554  0.4449 -0.1442 -0.6783
17607THY    HM136257   3.004   3.726   4.476 -0.8785  1.2839 -1.6682
17607THY    HM236258   3.176   3.716   4.511 -0.9466 -3.0606 -1.4363
17607THY    HM336259   3.089   3.848   4.587 -1.9811  0.7762 -0.6839
17607THY    CA636260   3.168   3.670   4.770 -0.4625 -0.5526 -0.4096
17607THY    HA636261   3.257   3.730   4.755 -0.2055  1.2773 -0.2587
17608THY      O36262   4.506   6.264   4.003  0.3669  0.4366 -0.1428
17608THY     HO36263   4.436   6.198   4.023 -0.9155 -1.6477  0.4807
17608THY    CA136264   4.461   6.380   4.066  0.5850 -0.3429  0.5117
17608THY    CA236265   4.540   6.499   4.063  0.5040  0.6625 -0.1782
17608THY    CP136266   4.669   6.505   3.973 -0.4009  0.8210  0.9034
17608THY    HP136267   4.672   6.412   3.915 -0.9845 -1.6757  2.3527
17608THY    CP236268   4.799   6.526   4.054  0.0266 -0.4655  0.2727
17608THY    HP236269   4.823   6.444   4.122 -0.3193  3.0751  2.8517
17608THY    HP336270   4.792   6.617   4.115 -1.2820 -0.7309  0.3737
17608THY    HP436271   4.887   6.522   3.988  0.5171  0.1342  0.8317
17608THY    CP336272   4.628   6.603   3.865  0.0820 -0.1123 -0.0304
17608THY    HP536273   4.576   6.696   3.891  0.2055 -0.0397  0.0192
17608THY    HP636274   4.555   6.560   3.795 -1.1562  0.3950  1.1787
17608THY    HP736275   4.715   6.627   3.802  0.7153  0.4705 -0.7541
17608THY    CA336276   4.500   6.611   4.132  0.5210 -0.1432 -1.0936
17608THY    HA336277   4.562   6.700   4.131  0.9740  1.7977 -1.3441
17608THY    CA436278   4.380   6.606   4.203  0.5993  0.4443  0.0570
17608THY    HA436279   4.354   6.693   4.263  1.4011  1.7580 -0.5909
17608THY    CA536280   4.307   6.490   4.213 -0.1095 -1.1190  0.1268
17608THY    CM136281   4.186   6.493   4.311 -0.8006 -0.8204  0.0667
17608THY    HM136282   4.192   6.394   4.357 -0.0667 -3.7039 -1.3224
17608THY    HM236283   4.092   6.514   4.259 -0.9784 -0.4644  0.1733
17608THY    HM336284   4.190   6.576   4.383 -0.5094 -2.7991  1.8383
17608THY    CA636285   4.344   6.374   4.143  0.0557  0.2816  0.6557
17608THY    HA636286   4.289   6.280   4.146 -0.1027 -0.8890  0.6916
17609THY      O36287   4.690   8.172   5.173 -0.3561  0.3707  0.2501
17609THY     HO36288   4.642   8.254   5.152  2.2527 -0.3398  1.7135
17609THY    CA136289   4.607   8.096   5.242 -0.1606 -0.4180  0.5180
17609THY    CA236290   4.633   7.957   5.257 -0.2018  0.2512  0.2580
17609THY    CP136291   4.764   7.892   5.197  0.0915 -0.2812  0.4889
17609THY    HP136292   4.833   7.970   5.162  0.3467  0.9341  0.8274
17609THY    CP236293   4.743   7.778   5.100 -0.0755 -0.2318 -0.2947
17609THY    HP236294   4.842   7.734   5.082  1.0526  1.2571  1.4844
17609THY    HP336295   4.698   7.815   5.007 -0.1772  0.1512  0.5903
17609THY    HP436296   4.672   7.710   5.149 -0.2099  2.3258  1.5074
17609THY    CP336297   4.841   7.827   5.312  0.0574 -0.2428 -0.5314
17609THY    HP536298   4.948   7.841   5.292  0.1501  0.7560  0.2422
17609THY    HP636299   4.818   7.724   5.339  0.2857  1.9836 -0.0465
17609THY    HP736300   4.830   7.889   5.402  0.3384 -1.2538  1.0635
17609THY    CA336301   4.541   7.882   5.331 -1.1013 -0.8326  0.5607
17609THY    HA336302   4.568   7.782   5.365 -2.8451  0.2885  0.4164
17609THY    CA436303   4.423   7.936   5.382  0.5634  0.8482 -0.0972
17609THY    HA436304   4.353   7.877   5.441  1.0144  1.8481  0.3253
17609THY    CA536305   4.397   8.069   5.363 -0.0035 -0.8710 -0.8909
17609THY    CM136306   4.283   8.137   5.433  0.0880 -0.2648 -0.0239
17609THY    HM136307   4.195   8.073   5.428 -0.2483 -1.8004  0.5128
17609THY    HM236308   4.249   8.234   5.395  0.7926 -1.4522 -0.2117
17609THY    HM336309   4.299   8.153   5.540  0.7173 -0.5946  1.9006
17609THY    CA636310   4.492   8.152   5.300  0.2502 -0.2191 -0.3729
17609THY    HA636311   4.473   8.259   5.290 -1.7765 -0.3759 -0.7040
17610THY      O36312   0.564   4.889   6.127  0.5585  0.0890 -0.1289
17610THY     HO36313   0.576   4.792   6.133 -1.1973  1.1753 -0.3205
17610THY    CA136314   0.450   4.904   6.203 -0.1884  0.2529  0.4144
17610THY    CA236315   0.393   5.029   6.238 -0.7871 -0.2864 -0.0820
17610THY    CP136316   0.478   5.160   6.209 -0.2076 -0.2427  0.0627
17610THY    HP136317   0.564   5.148   6.142 -0.1080 -0.7471  2.8067
17610THY    CP236318   0.522   5.234   6.342 -0.6749  0.7260 -0.4387
17610THY    HP236319   0.560   5.332   6.314 -0.0409  0.1391 -0.8460
17610THY    HP336320   0.606   5.188   6.396 -0.7051  0.9542 -0.2310
17610THY    HP436321   0.432   5.247   6.405 -1.7543 -0.9245  0.3534
17610THY    CP336322   0.393   5.258   6.134 -0.3549 -0.5192 -0.2247
17610THY    HP536323   0.342   5.224   6.044  2.2263 -2.9534  1.8747
17610THY    HP636324   0.443   5.352   6.106 -0.9468 -0.2074  0.1940
17610THY    HP736325   0.311   5.281   6.203 -1.6686 -2.4982  1.4192
17610THY    CA336326   0.266   5.024   6.303 -0.2380 -0.1611  0.6999
17610THY    HA336327   0.211   5.111   6.336 -0.6972  1.8757 -0.2902
17610THY    CA436328   0.204   4.897   6.331  0.0681 -0.9932 -0.1663
17610THY    HA436329   0.107   4.895   6.380  0.4450 -0.0981  1.3859
17610THY    CA536330   0.260   4.777   6.291 -0.8597 -0.1913 -0.3267
17610THY    CM136331   0.183   4.651   6.315 -0.0825  0.4686  0.0237
17610THY    HM136332   0.099   4.661   6.386  0.8975  2.3311 -3.4535
17610THY    HM236333   0.248   4.570   6.350  0.9179  0.8256  0.9625
17610THY    HM336334   0.141   4.618   6.219 -0.1834  0.7497 -0.6816
17610THY    CA636335   0.383   4.783   6.221  0.2890  0.1399 -0.1320
17610THY    HA636336   0.418   4.688   6.184 -2.1489 -1.5600 -0.4476
17611THY      O36337   3.747   5.935   5.550 -0.3868 -0.0012  0.7158
17611THY     HO36338   3.812   5.992   5.506 -0.0805 -1.4859 -0.7357
17611THY    CA136339   3.806   5.886   5.664 -0.0225  0.2862 -1.6192
17611THY    CA236340   3.780   5.761   5.716  0.0370 -0.0341 -0.3446
17611THY    CP136341   3.659   5.682   5.657 -0.7527  0.2413 -0.6054
17611THY    HP136342   3.660   5.692   5.548  0.2591  0.1927 -1.1423
17611THY    CP236343   3.531   5.738   5.719 -0.1542  0.5036  0.1282
17611THY    HP236344   3.447   5.671   5.694 -1.8923 -2.8478  3.2090
17611THY    HP336345   3.508   5.830   5.664  3.4630 -2.3489 -0.4565
17611THY    HP436346   3.552   5.769   5.822  1.6382 -0.0973  1.0490
17611THY    CP336347   3.691   5.531   5.676  0.0383 -0.7221  0.5041
17611THY    HP536348   3.669   5.490   5.776 -0.9417 -1.4672 -0.8987
17611THY    HP636349   3.797   5.513   5.653  0.3388  1.8774 -1.7604
17611THY    HP736350   3.625   5.480   5.605 -0.6801  0.2952 -0.0285
17611THY    CA336351   3.840   5.725   5.839  0.0181  0.4624  0.6125
17611THY    HA336352   3.823   5.634   5.896  2.4954 -1.4861 -1.2392
17611THY    CA436353   3.939   5.806   5.896 -0.3424 -0.0579  0.0678
17611THY    HA436354   3.998   5.761   5.975  0.0367 -0.8989 -0.9542
17611THY    CA536355   3.956   5.941   5.855 -0.2078  0.4537  0.4470
17611THY    CM136356   4.048   6.037   5.928 -0.1596 -0.0649  0.1578
17611THY    HM136357   4.066   6.116   5.855  2.2018  1.3998  1.0633
17611THY    HM236358   4.134   5.987   5.973 -0.2337  2.1159  1.8267
17611THY    HM336359   4.006   6.076   6.022 -1.2576 -0.6379  0.4068
17611THY    CA636360   3.885   5.981   5.741  0.5858  0.1140 -0.1959
17611THY    HA636361   3.880   6.087   5.715 -0.1362  0.8405 -0.0440
17612THY      O36362   4.143   1.245   2.467  0.0220  0.2561  0.0992
17612THY     HO36363   4.167   1.331   2.429 -0.1801 -1.1157 -0.4323
17612THY    CA136364   4.210   1.243   2.584  0.3731 -0.0752 -0.0178
17612THY    CA236365   4.160   1.174   2.704  0.0708  0.2821 -0.1706
17612THY    CP136366   4.037   1.082   2.686 -0.3843 -0.2877  0.2794
17612THY    HP136367   4.020   1.060   2.580 -0.9106 -0.5366  1.8009
17612THY    CP236368   3.907   1.158   2.727  0.0200  0.0048 -0.1231
17612THY    HP236369   3.835   1.082   2.761 -0.5446  0.4779  0.6020
17612THY    HP336370   3.861   1.210   2.642 -1.7256 -0.1350 -1.7879
17612THY    HP436371   3.926   1.232   2.806 -1.4181 -2.9079  3.6911
17612THY    CP336372   4.055   0.947   2.758 -0.7184  0.0113  0.0144
17612THY    HP536373   4.148   0.902   2.722  0.5246  0.7671  1.8703
17612THY    HP636374   3.975   0.875   2.735  2.0667 -1.8370 -2.8036
17612THY    HP736375   4.060   0.963   2.866  0.6264  0.3457 -2.1801
17612THY    CA336376   4.213   1.194   2.828 -0.0200 -0.3429  0.8438
17612THY    HA336377   4.159   1.163   2.916 -0.3242  0.4345  3.3724
17612THY    CA436378   4.340   1.271   2.835  1.1522 -0.5671  0.3466
17612THY    HA436379   4.397   1.293   2.925  0.9386 -0.7947  1.9787
17612THY    CA536380   4.394   1.328   2.718  0.7410  0.0579 -0.5669
17612THY    CM136381   4.520   1.411   2.728 -0.0046  0.2677  0.2782
17612THY    HM136382   4.541   1.455   2.827  3.4158  0.1679 -0.8513
17612THY    HM236383   4.522   1.485   2.647  0.8874 -0.1558 -0.1943
17612THY    HM336384   4.597   1.340   2.698 -0.9738  0.3499 -0.8340
17612THY    CA636385   4.326   1.324   2.598 -0.3313 -0.3333 -0.1577
17612THY    HA636386   4.367   1.377   2.512 -0.1480  1.0675  2.1214
17613THY      O36387   4.769   6.194   4.090 -0.4234  0.1216 -0.2085
17613THY     HO36388   4.674   6.216   4.090 -0.4397 -0.2218 -0.2667
17613THY    CA136389   4.785   6.131   4.209 -0.0085 -0.0428  0.0596
17613THY    CA236390   4.909   6.100   4.270  0.1141  1.2525 -0.4017
17613THY    CP136391   5.041   6.108   4.186  0.2141 -0.0572 -0.1851
17613THY    HP136392   5.026   6.164   4.094  0.0098 -0.3321 -0.6875
17613THY    CP236393   5.077   5.965   4.134 -0.0306  0.0825  0.4963
17613THY    HP236394   5.157   5.972   4.059  0.6820  0.8591  0.8909
17613THY    HP336395   4.988   5.911   4.101 -0.6257  1.7682  0.3819
17613THY    HP436396   5.133   5.916   4.215  0.2434 -0.4419 -0.0728
17613THY    CP336397   5.145   6.186   4.261 -0.6705 -0.4357  0.4299
17613THY    HP536398   5.230   6.203   4.194  0.7707  1.3202  0.4634
17613THY    HP636399   5.177   6.123   4.345 -2.2012 -0.5548 -0.5563
17613THY    HP736400   5.115   6.284   4.299 -0.6353  2.5249 -0.5959
17613THY    CA336401   4.914   6.067   4.407  0.3153 -0.2390 -0.4594
17613THY    HA336402   5.004   6.043   4.462 -0.1471  0.5035 -0.4958
17613THY    CA436403   4.789   6.061   4.478  1.2142 -0.2850  0.2919
17613THY    HA436404   4.788   6.036   4.584  1.2638 -0.3707 -0.0839
17613THY    CA536405   4.667   6.081   4.416  0.0964 -0.0013  0.0057
17613THY    CM136406   4.536   6.049   4.483  0.9527 -0.1608 -0.4644
17613THY    HM136407   4.508   5.946   4.456 -1.0966  0.3224 -0.0783
17613THY    HM236408   4.461   6.123   4.454 -0.2546  1.4783 -0.9850
17613THY    HM336409   4.544   6.045   4.592  0.1918 -0.0433  0.8242
17613THY    CA636410   4.669   6.105   4.281 -1.0406 -0.2713  0.0348
17613THY    HA636411   4.575   6.121   4.229 -0.3846 -0.9999  1.7187
17614THY      O36412   5.434   5.141   7.413 -0.0469 -0.2974 -0.4427
17614THY     HO36413   5.339   5.120   7.407 -0.3791  2.3098 -0.0282
17614THY    CA136414   5.440   5.274   7.440 -0.0889  0.3155  0.7530
17614THY    CA236415   5.558   5.333   7.481 -0.3121  0.3336  0.8250
17614THY    CP136416   5.685   5.255   7.510  0.0676 -0.0969  0.2508
17614THY    HP136417   5.668   5.146   7.511  0.8309 -1.2720  0.0928
17614THY    CP236418   5.736   5.285   7.654 -0.7475 -0.1678 -0.9383
17614THY    HP236419   5.799   5.375   7.653 -1.7591  0.8384 -0.1954
17614THY    HP336420   5.809   5.204   7.669  1.8397 -1.9683  0.9023
17614THY    HP436421   5.660   5.293   7.732 -0.5011 -0.1143  1.5291
17614THY    CP336422   5.800   5.292   7.406  0.5461 -0.1923  0.0828
17614THY    HP536423   5.819   5.399   7.412 -0.6634  0.0065  0.3020
17614THY    HP636424   5.780   5.282   7.299  1.7021 -0.4123 -0.0931
17614THY    HP736425   5.896   5.243   7.428  0.3619  0.0336 -0.1864
17614THY    CA336426   5.562   5.470   7.508 -0.9743 -0.0079  0.3960
17614THY    HA336427   5.652   5.510   7.553 -2.1487  3.4276 -0.4666
17614THY    CA436428   5.456   5.550   7.477  1.1079 -0.3273 -0.0761
17614THY    HA436429   5.455   5.658   7.491 -0.5497 -1.0375  0.0345
17614THY    CA536430   5.334   5.492   7.445 -0.6897  0.1080 -0.6655
17614THY    CM136431   5.205   5.569   7.446 -1.4615  0.1349  0.3910
17614THY    HM136432   5.200   5.653   7.375  0.4012  1.4144  1.6594
17614THY    HM236433   5.188   5.615   7.543  0.6858 -1.0192  3.9968
17614THY    HM336434   5.117   5.508   7.422 -1.9031 -1.5099  1.6112
17614THY    CA636435   5.324   5.356   7.425 -0.1993  0.5391  0.4434
17614THY    HA636436   5.235   5.298   7.402 -0.7843 -3.8316  2.6889
17615THY      O36437   2.120   8.781   5.516  0.6440  0.2269 -0.1642
17615THY     HO36438   2.078   8.704   5.474  0.8337 -1.8935  0.8196
17615THY    CA136439   2.239   8.778   5.453 -0.2805 -0.1691  0.4760
17615THY    CA236440   2.358   8.821   5.531 -0.7442 -0.2253 -0.4017
17615THY    CP136441   2.353   8.865   5.677  0.3156  0.6520 -0.5312
17615THY    HP136442   2.258   8.915   5.699  0.6872  1.6202 -0.2217
17615THY    CP236443   2.453   8.984   5.695 -0.2978 -0.6108  0.2917
17615THY    HP236444   2.436   9.057   5.616 -1.5716 -1.6915 -1.1026
17615THY    HP336445   2.557   8.956   5.714 -0.9820 -0.5166 -2.5926
17615THY    HP436446   2.422   9.035   5.787  1.7799  1.0057 -1.1625
17615THY    CP336447   2.385   8.754   5.776 -0.2700  0.1584  0.6104
17615THY    HP536448   2.383   8.799   5.876 -2.0091  1.0407 -1.2529
17615THY    HP636449   2.484   8.713   5.754 -0.5061  2.6609 -1.6041
17615THY    HP736450   2.301   8.684   5.768 -0.6224 -0.9467  1.1363
17615THY    CA336451   2.481   8.799   5.464 -0.5073 -0.1454 -0.3604
17615THY    HA336452   2.575   8.827   5.511 -1.7635 -0.0050  4.4620
17615THY    CA436453   2.476   8.757   5.323 -0.2317 -0.6221  0.8788
17615THY    HA436454   2.570   8.762   5.268  0.1875  0.0462  0.5603
17615THY    CA536455   2.359   8.743   5.253 -0.0929 -0.1180  0.0343
17615THY    CM136456   2.352   8.722   5.105  0.5963 -0.0021  0.1279
17615THY    HM136457   2.412   8.635   5.075  1.2394  1.8551 -0.1081
17615THY    HM236458   2.396   8.802   5.045 -0.1570 -2.0884 -0.9520
17615THY    HM336459   2.247   8.714   5.074  0.5815 -0.1254  0.7301
17615THY    CA636460   2.237   8.753   5.318 -0.5624 -0.6491  0.0924
17615THY    HA636461   2.140   8.733   5.274 -0.5898 -1.2687  1.5081
17616THY      O36462   2.050   2.633   2.952  0.2348  0.6081  0.1617
17616THY     HO36463   2.044   2.593   2.863  1.7385  0.7559 -0.4425
17616THY    CA136464   2.175   2.692   2.960 -0.2367  0.1076 -0.2503
17616THY    CA236465   2.288   2.660   2.880  0.0948  0.1733 -0.9066
17616THY    CP136466   2.279   2.564   2.765  0.0200  0.2111  0.2513
17616THY    HP136467   2.178   2.521   2.759  0.6007  0.1070 -1.1580
17616THY    CP236468   2.354   2.438   2.780 -0.7735  0.0996  0.8127
17616THY    HP236469   2.316   2.389   2.871  0.9291 -0.7700 -2.3677
17616THY    HP336470   2.461   2.459   2.783 -0.5284 -3.5426  0.6233
17616THY    HP436471   2.330   2.370   2.698 -1.0711  0.5624  0.3531
17616THY    CP336472   2.320   2.639   2.640  0.0556 -0.0186 -0.3684
17616THY    HP536473   2.422   2.681   2.644 -0.3293  0.3052  0.5729
17616THY    HP636474   2.259   2.725   2.610  2.7754 -1.7309  1.1411
17616THY    HP736475   2.313   2.566   2.559 -0.8907 -1.0537  0.8333
17616THY    CA336476   2.407   2.730   2.908 -0.5084 -0.1971  0.2856
17616THY    HA336477   2.498   2.710   2.852 -0.3457  0.6427 -1.5147
17616THY    CA436478   2.411   2.831   2.998 -0.3606 -0.2364 -0.2668
17616THY    HA436479   2.495   2.900   2.994 -0.1915 -0.3130 -0.4755
17616THY    CA536480   2.293   2.865   3.068  0.5843 -0.2941  0.1742
17616THY    CM136481   2.302   2.987   3.161 -0.1968  0.1293  0.0363
17616THY    HM136482   2.205   3.038   3.155  0.7097 -0.7140  1.7720
17616THY    HM236483   2.380   3.059   3.135  0.5484 -0.6169 -1.0157
17616THY    HM336484   2.323   2.954   3.264  1.1157  0.1796  0.9298
17616THY    CA636485   2.181   2.794   3.061  0.1011 -0.0698 -0.2556
17616THY    HA636486   2.090   2.823   3.113 -0.2664 -1.1373  0.5667
17617THY      O36487   3.769   0.769   7.453  0.0162  0.0647 -0.0220
17617THY     HO36488   3.845   0.771   7.391 -2.0758 -2.6785  1.8293
17617THY    CA136489   3.660   0.734   7.377 -0.2203 -0.3060 -0.3973
17617THY    CA236490   3.526   0.747   7.426 -0.4210 -0.4313 -0.4351
17617THY    CP136491   3.496   0.785   7.572 -0.4033  0.7549  0.1556
17617THY    HP136492   3.590   0.834   7.600 -0.2528  0.1073  0.2527
17617THY    CP236493   3.463   0.673   7.668 -0.3469  0.1351  0.3346
17617THY    HP236494   3.362   0.631   7.661 -0.1373 -1.1411  0.0230
17617THY    HP336495   3.500   0.699   7.768 -0.2332  0.2575 -0.2877
17617THY    HP436496   3.522   0.588   7.632 -2.0190 -0.1927 -0.7462
17617THY    CP336497   3.395   0.896   7.573  0.0319  0.3129 -0.2449
17617THY    HP536498   3.363   0.924   7.674 -0.7347 -0.3749  1.4740
17617THY    HP636499   3.305   0.845   7.538  0.2749 -1.3338  0.3908
17617THY    HP736500   3.416   0.992   7.525 -2.2309  0.4784  0.3729
17617THY    CA336501   3.419   0.724   7.332 -0.6444 -0.3853  0.7530
17617THY    HA336502   3.314   0.721   7.360 -0.5782 -0.2184 -0.2144
17617THY    CA436503   3.450   0.681   7.203 -0.1831 -0.0761  0.6162
17617THY    HA436504   3.372   0.642   7.139 -0.4980  0.0780  0.9859
17617THY    CA536505   3.581   0.667   7.162 -0.8827  0.8656 -0.2874
17617THY    CM136506   3.607   0.611   7.025  0.5335  0.0365  0.7285
17617THY    HM136507   3.683   0.532   7.029  1.2264 -2.7516  1.1528
17617THY    HM236508   3.646   0.692   6.963 -0.7588 -0.2333  1.1764
17617THY    HM336509   3.517   0.569   6.978  0.5351 -0.0840  0.8594
17617THY    CA636510   3.688   0.693   7.249 -0.3431  0.5244 -0.4583
17617THY    HA636511   3.790   0.683   7.214 -0.2302  0.8566 -0.4603
17618THY      O36512   0.381   8.736   2.576 -0.3741  0.3260  0.2046
17618THY     HO36513   0.404   8.686   2.496  0.2255  0.9494 -0.5560
17618THY    CA136514   0.501   8.760   2.638 -0.2492  0.4711 -0.0662
17618THY    CA236515   0.511   8.832   2.756  0.1346  0.1301  0.2728
17618THY    CP136516   0.387   8.909   2.812 -0.0929  0.1702 -0.3100
17618THY    HP136517   0.299   8.904   2.746 -0.7186  1.0017 -0.4948
17618THY    CP236518   0.415   9.059   2.824 -0.3160  0.6685  0.1436
17618THY    HP236519   0.321   9.106   2.856  0.9801  2.4674  1.6482
17618THY    HP336520   0.451   9.110   2.734 -0.6785  0.0608 -0.6465
17618THY    HP436521   0.484   9.078   2.906  0.0677  0.4118 -0.1223
17618THY    CP336522   0.354   8.859   2.954 -0.0251 -0.2382 -0.3289
17618THY    HP536523   0.452   8.841   3.000  0.0144  0.5366  1.6660
17618THY    HP636524   0.294   8.767   2.952 -0.4903  1.0080 -0.0685
17618THY    HP736525   0.295   8.934   3.007  0.3775  1.0050 -0.8710
17618THY    CA336526   0.637   8.846   2.813 -0.8633 -0.1668 -0.0753
17618THY    HA336527   0.646   8.895   2.909  1.0199 -0.1165 -0.4325
17618THY    CA436528   0.746   8.787   2.751 -0.0825 -0.9801  0.0123
17618THY    HA436529   0.844   8.811   2.790 -1.6905  1.5395  3.1538
17618THY    CA536530   0.731   8.721   2.637 -0.7185  0.4805  0.2654
17618THY    CM136531   0.852   8.674   2.573  0.0611 -0.1017 -0.3518
17618THY    HM136532   0.813   8.667   2.471 -1.5682  0.0346  3.9009
17618THY    HM236533   0.883   8.576   2.612 -1.3650  0.9055 -0.4382
17618THY    HM336534   0.931   8.749   2.577 -0.0635 -0.1173 -0.2183
17618THY    CA636535   0.609   8.702   2.575 -0.1292 -0.0666 -0.2078
17618THY    HA636536   0.593   8.645   2.483  2.0427  0.1961 -1.3597
17619THY      O36537   4.542   7.733   2.194  0.3242  0.5788 -0.1905
17619THY     HO36538   4.562   7.822   2.162  0.5117 -0.2451 -0.5195
17619THY    CA136539   4.615   7.653   2.113  1.1743 -0.2755  0.0262
17619THY    CA236540   4.557   7.529   2.079 -0.4476 -0.4997  0.1244
17619THY    CP136541   4.429   7.482   2.144  1.4940 -0.0345  0.3020
17619THY    HP136542   4.380   7.553   2.211 -0.5055  0.2923 -1.2694
17619THY    CP236543   4.451   7.354   2.231 -0.6784  0.3611 -0.8026
17619THY    HP236544   4.489   7.267   2.177  1.6680  1.9584 -0.8621
17619THY    HP336545   4.367   7.336   2.300  0.0206  1.6491  0.6131
17619THY    HP436546   4.531   7.385   2.300 -0.2910 -0.6776  0.6186
17619THY    CP336547   4.328   7.442   2.023  0.2672 -0.7624 -0.0572
17619THY    HP536548   4.309   7.528   1.958 -1.0323 -0.7658 -0.3159
17619THY    HP636549   4.229   7.434   2.070  0.9338  0.6662 -0.2541
17619THY    HP736550   4.355   7.355   1.962 -1.6564 -0.7491 -0.7243
17619THY    CA336551   4.619   7.447   1.982 -0.1628  0.6968  0.4695
17619THY    HA336552   4.593   7.345   1.956  1.8220  3.5687 -0.8851
17619THY    CA436553   4.742   7.498   1.925  1.2790 -0.1755  0.8790
17619THY    HA436554   4.797   7.446   1.847  0.0136 -1.7067  1.7366
17619THY    CA536555   4.791   7.627   1.962 -0.8267 -0.6218  0.6056
17619THY    CM136556   4.908   7.678   1.885 -0.0864  0.2423  0.4390
17619THY    HM136557   4.925   7.626   1.790  0.3283 -0.0550  1.0929
17619THY    HM236558   4.998   7.669   1.947 -0.0530  0.4176  1.8004
17619THY    HM336559   4.893   7.779   1.845 -1.1582 -4.5401 -1.3536
17619THY    CA636560   4.726   7.706   2.053  0.5485  0.3340 -0.0347
17619THY    HA636561   4.767   7.805   2.071 -0.6872  0.1749  0.5257
17620THY      O36562   7.234   5.763   5.405 -0.1874 -0.2327 -0.6998
17620THY     HO36563   7.295   5.831   5.370 -0.7295 -1.9307 -1.0384
17620THY    CA136564   7.293   5.661   5.472  0.5202  0.3859 -0.1651
17620THY    CA236565   7.219   5.549   5.507 -0.2660  0.4716  0.9556
17620THY    CP136566   7.072   5.543   5.482  0.2207 -0.2930  0.1194
17620THY    HP136567   7.042   5.634   5.429 -0.6139 -0.6231 -0.3305
17620THY    CP236568   6.984   5.529   5.606 -0.6857  0.3459  0.6046
17620THY    HP236569   6.878   5.521   5.577 -0.5636 -0.3985  1.4814
17620THY    HP336570   7.008   5.611   5.675  2.9601  0.9722 -0.7913
17620THY    HP436571   7.006   5.439   5.663 -1.6009  0.8283  0.6719
17620THY    CP336572   7.034   5.427   5.385  0.5469 -0.3113 -0.4308
17620THY    HP536573   7.070   5.447   5.284  2.5274  0.9351  3.2368
17620THY    HP636574   6.926   5.413   5.377  0.7602 -1.0773 -1.7313
17620THY    HP736575   7.061   5.327   5.420 -1.2980  0.1532 -0.7925
17620THY    CA336576   7.289   5.436   5.561  0.0335  0.0976  0.1757
17620THY    HA336577   7.230   5.349   5.588 -1.1724  1.3296  1.3197
17620THY    CA436578   7.424   5.445   5.578 -0.3424 -0.2778  0.8442
17620THY    HA436579   7.482   5.362   5.616 -1.6956 -0.7779 -0.3784
17620THY    CA536580   7.498   5.558   5.549  0.7093  0.3558  0.3022
17620THY    CM136581   7.643   5.550   5.561  0.0559  0.0617 -0.4292
17620THY    HM136582   7.685   5.565   5.661 -0.0040  0.2325 -1.3233
17620THY    HM236583   7.693   5.609   5.484  0.0171  0.6956  0.4454
17620THY    HM336584   7.668   5.445   5.540  1.7089 -1.1432  0.1767
17620THY    CA636585   7.437   5.669   5.496 -0.2773  0.3221  0.1946
17620THY    HA636586   7.502   5.751   5.466  0.1089  2.9747  0.9700
17621THY      O36587   3.645   3.577   7.350 -0.0494 -0.2994  0.4944
17621THY     HO36588   3.693   3.498   7.320  2.7162 -0.1532  1.9933
17621THY    CA136589   3.690   3.588   7.480 -0.2689  0.8263 -0.7669
17621THY    CA236590   3.608   3.627   7.580  0.2476 -0.3485  1.1849
17621THY    CP136591   3.463   3.673   7.557  0.4182  0.0428 -0.3381
17621THY    HP136592   3.442   3.689   7.450  1.5175  0.2521  3.7459
17621THY    CP236593   3.448   3.816   7.608  0.2867 -0.3667  0.0852
17621THY    HP236594   3.353   3.853   7.566 -0.8336  1.1974 -0.8764
17621THY    HP336595   3.539   3.869   7.580 -0.0502 -0.6758  0.5101
17621THY    HP436596   3.433   3.814   7.717 -1.9908 -0.6200  0.1376
17621THY    CP336597   3.373   3.568   7.606  0.0699 -1.1118 -0.3289
17621THY    HP536598   3.406   3.476   7.556  2.4806 -0.1391 -0.0637
17621THY    HP636599   3.270   3.583   7.569 -0.8815  1.3447 -0.3689
17621THY    HP736600   3.377   3.565   7.715 -1.2109 -0.9148  2.0997
17621THY    CA336601   3.649   3.622   7.716  0.0799 -0.0917  0.7157
17621THY    HA336602   3.575   3.648   7.792  0.4385  0.5172 -0.0092
17621THY    CA436603   3.782   3.578   7.738  0.8512 -0.2473 -0.0809
17621THY    HA436604   3.817   3.577   7.841 -2.0526  0.8283 -0.8464
17621THY    CA536605   3.868   3.538   7.633  1.2148 -0.1859  0.2200
17621THY    CM136606   4.014   3.494   7.659 -0.2683 -0.3007  0.0635
17621THY    HM136607   4.078   3.540   7.583 -0.6539 -0.9319 -0.4279
17621THY    HM236608   4.036   3.387   7.647  0.5451  0.8770  0.0831
17621THY    HM336609   4.055   3.511   7.759  0.1570 -0.2617 -1.0944
17621THY    CA636610   3.820   3.539   7.501  1.1763 -0.1367  0.0724
17621THY    HA636611   3.892   3.513   7.424 -0.6854 -1.1867 -2.2748
17622THY      O36612   7.106   7.186   4.409  0.4518 -0.0587 -0.3458
17622THY     HO36613   7.121   7.280   4.429 -3.2164 -0.7421  0.5251
17622THY    CA136614   7.223   7.132   4.362  0.3654  0.4414  0.1523
17622THY    CA236615   7.228   7.007   4.302  0.2076  0.2237 -0.3409
17622THY    CP136616   7.103   6.914   4.296  0.1799 -0.2641  0.9302
17622THY    HP136617   7.020   6.985   4.304 -0.0238 -0.0187  0.6664
17622THY    CP236618   7.104   6.798   4.403 -0.7424 -0.3591 -0.7041
17622THY    HP236619   7.185   6.726   4.385 -2.3759 -0.8513 -2.4914
17622THY    HP336620   7.014   6.735   4.405 -1.1979 -0.4594 -0.0617
17622THY    HP436621   7.124   6.838   4.503 -0.9875 -0.3431 -0.6222
17622THY    CP336622   7.086   6.856   4.152 -0.2928  0.0448 -0.1606
17622THY    HP536623   7.162   6.781   4.127  0.2788  0.2906  0.3257
17622THY    HP636624   7.088   6.936   4.076 -0.3577  0.3124  0.0992
17622THY    HP736625   6.985   6.817   4.135 -1.0729  2.2049  0.7836
17622THY    CA336626   7.349   6.954   4.260 -0.3437  0.4049 -0.6868
17622THY    HA336627   7.356   6.855   4.216 -0.3128 -1.2715  0.0314
17622THY    CA436628   7.466   7.039   4.262 -0.5407  0.7151  0.0577
17622THY    HA436629   7.557   7.007   4.213  0.3152  1.5330  1.1478
17622THY    CA536630   7.460   7.166   4.319  0.2795 -0.1505  0.2850
17622THY    CM136631   7.585   7.248   4.354 -0.4083  0.6190  0.1257
17622THY    HM136632   7.673   7.203   4.306 -0.4567  0.7148 -0.0692
17622THY    HM236633   7.605   7.237   4.461 -0.6290  0.5603 -1.0127
17622THY    HM336634   7.575   7.354   4.329  1.3877  0.5815  0.3175
17622THY    CA636635   7.340   7.207   4.377 -0.7667  0.3076  0.5287
17622THY    HA636636   7.341   7.294   4.442 -0.5150  0.8076  0.1529
17623THY      O36637   4.398   5.084   7.630  0.1046 -0.7855 -0.0447
17623THY     HO36638   4.353   5.158   7.673  0.7280  2.2583 -1.2836
17623THY    CA136639   4.321   5.035   7.530  0.0188 -0.2711  0.5792
17623THY    CA236640   4.361   4.925   7.455  0.2959  0.1488 -0.4541
17623THY    CP136641   4.490   4.860   7.494 -0.2422  0.5517 -0.5109
17623THY    HP136642   4.556   4.923   7.556  0.0630 -1.1807  0.9545
17623THY    CP236643   4.588   4.845   7.375 -0.6072 -0.2605  0.4769
17623THY    HP236644   4.602   4.933   7.311  0.4354  3.0950  2.9724
17623THY    HP336645   4.547   4.768   7.309  0.1823  0.5020 -0.6365
17623THY    HP436646   4.686   4.805   7.404  0.8146 -3.0192  1.6951
17623THY    CP336647   4.470   4.721   7.554 -0.4516  0.0828 -0.3125
17623THY    HP536648   4.426   4.647   7.487  1.3512 -2.5716  0.8779
17623THY    HP636649   4.409   4.742   7.643 -0.6046  0.3493 -1.7575
17623THY    HP736650   4.559   4.672   7.595 -2.3539  3.4909 -1.2815
17623THY    CA336651   4.275   4.871   7.356  0.1903  0.4242 -0.8999
17623THY    HA336652   4.317   4.802   7.283 -0.9474 -1.1492  0.0135
17623THY    CA436653   4.149   4.929   7.337 -0.1175  0.2001 -0.0189
17623THY    HA436654   4.086   4.901   7.253  1.1227 -1.1978  1.1656
17623THY    CA536655   4.111   5.034   7.421  0.4395 -0.0378 -0.0056
17623THY    CM136656   3.974   5.080   7.413  0.3729  0.1900 -0.3652
17623THY    HM136657   3.905   4.996   7.429  0.9058  1.0027 -0.6663
17623THY    HM236658   3.954   5.128   7.316  1.1067  1.1920  2.1120
17623THY    HM336659   3.966   5.159   7.488  3.3294 -0.0042  0.2243
17623THY    CA636660   4.199   5.093   7.516  0.3990 -0.6259 -0.0887
17623THY    HA636661   4.173   5.173   7.584  3.3453  0.3000  0.1998
17624THY      O36662   4.400   6.454   4.992 -0.4020  0.0688  0.3910
17624THY     HO36663   4.377   6.360   5.000 -0.3810  2.4510  0.5265
17624THY    CA136664   4.336   6.501   4.889 -0.3706  0.1978  0.5267
17624THY    CA236665   4.337   6.640   4.857 -0.7333 -0.2514  0.1049
17624THY    CP136666   4.413   6.741   4.940  0.5251 -0.0213 -1.0322
17624THY    HP136667   4.476   6.678   5.005  1.6456 -1.1794 -1.1646
17624THY    CP236668   4.327   6.835   5.018 -0.0903  0.0191 -0.4866
17624THY    HP236669   4.277   6.912   4.957 -1.5882  0.1778 -1.2813
17624THY    HP336670   4.396   6.889   5.083 -1.2340 -0.7211  2.0418
17624THY    HP436671   4.255   6.776   5.076  1.4189  0.8799 -1.5357
17624THY    CP336672   4.501   6.828   4.852  0.2507 -0.5196 -0.5611
17624THY    HP536673   4.538   6.906   4.919  0.4106 -1.9663  0.6491
17624THY    HP636674   4.445   6.876   4.771 -3.1239  1.3811 -0.9737
17624THY    HP736675   4.582   6.762   4.817  1.0791  1.0144 -0.3882
17624THY    CA336676   4.245   6.679   4.755  0.0017  0.1236 -0.0282
17624THY    HA336677   4.227   6.785   4.744  1.6309 -3.1721  0.0184
17624THY    CA436678   4.181   6.585   4.677 -0.4470  0.2891 -0.0036
17624THY    HA436679   4.116   6.612   4.594 -1.2604  0.3261 -1.7020
17624THY    CA536680   4.180   6.449   4.712 -0.2129 -0.0004  0.5480
17624THY    CM136681   4.090   6.356   4.641 -0.1788  0.3032  0.3233
17624THY    HM136682   4.023   6.410   4.573  0.5436 -1.3905 -0.8077
17624THY    HM236683   4.023   6.300   4.707 -1.5293 -1.6632 -0.5178
17624THY    HM336684   4.141   6.283   4.576 -0.3991 -0.3707  0.7571
17624THY    CA636685   4.267   6.410   4.816  0.1023 -0.2148  0.1952
17624THY    HA636686   4.261   6.302   4.831  2.1288  0.4711  0.1358
17625THY      O36687   4.065   2.141   2.687 -0.9445 -0.5560  0.3815
17625THY     HO36688   4.073   2.182   2.599  0.8513 -0.9854 -0.7586
17625THY    CA136689   3.938   2.094   2.682  0.3733 -0.2106  0.4309
17625THY    CA236690   3.861   2.052   2.794  0.3899 -0.7131 -0.4196
17625THY    CP136691   3.921   2.056   2.937  0.1201  0.0895  0.0392
17625THY    HP136692   4.018   2.101   2.911 -0.6751 -1.9947  0.6569
17625THY    CP236693   3.925   1.922   3.013 -0.0299  0.1941  0.2323
17625THY    HP236694   4.003   1.858   2.971 -0.9751  1.1924 -1.6678
17625THY    HP336695   3.833   1.866   2.996 -1.9501  1.5372  2.7646
17625THY    HP436696   3.935   1.932   3.122  0.9317  0.5411 -3.3563
17625THY    CP336697   3.850   2.159   3.028 -0.2497  0.3180 -0.2118
17625THY    HP536698   3.744   2.132   3.033 -1.0178 -1.0314  2.2728
17625THY    HP636699   3.885   2.255   2.988  1.3813 -1.4328 -1.4785
17625THY    HP736700   3.902   2.149   3.124  0.7359 -0.1210  0.4625
17625THY    CA336701   3.732   2.006   2.771 -0.4166 -0.1418 -0.2525
17625THY    HA336702   3.674   1.977   2.859 -0.9053 -1.7297 -5.0244
17625THY    CA436703   3.672   2.013   2.642  0.5464 -1.5685 -0.0865
17625THY    HA436704   3.569   1.981   2.624  0.4200  1.6842 -1.8956
17625THY    CA536705   3.750   2.056   2.534 -0.5463 -0.0749  0.1626
17625THY    CM136706   3.686   2.066   2.399  0.0765  0.3332 -1.0171
17625THY    HM136707   3.774   2.056   2.335 -0.2615 -0.5160  0.9015
17625THY    HM236708   3.645   2.167   2.381 -0.4967  0.6926 -1.1796
17625THY    HM336709   3.613   1.987   2.383 -0.5103  1.8963 -0.8367
17625THY    CA636710   3.884   2.091   2.552  0.5475 -0.9315 -0.6596
17625THY    HA636711   3.939   2.125   2.464 -0.5114 -1.6506 -0.7666
17626THY      O36712   3.975   1.899   3.865  0.3662  0.5073 -0.3123
17626THY     HO36713   3.894   1.848   3.879  1.3190  1.7868 -1.5927
17626THY    CA136714   3.963   2.019   3.923 -0.2413  0.6578 -1.1098
17626THY    CA236715   4.059   2.123   3.897  0.7407 -0.2189 -0.3126
17626THY    CP136716   4.181   2.093   3.804  0.1357 -0.4519 -0.3738
17626THY    HP136717   4.154   2.005   3.746  0.4889 -0.0297 -0.7700
17626THY    CP236718   4.311   2.061   3.865  0.3874 -0.3696 -0.5444
17626THY    HP236719   4.295   1.987   3.944 -0.1789 -1.8688 -2.0677
17626THY    HP336720   4.363   2.149   3.906  0.2508 -2.3894  0.5414
17626THY    HP436721   4.392   2.016   3.807  2.5321  2.3370 -0.4423
17626THY    CP336722   4.206   2.212   3.714 -0.5369 -0.8564 -0.7842
17626THY    HP536723   4.209   2.314   3.753 -1.6723 -0.9937 -0.6929
17626THY    HP636724   4.119   2.201   3.648 -0.4172 -1.0765 -0.4208
17626THY    HP736725   4.299   2.197   3.657  1.1012  1.6482 -0.7886
17626THY    CA336726   4.046   2.242   3.967  0.2212  0.1978  0.0032
17626THY    HA336727   4.121   2.319   3.958  0.1635  0.2962  0.0704
17626THY    CA436728   3.937   2.260   4.050  0.4292  0.4329  0.0420
17626THY    HA436729   3.921   2.352   4.106  1.2102  0.2610  0.2846
17626THY    CA536730   3.830   2.165   4.058 -0.9204 -0.2084  0.2173
17626THY    CM136731   3.714   2.173   4.151  0.6101 -0.0449  0.7964
17626THY    HM136732   3.673   2.073   4.170  0.2823  1.8377  1.2428
17626THY    HM236733   3.630   2.229   4.107 -1.1781  0.1798 -1.5382
17626THY    HM336734   3.730   2.228   4.245  0.4117  0.0595  0.6768
17626THY    CA636735   3.844   2.048   3.984  0.0581  0.6255 -0.1161
17626THY    HA636736   3.765   1.974   3.973 -1.1110  1.7735  0.9194
17627THY      O36737   0.082   1.830   7.624  0.5373  0.0431  0.1140
17627THY     HO36738   0.078   1.927   7.628 -0.0237  2.1416  0.0543
17627THY    CA136739   0.157   1.808   7.519 -0.2489 -0.3539  0.7150
17627THY    CA236740   0.252   1.704   7.525 -0.0726 -0.7586 -0.9511
17627THY    CP136741   0.263   1.610   7.648 -0.1466  0.7068 -0.5086
17627THY    HP136742   0.175   1.626   7.712 -0.5966 -0.5387  2.5249
17627THY    CP236743   0.385   1.635   7.743 -0.1862  0.7504 -0.0526
17627THY    HP236744   0.478   1.640   7.685 -1.5797 -1.5258  0.8495
17627THY    HP336745   0.390   1.548   7.810 -2.2024  0.2569 -0.5857
17627THY    HP436746   0.379   1.730   7.799 -1.4749 -2.1661  1.7084
17627THY    CP336747   0.268   1.462   7.601 -0.4873  0.1107  0.2317
17627THY    HP536748   0.366   1.430   7.565 -1.8310 -1.6826 -2.1560
17627THY    HP636749   0.198   1.439   7.520 -1.1272  0.8917 -0.6547
17627THY    HP736750   0.244   1.403   7.691 -0.1605 -1.0758 -1.7877
17627THY    CA336751   0.346   1.679   7.419  1.0803  0.1922 -0.7204
17627THY    HA336752   0.430   1.610   7.428  1.2477 -1.6572 -0.8053
17627THY    CA436753   0.319   1.749   7.297 -0.3130 -0.0024  0.1653
17627THY    HA436754   0.371   1.725   7.205 -1.2758 -1.1577  2.2617
17627THY    CA536755   0.213   1.846   7.292 -0.2115 -0.0844  0.6394
17627THY    CM136756   0.178   1.930   7.168  0.4764  1.0269  0.4356
17627THY    HM136757   0.075   1.899   7.147  0.1575  0.8051  1.5731
17627THY    HM236758   0.241   1.907   7.081 -1.0175 -0.2154  0.8990
17627THY    HM336759   0.196   2.038   7.176 -1.3895 -2.0506  1.0873
17627THY    CA636760   0.143   1.887   7.411  0.1776  0.3409 -0.5977
17627THY    HA636761   0.073   1.970   7.417 -0.2452 -2.6166 -0.6355
17628THY      O36762   3.399   0.969   7.113  0.1276 -0.0617  0.5055
17628THY     HO36763   3.404   0.908   7.188  0.3900 -0.7175 -0.3025
17628THY    CA136764   3.301   1.053   7.139  0.4823  0.3368 -0.5891
17628THY    CA236765   3.266   1.159   7.048  0.0200  0.5149 -0.1517
17628THY    CP136766   3.344   1.179   6.917 -0.1821  0.4726 -0.3549
17628THY    HP136767   3.397   1.092   6.877  0.8787 -2.3076  1.4452
17628THY    CP236768   3.447   1.283   6.941 -0.1064 -0.0475  0.3016
17628THY    HP236769   3.519   1.277   6.858 -0.7707 -0.7217  1.3931
17628THY    HP336770   3.508   1.271   7.032  0.9965 -0.9045 -0.8888
17628THY    HP436771   3.411   1.386   6.950  2.3932  0.1285  1.2295
17628THY    CP336772   3.266   1.222   6.795  0.0780 -0.7870  0.5488
17628THY    HP536773   3.238   1.328   6.803  3.6772 -1.2957  1.6455
17628THY    HP636774   3.177   1.158   6.786  1.1047 -2.6992 -0.7066
17628THY    HP736775   3.323   1.205   6.704 -1.5689 -1.5216 -1.4399
17628THY    CA336776   3.170   1.258   7.088 -0.5937 -0.4869  0.2502
17628THY    HA336777   3.128   1.339   7.029 -1.4767  3.4822  3.0150
17628THY    CA436778   3.110   1.232   7.210  0.2515  0.5840 -0.0956
17628THY    HA436779   3.033   1.302   7.242 -1.1980  0.2971 -1.5004
17628THY    CA536780   3.143   1.132   7.297  0.0397  0.1885  0.0228
17628THY    CM136781   3.071   1.131   7.433 -0.0867 -0.5585 -0.1842
17628THY    HM136782   3.110   1.051   7.497 -0.1767  1.5444  1.3359
17628THY    HM236783   2.961   1.121   7.434 -0.0487  2.1396 -1.3658
17628THY    HM336784   3.088   1.225   7.488 -2.4261  1.6353 -0.8925
17628THY    CA636785   3.241   1.039   7.258 -0.4588 -0.7002 -0.5422
17628THY    HA636786   3.255   0.948   7.316  1.1175 -0.4909 -0.1929
17629THY      O36787   6.935   2.376   7.254  0.6481  0.1818  0.1403
17629THY     HO36788   7.027   2.403   7.235  1.2011  1.7878 -0.4665
17629THY    CA136789   6.938   2.387   7.384  0.2417 -0.2731  0.0781
17629THY    CA236790   6.824   2.418   7.457  0.2657 -0.3314  0.2040
17629THY    CP136791   6.687   2.422   7.392  0.1481 -0.2649 -0.2518
17629THY    HP136792   6.686   2.392   7.286 -2.7992  0.1654 -2.1279
17629THY    CP236793   6.624   2.559   7.395 -0.3369 -0.2167  0.9034
17629THY    HP236794   6.695   2.637   7.365  0.4815 -2.3422 -0.5487
17629THY    HP336795   6.587   2.576   7.497 -1.0718 -0.7622  2.9029
17629THY    HP436796   6.542   2.555   7.323  0.9158 -1.8074  2.2947
17629THY    CP336797   6.595   2.300   7.440  0.3218  0.4488 -0.3328
17629THY    HP536798   6.596   2.306   7.549  0.8877  0.4094  0.4593
17629THY    HP636799   6.644   2.211   7.398 -1.4120 -1.0173 -0.6524
17629THY    HP736800   6.499   2.314   7.389  1.2133 -1.8151 -1.9503
17629THY    CA336801   6.836   2.440   7.600  0.0261  0.0699 -0.1327
17629THY    HA336802   6.749   2.452   7.663 -1.3702 -1.9822  1.2605
17629THY    CA436803   6.960   2.442   7.655 -1.0130 -0.4877  0.2535
17629THY    HA436804   6.969   2.463   7.761  1.1815 -0.2538 -1.4982
17629THY    CA536805   7.075   2.416   7.576  0.3598 -0.2189 -0.4296
17629THY    CM136806   7.204   2.428   7.632 -0.1669  0.0722 -0.5063
17629THY    HM136807   7.212   2.411   7.740 -0.4476  0.7821  3.1097
17629THY    HM236808   7.246   2.528   7.614 -1.4471 -1.6659 -0.2404
17629THY    HM336809   7.272   2.359   7.581 -0.9191  0.3770 -1.5070
17629THY    CA636810   7.062   2.388   7.443  0.2700 -0.3274 -0.1696
17629THY    HA636811   7.153   2.371   7.387  1.2176  1.7193 -2.4487
17630THY      O36812   6.077   7.188   3.343  0.3901  0.2016 -0.0013
17630THY     HO36813   6.122   7.102   3.332  0.1258  0.3264 -0.1578
17630THY    CA136814   5.984   7.198   3.243  1.0203  0.0362  0.0354
17630THY    CA236815   5.869   7.277   3.255  0.8163  0.1545 -0.8539
17630THY    CP136816   5.832   7.350   3.386 -0.0310 -0.4181  0.3975
17630THY    HP136817   5.905   7.321   3.463 -1.4300  1.3329  1.2538
17630THY    CP236818   5.691   7.319   3.436  0.6783  0.2175 -0.0805
17630THY    HP236819   5.680   7.210   3.439 -1.7578  1.5852  0.1453
17630THY    HP336820   5.611   7.370   3.381  2.3126 -0.8263  1.4699
17630THY    HP436821   5.686   7.355   3.539 -2.2500  0.5744 -1.2481
17630THY    CP336822   5.847   7.502   3.369 -0.0009  0.6950 -0.5729
17630THY    HP536823   5.756   7.562   3.356  0.7875  1.3806  0.8375
17630THY    HP636824   5.928   7.527   3.299  0.4033  1.4615  0.3076
17630THY    HP736825   5.883   7.527   3.469  1.5747 -0.2803  1.3817
17630THY    CA336826   5.769   7.270   3.150 -1.0309 -0.3560 -0.3430
17630THY    HA336827   5.665   7.301   3.160 -1.2478 -0.4598 -1.0021
17630THY    CA436828   5.788   7.185   3.038  0.0189 -0.1791 -1.0717
17630THY    HA436829   5.704   7.176   2.970  0.4789 -0.6846 -1.6497
17630THY    CA536830   5.908   7.113   3.021  0.2098 -0.2553 -0.3571
17630THY    CM136831   5.932   7.042   2.898  0.7192  0.7596 -0.3880
17630THY    HM136832   5.982   7.101   2.820 -0.5101 -0.5527 -1.0178
17630THY    HM236833   5.837   7.009   2.855 -0.2222  2.6062 -0.2111
17630THY    HM336834   5.990   6.950   2.909 -1.1768 -0.9722 -1.8923
17630THY    CA636835   6.004   7.115   3.126 -0.9171  0.5549 -0.0519
17630THY    HA636836   6.096   7.058   3.120 -0.1759  2.3820  0.8452
17631THY      O36837   2.001   3.085   2.969 -0.1012 -0.6242  0.1439
17631THY     HO36838   1.988   3.007   3.025  1.1102 -0.0827  0.3013
17631THY    CA136839   1.925   3.180   3.033  0.0891 -0.0505  0.0186
17631THY    CA236840   1.912   3.310   2.981  0.7722  0.4295  0.2774
17631THY    CP136841   1.969   3.350   2.840 -0.3796 -0.2945 -0.0923
17631THY    HP136842   1.986   3.256   2.785  0.8925 -2.7932  1.4932
17631THY    CP236843   2.101   3.421   2.841  0.3995 -0.0653 -0.2836
17631THY    HP236844   2.144   3.412   2.741  1.0872  0.1665  0.3248
17631THY    HP336845   2.186   3.385   2.901  2.3685 -1.3236  1.9543
17631THY    HP436846   2.095   3.529   2.862  1.3384 -0.9624 -0.0427
17631THY    CP336847   1.874   3.434   2.745 -0.4525 -0.3732  0.2898
17631THY    HP536848   1.769   3.404   2.744 -0.6780 -1.3139  1.0718
17631THY    HP636849   1.919   3.438   2.646  0.3916  0.0085  0.4677
17631THY    HP736850   1.865   3.537   2.782 -0.5911 -1.0003  0.5045
17631THY    CA336851   1.830   3.402   3.048 -0.3090  0.2016  0.0874
17631THY    HA336852   1.814   3.504   3.014 -0.8594 -1.9167 -0.6578
17631THY    CA436853   1.759   3.357   3.163  0.2445  1.1324 -0.2981
17631THY    HA436854   1.693   3.424   3.218 -0.6571  1.1719 -1.1853
17631THY    CA536855   1.770   3.228   3.215 -0.1521 -0.0817  0.2260
17631THY    CM136856   1.709   3.200   3.346  0.3663 -0.1597  0.1023
17631THY    HM136857   1.725   3.093   3.366  0.9720 -0.0569  0.2067
17631THY    HM236858   1.603   3.222   3.363  0.7873  3.2739  0.1094
17631THY    HM336859   1.774   3.251   3.419  0.4180 -0.5342  0.5767
17631THY    CA636860   1.847   3.138   3.146 -0.5974  0.5998 -0.2401
17631THY    HA636861   1.853   3.033   3.176  1.8455 -0.1991 -0.3859
17632THY      O36862   2.764   4.408   4.942  0.8711 -0.0649 -0.7311
17632THY     HO36863   2.752   4.349   4.866  1.4132 -1.4125  0.8470
17632THY    CA136864   2.825   4.516   4.890 -0.7379  0.5191 -0.2477
17632THY    CA236865   2.895   4.612   4.964  0.1079  0.4682  0.3185
17632THY    CP136866   2.913   4.598   5.115  0.2090  0.1819  0.8741
17632THY    HP136867   2.825   4.543   5.151 -1.2785 -1.0145  2.3557
17632THY    CP236868   2.920   4.730   5.200  0.3959 -0.7191  0.0165
17632THY    HP236869   2.899   4.712   5.306  1.2213 -0.4862  0.3413
17632THY    HP336870   2.843   4.798   5.162  1.0031 -1.1375  0.4882
17632THY    HP436871   3.018   4.777   5.215 -0.2018 -0.6146  1.2619
17632THY    CP336872   3.033   4.509   5.135  0.1172  0.7598  0.4405
17632THY    HP536873   3.130   4.556   5.111  0.4502  0.3798 -0.4132
17632THY    HP636874   3.030   4.415   5.080 -0.9843  1.9259 -0.2247
17632THY    HP736875   3.052   4.478   5.238 -0.1380  0.9109  0.7737
17632THY    CA336876   2.963   4.719   4.898 -0.8924  0.4111 -0.0157
17632THY    HA336877   3.020   4.790   4.957  0.7907 -1.7743  0.5747
17632THY    CA436878   2.957   4.736   4.757  0.4323  0.1032  0.1471
17632THY    HA436879   3.006   4.821   4.710  1.7405  1.2657  0.0602
17632THY    CA536880   2.891   4.639   4.684  0.1716  0.6994 -0.2311
17632THY    CM136881   2.888   4.648   4.532 -0.1584 -0.4260 -0.1679
17632THY    HM136882   2.986   4.622   4.489 -0.8830 -0.9610 -2.2641
17632THY    HM236883   2.856   4.752   4.519 -0.2577 -0.2947 -0.1818
17632THY    HM336884   2.813   4.578   4.495 -0.2453  1.1165 -0.9241
17632THY    CA636885   2.819   4.531   4.745  0.6195  0.1696  0.1738
17632THY    HA636886   2.753   4.474   4.679  2.0942 -0.2894 -1.0658
17633THY      O36887   6.520   3.833   4.415 -0.0583  0.1469 -0.1088
17633THY     HO36888   6.477   3.891   4.350  3.3388 -1.7323  0.5611
17633THY    CA136889   6.577   3.913   4.514  0.4147  0.3992 -0.0509
17633THY    CA236890   6.675   3.865   4.601 -0.2754 -0.3733  0.1065
17633THY    CP136891   6.722   3.725   4.595  0.2389 -0.3186  0.3294
17633THY    HP136892   6.708   3.685   4.493  2.4380  0.2035 -1.9854
17633THY    CP236893   6.652   3.641   4.710 -0.6203  0.0058  0.6686
17633THY    HP236894   6.721   3.615   4.792  1.0875 -1.7444 -0.6374
17633THY    HP336895   6.607   3.552   4.666 -1.0419 -0.3735  1.0680
17633THY    HP436896   6.563   3.688   4.752 -0.3448  0.7684  0.5230
17633THY    CP336897   6.878   3.704   4.613  0.3478  0.3445  0.5647
17633THY    HP536898   6.916   3.749   4.706 -0.7147  0.5231  1.1081
17633THY    HP636899   6.929   3.747   4.527  0.5322  0.5840  0.8325
17633THY    HP736900   6.903   3.598   4.629 -1.5218 -2.6377 -0.4394
17633THY    CA336901   6.722   3.955   4.700 -0.2374  0.1896  0.0063
17633THY    HA336902   6.797   3.925   4.772  0.3261 -0.8303 -1.1839
17633THY    CA436903   6.690   4.092   4.695  1.0043 -0.3167  0.3479
17633THY    HA436904   6.734   4.163   4.765 -0.4609  0.4717  0.5174
17633THY    CA536905   6.597   4.139   4.601 -0.1669  0.7059  0.8334
17633THY    CM136906   6.543   4.280   4.584 -0.2136  0.6919 -0.0536
17633THY    HM136907   6.443   4.263   4.542  0.3571 -0.3354 -1.0215
17633THY    HM236908   6.599   4.329   4.504 -1.4462 -0.5330 -0.5638
17633THY    HM336909   6.536   4.345   4.672  1.2304  0.5629  0.2961
17633THY    CA636910   6.547   4.052   4.505  0.8145 -0.2169 -0.0559
17633THY    HA636911   6.477   4.091   4.432  0.9435 -0.2890  0.0407
17634THY      O36912   7.390   1.219   6.250  0.7623 -0.2640  0.1013
17634THY     HO36913   7.315   1.175   6.294 -0.0065 -0.2972  1.3279
17634THY    CA136914   7.345   1.342   6.225 -0.1771  0.1846  0.3456
17634THY    CA236915   7.410   1.420   6.129  0.3193 -0.6946 -0.1717
17634THY    CP136916   7.521   1.361   6.040 -0.1890 -0.8547 -0.4716
17634THY    HP136917   7.561   1.266   6.077  0.9895  1.0816  0.7265
17634THY    CP236918   7.643   1.451   6.035  0.3792  0.0156 -0.0256
17634THY    HP236919   7.727   1.397   5.992 -0.8888  0.5348 -2.5486
17634THY    HP336920   7.669   1.494   6.133 -0.3871  0.7403 -1.1689
17634THY    HP436921   7.630   1.539   5.970  2.3509 -0.6985 -0.2261
17634THY    CP336922   7.456   1.344   5.899  0.4745  0.1862 -0.5675
17634THY    HP536923   7.366   1.282   5.894 -1.2804 -2.4607  1.9279
17634THY    HP636924   7.531   1.305   5.828 -0.5001  0.2321 -2.6798
17634THY    HP736925   7.421   1.441   5.862 -0.2709  0.4116 -0.7507
17634THY    CA336926   7.364   1.554   6.103  0.7206  0.1138  0.2541
17634THY    HA336927   7.401   1.621   6.027  2.2405 -0.7956 -1.5254
17634THY    CA436928   7.258   1.599   6.178 -0.0617 -0.1729 -0.6913
17634THY    HA436929   7.231   1.704   6.168  2.7460 -1.3863  0.0057
17634THY    CA536930   7.195   1.518   6.276 -0.0552  0.7258 -0.7877
17634THY    CM136931   7.090   1.576   6.367 -0.0013 -1.2868  0.1197
17634THY    HM136932   7.081   1.682   6.341  1.4840  2.7799  1.4478
17634THY    HM236933   7.120   1.564   6.472 -0.7928 -1.1183 -0.4728
17634THY    HM336934   6.993   1.527   6.354 -1.0003 -0.7058  1.8692
17634THY    CA636935   7.233   1.385   6.296 -0.0637  0.9148 -0.8288
17634THY    HA636936   7.197   1.329   6.381  0.4483  1.4720 -0.3346
17635THY      O36937   5.686   6.707   5.023 -0.4077 -0.3440  0.1630
17635THY     HO36938   5.734   6.759   4.957 -0.2669 -0.4039 -0.0428
17635THY    CA136939   5.631   6.799   5.106  0.7619 -0.5998 -0.5459
17635THY    CA236940   5.543   6.762   5.211 -0.7804 -0.1175  0.1606
17635THY    CP136941   5.514   6.616   5.236 -0.6383  1.0048 -0.0935
17635THY    HP136942   5.535   6.563   5.141 -1.5032  1.2311 -0.8766
17635THY    CP236943   5.362   6.588   5.241 -0.0153  0.3858  0.1567
17635THY    HP236944   5.343   6.506   5.311  2.3853  0.3390 -0.5049
17635THY    HP336945   5.325   6.565   5.141  1.8025 -0.9269  2.4981
17635THY    HP436946   5.303   6.671   5.282  0.0179 -0.5633  0.6604
17635THY    CP336947   5.585   6.567   5.365  0.3610 -0.4364  0.4084
17635THY    HP536948   5.561   6.461   5.381 -0.8212  3.5186  1.0990
17635THY    HP636949   5.540   6.619   5.450 -0.1722 -0.3646 -0.1621
17635THY    HP736950   5.694   6.567   5.355  0.2818 -2.7744 -2.7746
17635THY    CA336951   5.484   6.857   5.292  0.5497  0.3111 -0.1966
17635THY    HA336952   5.411   6.833   5.368 -3.5200 -2.8743  1.0583
17635THY    CA436953   5.518   6.992   5.271 -0.0535  0.2844 -0.3127
17635THY    HA436954   5.473   7.073   5.328  1.2400 -2.0061  2.1943
17635THY    CA536955   5.615   7.026   5.178  0.1819 -0.0231 -0.0936
17635THY    CM136956   5.654   7.166   5.155  0.5479 -0.2771 -0.2147
17635THY    HM136957   5.622   7.193   5.054 -0.8296 -0.4927 -2.3770
17635THY    HM236958   5.763   7.171   5.163  0.5215  0.5656 -0.7129
17635THY    HM336959   5.606   7.233   5.227 -2.1991  1.1376 -3.3815
17635THY    CA636960   5.669   6.930   5.093  0.6172 -0.1010  0.1642
17635THY    HA636961   5.744   6.963   5.022 -0.1565 -0.3174  1.5630
17636THY      O36962   0.565   3.200   3.152 -0.3491 -0.4384 -0.2438
17636THY     HO36963   0.609   3.263   3.093 -2.7866 -0.7257  1.2979
17636THY    CA136964   0.663   3.166   3.248 -0.3379  0.3299 -0.1035
17636THY    CA236965   0.634   3.113   3.375 -0.2462 -0.3476 -0.4606
17636THY    CP136966   0.488   3.086   3.419 -1.0126 -0.2387  0.6826
17636THY    HP136967   0.447   3.032   3.332 -0.9892 -0.8533  1.6298
17636THY    CP236968   0.403   3.209   3.448 -0.1482  0.0740  0.2441
17636THY    HP236969   0.308   3.189   3.498  0.3594  0.7318 -0.6037
17636THY    HP336970   0.382   3.260   3.353 -1.8202  0.7272  0.8408
17636THY    HP436971   0.455   3.288   3.505 -1.1588  0.7803  0.4127
17636THY    CP336972   0.485   2.991   3.535 -0.7590 -0.8455  0.0473
17636THY    HP536973   0.384   2.956   3.558 -0.6104 -1.4782 -0.8232
17636THY    HP636974   0.527   3.041   3.624  0.5220 -0.6813 -1.2431
17636THY    HP736975   0.549   2.902   3.541 -1.1791  1.9089 -0.1623
17636THY    CA336976   0.746   3.077   3.461  0.1304  0.7930 -0.0292
17636THY    HA336977   0.727   3.037   3.560  3.3783  2.5717  2.3333
17636THY    CA436978   0.873   3.104   3.422  0.2507 -0.0303  1.0410
17636THY    HA436979   0.955   3.077   3.488  0.3804 -0.1834  1.0548
17636THY    CA536980   0.892   3.169   3.299  0.0493  0.6273  0.2160
17636THY    CM136981   1.032   3.196   3.269 -0.2900  0.4399  0.2677
17636THY    HM136982   1.099   3.113   3.297  2.0663 -3.1375  0.7515
17636THY    HM236983   1.081   3.287   3.304 -1.0314  1.2402  0.3765
17636THY    HM336984   1.041   3.198   3.160 -3.6852  0.0227 -0.5990
17636THY    CA636985   0.791   3.194   3.212 -0.0030 -0.2844  0.5506
17636THY    HA636986   0.805   3.244   3.116 -1.2006  0.5960  2.7003
17637THY      O36987   5.496   1.014   4.204 -0.0303 -0.2666 -0.0631
17637THY     HO36988   5.478   0.918   4.199 -0.3293  0.6233 -0.0591
17637THY    CA136989   5.375   1.072   4.188 -0.7489  0.1028  0.3653
17637THY    CA236990   5.346   1.201   4.249 -0.3273  0.3747 -0.5410
17637THY    CP136991   5.455   1.274   4.326  0.0230 -0.0951 -0.4062
17637THY    HP136992   5.526   1.198   4.362 -1.9542  0.9267 -1.8550
17637THY    CP236993   5.402   1.345   4.461  0.0517 -0.0393 -0.1448
17637THY    HP236994   5.374   1.268   4.534 -1.6193  1.0219  1.3846
17637THY    HP336995   5.313   1.406   4.441  0.0162  0.2100 -0.1139
17637THY    HP436996   5.485   1.398   4.511 -1.1563  0.5233  1.2906
17637THY    CP336997   5.529   1.381   4.241  0.5752  0.6649  0.1705
17637THY    HP536998   5.592   1.447   4.303 -1.7877  0.8394  2.4580
17637THY    HP636999   5.453   1.448   4.201  1.5599  1.0582  1.5828
17637THY    HP737000   5.582   1.342   4.154  0.1340  0.8985 -0.9580
17637THY    CA337001   5.220   1.261   4.220 -0.7238  0.3332 -0.0750
17637THY    HA337002   5.188   1.358   4.254 -1.5737 -1.2616  0.2411
17637THY    CA437003   5.120   1.194   4.145  0.4517  0.1807 -0.0763
17637THY    HA437004   5.025   1.243   4.127  0.1520  1.5997 -0.0648
17637THY    CA537005   5.151   1.069   4.096 -0.6883  0.5060  0.0384
17637THY    CM137006   5.047   0.997   4.021 -0.1024  0.1280 -0.0102
17637THY    HM137007   4.958   0.973   4.081 -0.6790  0.1798  2.0742
17637THY    HM237008   5.083   0.903   3.978 -2.1250  0.3348 -0.9402
17637THY    HM337009   5.010   1.054   3.935  0.9308 -0.2444  0.1219
17637THY    CA637010   5.270   1.004   4.119 -0.0605  0.0409  0.2794
17637THY    HA637011   5.278   0.902   4.083  1.2185 -0.2250  0.4555
17638THY      O37012   9.182   3.697   6.702  0.1151  0.0799  0.1362
17638THY     HO37013   9.270   3.656   6.711 -0.4746  0.1784 -1.1444
17638THY    CA137014   9.103   3.642   6.796 -0.4951  0.5525 -0.0789
17638THY    CA237015   8.969   3.657   6.790 -0.0973  0.4587 -0.1095
17638THY    CP137016   8.900   3.727   6.668  0.1571  0.4460 -0.0729
17638THY    HP137017   8.977   3.721   6.590  1.2972  1.5455 -0.3966
17638THY    CP237018   8.852   3.863   6.695 -0.3175 -0.4488 -0.0748
17638THY    HP237019   8.786   3.877   6.781  0.6598  0.1771  0.8038
17638THY    HP337020   8.820   3.923   6.609 -1.5566  1.7982  2.7104
17638THY    HP437021   8.940   3.917   6.733  0.8568 -2.1924 -0.6649
17638THY    CP337022   8.775   3.654   6.609  0.2095  0.2638  0.5979
17638THY    HP537023   8.685   3.660   6.671  0.1499  0.0720  1.9901
17638THY    HP637024   8.799   3.549   6.589  0.3362  0.9126  0.5005
17638THY    HP737025   8.744   3.697   6.513  3.3850 -1.7607 -1.2447
17638THY    CA337026   8.895   3.602   6.898 -0.0471 -0.4394  0.3732
17638THY    HA337027   8.787   3.605   6.893  0.0220 -2.0640  1.4546
17638THY    CA437028   8.952   3.542   7.002  0.1936 -0.3694 -0.6449
17638THY    HA437029   8.888   3.506   7.082  1.2533 -0.2276 -2.3236
17638THY    CA537030   9.088   3.518   6.999 -0.1013 -0.6530  0.0829
17638THY    CM137031   9.139   3.421   7.102 -0.4173  0.0269  0.2037
17638THY    HM137032   9.195   3.344   7.047 -0.0160 -1.4410  1.4878
17638THY    HM237033   9.058   3.370   7.155 -0.3428 -1.1064 -1.1706
17638THY    HM337034   9.201   3.468   7.179 -0.4544  0.0569  0.2028
17638THY    CA637035   9.163   3.570   6.894  0.3474 -0.3871  0.6826
17638THY    HA637036   9.269   3.549   6.888  0.2998 -1.6590  0.7530
17639THY      O37037   0.513   2.145   6.773 -0.0473  0.5435  0.0913
17639THY     HO37038   0.430   2.145   6.824  0.2834  1.0895 -0.6953
17639THY    CA137039   0.608   2.116   6.863  0.3777 -0.9150  0.0141
17639THY    CA237040   0.731   2.079   6.819  0.0437 -0.1680 -0.4816
17639THY    CP137041   0.770   2.088   6.672  0.5415  0.4874  0.7457
17639THY    HP137042   0.681   2.121   6.618 -0.6773  1.4159 -0.8685
17639THY    CP237043   0.786   1.945   6.622 -0.4545  0.6979 -0.4772
17639THY    HP237044   0.871   1.895   6.670 -0.4177 -1.0096 -2.1622
17639THY    HP337045   0.788   1.956   6.513 -2.4441  0.8667  2.8185
17639THY    HP437046   0.697   1.889   6.651 -0.0999 -0.8182 -1.9052
17639THY    CP337047   0.888   2.183   6.635  0.1351  0.0376  0.3796
17639THY    HP537048   0.917   2.153   6.533 -0.1400  0.4666 -1.4515
17639THY    HP637049   0.971   2.169   6.704  1.3632 -1.8329 -2.8936
17639THY    HP737050   0.848   2.284   6.645  0.4619  2.5302  0.3011
17639THY    CA337051   0.824   2.035   6.919  0.3241 -0.7944  0.0895
17639THY    HA337052   0.921   1.994   6.890  0.2310 -0.2015 -0.5741
17639THY    CA437053   0.789   2.033   7.052  0.0858 -0.4386 -0.4062
17639THY    HA437054   0.863   1.997   7.123  0.1888 -1.0076 -1.3724
17639THY    CA537055   0.659   2.072   7.089 -0.8140 -0.9060  0.1842
17639THY    CM137056   0.613   2.055   7.233 -0.5963 -0.3120 -0.1896
17639THY    HM137057   0.665   2.102   7.317 -0.8433 -0.3252  0.1073
17639THY    HM237058   0.620   1.952   7.272  1.8165  2.1519  0.7798
17639THY    HM337059   0.509   2.088   7.240 -0.3147  2.1199  0.3577
17639THY    CA637060   0.573   2.114   6.995  0.0770 -0.0414 -0.2247
17639THY    HA637061   0.469   2.134   7.018 -0.0847 -2.2154  1.9280
17640THY      O37062   7.565   5.099   6.141  0.0872  0.2301  0.4249
17640THY     HO37063   7.566   5.017   6.193  1.2428  0.1814  0.3830
17640THY    CA137064   7.488   5.089   6.037 -0.5171  0.7103  0.1640
17640THY    CA237065   7.420   5.200   5.986  0.6726 -0.6969 -0.4503
17640THY    CP137066   7.438   5.348   6.026 -0.5019 -0.8846  0.3417
17640THY    HP137067   7.496   5.358   6.119 -1.8765  0.2356 -1.4238
17640THY    CP237068   7.306   5.405   6.064 -0.2495  0.1724 -0.4074
17640THY    HP237069   7.262   5.455   5.977 -2.5858  1.3104 -0.3005
17640THY    HP337070   7.317   5.480   6.144 -1.9655 -1.1095  1.3035
17640THY    HP437071   7.239   5.324   6.096  0.6567 -1.3359 -1.8098
17640THY    CP337072   7.515   5.426   5.916 -0.0508  0.5300 -0.2495
17640THY    HP537073   7.616   5.385   5.900 -0.3361  0.5301 -0.9705
17640THY    HP637074   7.520   5.534   5.935  0.2857  0.3412 -0.2318
17640THY    HP737075   7.469   5.423   5.817  0.7957  0.1358 -2.6900
17640THY    CA337076   7.322   5.178   5.886  0.9479 -0.2636  0.1160
17640THY    HA337077   7.268   5.263   5.845  0.5973  1.3395  0.6961
17640THY    CA437078   7.305   5.050   5.830 -0.1300  0.6240 -0.4180
17640THY    HA437079   7.219   5.038   5.764 -0.1460 -0.1152  2.7390
17640THY    CA537080   7.377   4.941   5.887  0.2277 -0.8154  0.0334
17640THY    CM137081   7.352   4.794   5.848 -0.1346  0.6465  0.4756
17640THY    HM137082   7.440   4.749   5.801  0.4586  0.3261  1.9103
17640THY    HM237083   7.275   4.789   5.770  1.1808 -0.6928  0.4974
17640THY    HM337084   7.324   4.732   5.935  0.6936  0.5690 -0.0251
17640THY    CA637085   7.472   4.959   5.985 -0.1582 -0.9263  0.6590
17640THY    HA637086   7.522   4.873   6.028  2.2800  0.4054  2.5954
17641THY      O37087   2.693   5.985   5.495 -0.2770  0.3835  0.1048
17641THY     HO37088   2.759   6.030   5.552  3.2961 -0.9753 -2.9414
17641THY    CA137089   2.779   5.930   5.407 -0.1091 -0.0585  0.0608
17641THY    CA237090   2.755   5.941   5.271  0.3134  0.2897 -0.1338
17641THY    CP137091   2.617   5.999   5.215 -0.0958  0.6576  0.2047
17641THY    HP137092   2.554   6.037   5.297 -2.3510 -0.5048 -0.8051
17641THY    CP237093   2.533   5.892   5.139  0.5317  0.1428  0.3515
17641THY    HP237094   2.587   5.831   5.065  0.0155 -1.8159  2.1350
17641THY    HP337095   2.440   5.925   5.090  0.0886 -2.1962 -3.7230
17641THY    HP437096   2.504   5.817   5.213  2.6723  0.3591 -0.3218
17641THY    CP337097   2.647   6.112   5.118  0.7789  0.2878 -0.5205
17641THY    HP537098   2.703   6.085   5.028 -0.8215 -0.8441 -0.2497
17641THY    HP637099   2.704   6.189   5.171 -1.3506  0.5706  0.9349
17641THY    HP737100   2.553   6.158   5.086 -0.2201  0.3560 -2.3972
17641THY    CA337101   2.859   5.898   5.190  0.8026 -0.2166  0.6758
17641THY    HA337102   2.849   5.916   5.083  1.3020 -0.3747  0.0529
17641THY    CA437103   2.988   5.862   5.238  0.1181  0.8457  0.1465
17641THY    HA437104   3.068   5.840   5.169 -0.1098  0.4158  0.6413
17641THY    CA537105   3.007   5.854   5.375 -0.0435  0.8363  0.1847
17641THY    CM137106   3.135   5.816   5.432  0.0681 -0.1442 -0.6517
17641THY    HM137107   3.190   5.909   5.444 -0.7429 -0.7399 -0.0828
17641THY    HM237108   3.186   5.745   5.366  1.4075 -0.4434  0.5670
17641THY    HM337109   3.118   5.777   5.534 -1.5109 -0.0231  0.2532
17641THY    CA637110   2.898   5.883   5.457 -0.1384  0.4440  0.3091
17641THY    HA637111   2.912   5.878   5.565 -2.7607  0.8496  0.3654
17642THY      O37112   2.718   3.303   7.466  0.1656 -0.2654 -0.0750
17642THY     HO37113   2.627   3.331   7.487  0.5877  0.1883  1.0195
17642THY    CA137114   2.742   3.217   7.568 -0.1305  0.0380 -0.2638
17642THY    CA237115   2.873   3.187   7.610  0.3482 -0.3286 -0.2840
17642THY    CP137116   2.989   3.249   7.536 -0.2245  0.2592 -0.0319
17642THY    HP137117   2.966   3.337   7.475 -1.3810 -1.5679 -1.5091
17642THY    CP237118   3.054   3.146   7.444  0.1112  0.3766 -0.1939
17642THY    HP237119   3.112   3.077   7.507 -1.9175  1.2302 -1.2048
17642THY    HP337120   3.125   3.195   7.377  1.5418  2.4215  0.6545
17642THY    HP437121   2.980   3.092   7.383 -1.4862 -0.4811  2.7457
17642THY    CP337122   3.078   3.309   7.634  0.0486 -0.1920  0.0196
17642THY    HP537123   3.022   3.371   7.706 -0.4203 -0.4338 -0.1190
17642THY    HP637124   3.154   3.374   7.590  1.3012  2.4851  0.4928
17642THY    HP737125   3.141   3.236   7.686  2.7203 -1.1865  1.4879
17642THY    CA337126   2.896   3.096   7.713 -0.1781  0.2677  0.3372
17642THY    HA337127   2.994   3.075   7.755 -1.0407  1.9766 -0.3669
17642THY    CA437128   2.781   3.045   7.778 -0.1408  0.0462 -0.5266
17642THY    HA437129   2.792   2.976   7.861  0.8171 -0.0760 -0.5261
17642THY    CA537130   2.652   3.061   7.725 -0.2040  0.0507 -0.4613
17642THY    CM137131   2.527   3.001   7.794 -0.4239  0.1036  0.1373
17642THY    HM137132   2.456   2.959   7.721 -1.3391  0.6521  0.6995
17642THY    HM237133   2.485   3.082   7.854  2.6681 -1.1811  2.9377
17642THY    HM337134   2.560   2.920   7.860 -0.5823 -0.9544 -0.8293
17642THY    CA637135   2.633   3.151   7.616  0.2213 -0.4642 -0.4403
17642THY    HA637136   2.527   3.163   7.595 -0.6520  2.7682 -1.2424
17643THY      O37137   8.531   6.932   7.414 -0.4076  0.0370 -0.2582
17643THY     HO37138   8.605   6.899   7.468  1.3616 -2.8098 -1.2542
17643THY    CA137139   8.552   7.061   7.398  0.3182 -0.6590  0.1400
17643THY    CA237140   8.460   7.157   7.357  0.2360  0.0912 -0.0948
17643THY    CP137141   8.323   7.118   7.321  0.0532  0.6274  0.1132
17643THY    HP137142   8.299   7.013   7.342  1.1954 -1.4788 -0.6239
17643THY    CP237143   8.312   7.129   7.169  0.0407 -0.5643 -0.2498
17643THY    HP237144   8.220   7.078   7.139 -1.2282 -1.9378  2.6195
17643THY    HP337145   8.393   7.080   7.113  0.1555 -0.3278 -0.3281
17643THY    HP437146   8.300   7.235   7.143  1.8284 -0.3604  0.0447
17643THY    CP337147   8.215   7.201   7.382 -0.2445 -0.6183  0.4395
17643THY    HP537148   8.229   7.170   7.486  1.0794 -1.8407 -3.6831
17643THY    HP637149   8.116   7.162   7.353 -0.1854 -1.0035  0.5654
17643THY    HP737150   8.218   7.308   7.360  1.7891 -0.5191  0.4384
17643THY    CA337151   8.506   7.296   7.354  0.6961 -0.7716  0.3132
17643THY    HA337152   8.442   7.376   7.319 -1.5875  1.7598 -0.2705
17643THY    CA437153   8.635   7.331   7.397  0.3923 -0.5342  0.1747
17643THY    HA437154   8.656   7.438   7.401  0.2765  1.9685  0.1568
17643THY    CA537155   8.726   7.235   7.433 -0.3432 -0.2958  0.5163
17643THY    CM137156   8.864   7.262   7.452  0.8992  0.1161 -0.6768
17643THY    HM137157   8.894   7.367   7.465 -1.1491  1.6652 -0.2186
17643THY    HM237158   8.925   7.243   7.363  1.4255  0.1385  0.7614
17643THY    HM337159   8.905   7.210   7.539  0.0033  0.6558 -0.5089
17643THY    CA637160   8.687   7.101   7.431  0.6022  0.2756  0.0322
17643THY    HA637161   8.752   7.026   7.476 -0.8499  2.3739 -0.0724
17644THY      O37162   3.577   5.794   7.601 -0.3727 -0.5131 -0.1492
17644THY     HO37163   3.498   5.817   7.549 -1.1800  0.6502 -0.1430
17644THY    CA137164   3.671   5.887   7.588  0.1465  0.3029  0.6738
17644THY    CA237165   3.806   5.848   7.587 -0.2651  0.0261 -0.5683
17644THY    CP137166   3.848   5.700   7.608 -0.0734 -0.1955  0.4788
17644THY    HP137167   3.766   5.636   7.644 -0.0127  1.0034  1.0518
17644THY    CP237168   3.962   5.683   7.711 -0.6000  0.1008  0.2748
17644THY    HP237169   3.950   5.596   7.776 -1.6188  0.0997  0.4067
17644THY    HP337170   3.970   5.773   7.774  1.4433  0.2511  0.0225
17644THY    HP437171   4.059   5.682   7.660  0.4936  1.9807  2.0816
17644THY    CP337172   3.896   5.644   7.472 -0.0358  1.1016  0.3983
17644THY    HP537173   3.947   5.550   7.495 -0.4060  1.6133  0.3228
17644THY    HP637174   3.965   5.715   7.424 -1.7437  0.5235  1.7501
17644THY    HP737175   3.812   5.634   7.403 -0.4951  1.5632  0.9859
17644THY    CA337176   3.908   5.941   7.562  0.0133  0.6792 -0.3158
17644THY    HA337177   4.012   5.911   7.550  0.6868  2.2381  1.2494
17644THY    CA437178   3.867   6.067   7.536 -0.7809  0.8853 -0.2402
17644THY    HA437179   3.941   6.144   7.515 -2.1335  0.7323  1.0563
17644THY    CA537180   3.731   6.107   7.539  1.0770  0.1874  0.3437
17644THY    CM137181   3.691   6.248   7.503 -0.0847 -0.3757 -0.6069
17644THY    HM137182   3.771   6.297   7.446 -0.4525 -1.9007 -1.6872
17644THY    HM237183   3.666   6.298   7.597 -2.9577  0.8082 -3.8571
17644THY    HM337184   3.610   6.260   7.429  1.3935 -1.7597  1.7398
17644THY    CA637185   3.629   6.016   7.563 -0.2368 -0.1482  0.2009
17644THY    HA637186   3.526   6.050   7.560  0.0638  2.0243  1.4644
17645THY      O37187   3.774   5.822   7.018  0.4381  0.1725 -0.1121
17645THY     HO37188   3.785   5.726   7.010 -2.2259 -2.3422 -0.3177
17645THY    CA137189   3.885   5.883   6.978  0.9703  0.1501 -0.1268
17645THY    CA237190   3.885   6.022   6.969 -1.0062  1.5466 -0.4791
17645THY    CP137191   3.768   6.101   7.036  0.1538 -0.4783  0.1111
17645THY    HP137192   3.670   6.054   7.023 -0.2833  1.2874  0.4762
17645THY    CP237193   3.757   6.242   6.975  0.1808  0.3803  0.0454
17645THY    HP237194   3.731   6.232   6.869  1.7479 -0.0697  0.4810
17645THY    HP337195   3.839   6.312   6.987 -1.0350  2.6922  1.1849
17645THY    HP437196   3.668   6.295   7.012  0.5389 -0.2852  1.1190
17645THY    CP337197   3.790   6.105   7.183  0.4854 -0.1036 -0.3499
17645THY    HP537198   3.869   6.174   7.213 -0.5050  1.1688  0.2664
17645THY    HP637199   3.829   6.008   7.217 -0.2509 -1.2553 -1.0808
17645THY    HP737200   3.700   6.127   7.241  1.4630  0.2787  3.1267
17645THY    CA337201   4.005   6.086   6.919  0.5422 -0.2518 -0.0914
17645THY    HA337202   4.020   6.193   6.922 -0.3215 -0.3209  0.0348
17645THY    CA437203   4.116   6.001   6.898 -0.8122 -0.7043 -0.3157
17645THY    HA437204   4.212   6.048   6.879  0.1812  1.3818 -1.3646
17645THY    CA537205   4.117   5.866   6.925  1.1397 -0.1663 -0.5191
17645THY    CM137206   4.242   5.784   6.925 -0.4766 -0.3820 -0.1081
17645THY    HM137207   4.242   5.674   6.924  1.0165 -1.5056 -0.1255
17645THY    HM237208   4.312   5.815   7.003 -1.4390  0.2226  0.6064
17645THY    HM337209   4.281   5.814   6.827 -0.2346 -0.7402 -1.5047
17645THY    CA637210   3.999   5.809   6.970 -0.0573  0.2862 -0.1716
17645THY    HA637211   4.003   5.700   6.973  4.7513 -1.5185 -0.2850
17646THY      O37212   7.617   8.443   4.029 -0.6040  0.1707  0.3375
17646THY     HO37213   7.643   8.372   4.091  0.2941 -3.7953 -3.2176
17646THY    CA137214   7.497   8.407   3.973 -0.1752 -0.7657  0.2510
17646THY    CA237215   7.422   8.505   3.905 -0.6995 -0.3331  0.1838
17646THY    CP137216   7.471   8.651   3.915 -0.0301 -0.1928 -0.6188
17646THY    HP137217   7.579   8.645   3.896 -0.2230 -1.1431 -1.4886
17646THY    CP237218   7.445   8.722   4.056  0.3549 -0.2023 -0.2381
17646THY    HP237219   7.495   8.657   4.129  0.1828 -1.3388 -1.7099
17646THY    HP337220   7.336   8.722   4.064  0.3338 -0.2993 -1.2354
17646THY    HP437221   7.487   8.823   4.059 -0.3915 -1.1402  0.1134
17646THY    CP337222   7.427   8.749   3.805  0.1902 -0.2678 -0.4740
17646THY    HP537223   7.320   8.765   3.821  0.6632  0.3978  2.4923
17646THY    HP637224   7.438   8.707   3.704  0.3438  0.2967 -1.8696
17646THY    HP737225   7.480   8.845   3.805  0.7439  0.5740 -0.7618
17646THY    CA337226   7.313   8.459   3.827  0.5285  0.7333 -0.1569
17646THY    HA337227   7.248   8.528   3.776  0.9904 -0.3406 -0.4842
17646THY    CA437228   7.287   8.325   3.820 -0.2663 -0.2214 -0.6371
17646THY    HA437229   7.215   8.291   3.747 -1.6158 -0.4141  2.3172
17646THY    CA537230   7.355   8.237   3.897 -0.0306  0.0327  0.3169
17646THY    CM137231   7.343   8.089   3.889 -0.3996 -0.6280  0.1167
17646THY    HM137232   7.437   8.046   3.854 -1.2832 -3.0707 -0.0110
17646THY    HM237233   7.273   8.062   3.808  0.3057 -1.4882  0.8168
17646THY    HM337234   7.312   8.045   3.984  0.9059 -1.0753 -1.8796
17646THY    CA637235   7.462   8.276   3.979 -0.6114  0.4847  0.3024
17646THY    HA637236   7.519   8.199   4.030  0.1350 -1.4880 -0.5225
17647THY      O37237   2.826   1.706   3.856  0.0165 -0.1906  0.1147
17647THY     HO37238   2.772   1.776   3.897 -1.6769 -0.0262 -1.1984
17647THY    CA137239   2.751   1.601   3.897  0.3614  0.3893 -0.0730
17647THY    CA237240   2.799   1.469   3.907 -0.4852 -0.2754 -0.1028
17647THY    CP137241   2.945   1.443   3.877 -0.4207  0.3448  0.0212
17647THY    HP137242   2.993   1.537   3.906  0.4380  1.5875 -0.7680
17647THY    CP237243   2.950   1.420   3.727  0.0560 -0.7270  0.3044
17647THY    HP237244   3.054   1.402   3.694  0.2939  0.0689  0.1689
17647THY    HP337245   2.914   1.507   3.671  2.8874 -0.6717  1.6267
17647THY    HP437246   2.893   1.329   3.704  0.9434  0.4427 -0.5926
17647THY    CP337247   3.002   1.326   3.955 -0.6031 -0.9206 -0.0387
17647THY    HP537248   2.979   1.232   3.904 -1.7611 -0.3290 -0.1061
17647THY    HP637249   2.963   1.328   4.058 -0.1021 -0.7232 -0.3228
17647THY    HP737250   3.111   1.330   3.959 -0.6715  1.0764  1.4893
17647THY    CA337251   2.709   1.366   3.937  0.9655 -0.7982 -0.0404
17647THY    HA337252   2.750   1.265   3.932  0.7948 -2.7938 -0.0582
17647THY    CA437253   2.572   1.393   3.954 -0.0845 -0.1264 -0.0748
17647THY    HA437254   2.499   1.313   3.962  0.0955 -2.8802 -0.6134
17647THY    CA537255   2.534   1.526   3.952  0.3610 -0.0093 -0.2787
17647THY    CM137256   2.383   1.545   3.971 -0.2755  0.5019  0.2876
17647THY    HM137257   2.338   1.495   4.057  0.6611  0.1773 -1.1794
17647THY    HM237258   2.335   1.497   3.885 -0.0296  0.8220 -0.5501
17647THY    HM337259   2.352   1.649   3.984  2.5827  0.2620  1.2651
17647THY    CA637260   2.622   1.633   3.933  0.4766  0.0104  0.2149
17647THY    HA637261   2.591   1.735   3.912  0.1444 -0.8777 -0.0659
17648THY      O37262   5.395   8.178   6.855 -0.3575  0.3383 -0.4445
17648THY     HO37263   5.481   8.201   6.815 -1.1112 -0.7466  0.6270
17648THY    CA137264   5.297   8.217   6.758  0.1350 -0.4187  0.0154
17648THY    CA237265   5.169   8.157   6.759  0.9239  0.4116  0.0731
17648THY    CP137266   5.131   8.063   6.877  0.8364 -0.0414  0.5040
17648THY    HP137267   5.168   8.097   6.975  0.9107 -0.4016  1.4837
17648THY    CP237268   5.172   7.922   6.846 -0.8724 -0.2333  0.2645
17648THY    HP237269   5.147   7.849   6.923 -3.6698 -1.0836  0.1892
17648THY    HP337270   5.281   7.927   6.848 -0.8698  1.4282 -0.0622
17648THY    HP437271   5.120   7.895   6.753 -0.3416 -0.4127 -0.1678
17648THY    CP337272   4.981   8.062   6.900 -0.9420 -0.2418 -0.1888
17648THY    HP537273   4.964   8.001   6.990  1.2312  1.4050  1.4525
17648THY    HP637274   4.928   8.016   6.816 -1.0448  0.8920 -2.2471
17648THY    HP737275   4.941   8.162   6.923  0.4463 -0.3761  0.4239
17648THY    CA337276   5.086   8.183   6.643  0.2355 -0.2038  0.2849
17648THY    HA337277   4.986   8.139   6.639  0.6711 -0.2830 -0.7426
17648THY    CA437278   5.137   8.269   6.542  0.2787 -0.4756  0.0879
17648THY    HA437279   5.070   8.284   6.458 -0.8386  0.3001 -0.4174
17648THY    CA537280   5.262   8.330   6.548 -0.2805 -0.2759  0.1883
17648THY    CM137281   5.308   8.423   6.440 -0.1779 -0.4952 -0.6106
17648THY    HM137282   5.392   8.483   6.477 -0.3464 -1.9017  0.5416
17648THY    HM237283   5.224   8.485   6.407 -0.0087  0.6727  0.2836
17648THY    HM337284   5.336   8.369   6.349 -0.1366  0.4216 -2.2008
17648THY    CA637285   5.337   8.306   6.664 -0.5357 -0.0501  0.4602
17648THY    HA637286   5.430   8.361   6.675 -1.0633  1.3245  1.1120
17649THY      O37287   5.049   8.296   7.652  0.7894  0.1239 -0.4295
17649THY     HO37288   4.990   8.232   7.610 -0.5262  0.1783  0.7115
17649THY    CA137289   5.157   8.317   7.571 -0.6639  1.0471 -0.0672
17649THY    CA237290   5.268   8.395   7.606  0.3310  0.0522 -0.3398
17649THY    CP137291   5.272   8.463   7.748  0.7578  0.0078 -0.4480
17649THY    HP137292   5.191   8.417   7.807 -3.9785 -0.9304  5.4325
17649THY    CP237293   5.255   8.612   7.741  0.4191  0.4303 -0.0481
17649THY    HP237294   5.152   8.623   7.705  0.2360  1.3812  1.6102
17649THY    HP337295   5.335   8.645   7.674  0.0462  0.4402  0.9107
17649THY    HP437296   5.263   8.650   7.843  1.2922  0.6290 -0.7361
17649THY    CP337297   5.406   8.439   7.832 -0.3237  0.6090  0.2385
17649THY    HP537298   5.485   8.463   7.759  1.8469  2.8493  0.3519
17649THY    HP637299   5.423   8.332   7.849  1.1722 -0.2638  0.2984
17649THY    HP737300   5.411   8.505   7.919  0.3638  0.5424  0.2848
17649THY    CA337301   5.373   8.411   7.514 -0.1147  0.5235  0.0511
17649THY    HA337302   5.461   8.469   7.540  0.3857 -0.3344 -0.2963
17649THY    CA437303   5.367   8.366   7.385  0.0399 -0.4892 -0.1085
17649THY    HA437304   5.449   8.378   7.315  0.3659 -0.3686 -1.4981
17649THY    CA537305   5.249   8.296   7.349 -0.1611  0.1751  0.7706
17649THY    CM137306   5.235   8.239   7.204 -0.1665 -0.4304  0.2079
17649THY    HM137307   5.279   8.307   7.131  1.7405 -0.2833 -0.7855
17649THY    HM237308   5.135   8.209   7.171 -0.1344 -0.5613  0.2447
17649THY    HM337309   5.287   8.143   7.193 -0.6397 -1.0116  0.0137
17649THY    CA637310   5.156   8.263   7.445 -0.1038 -0.5146  0.2871
17649THY    HA637311   5.091   8.179   7.422  0.3261 -0.0408 -0.1855
17650THY      O37312   2.539   8.799   7.194 -0.3139  0.0491  0.6446
17650THY     HO37313   2.607   8.736   7.163 -1.6030 -1.3008 -0.1613
17650THY    CA137314   2.438   8.714   7.195 -0.2290 -1.1698 -0.2866
17650THY    CA237315   2.311   8.743   7.254 -0.2677 -0.5271  0.5392
17650THY    CP137316   2.291   8.881   7.310 -0.6665  0.9279  0.0813
17650THY    HP137317   2.371   8.906   7.381  0.5083  0.0883 -1.1343
17650THY    CP237318   2.159   8.895   7.381  0.7886 -0.1371  0.4031
17650THY    HP237319   2.138   9.001   7.400 -0.5680  0.9052 -0.0250
17650THY    HP337320   2.153   8.838   7.474 -0.9770  0.2107  1.0832
17650THY    HP437321   2.083   8.862   7.310  0.4566  0.0782  0.7021
17650THY    CP337322   2.295   8.988   7.196  0.4052 -0.3738  0.4603
17650THY    HP537323   2.206   8.984   7.132  1.3974 -1.7571 -0.5476
17650THY    HP637324   2.379   8.971   7.128  1.3782  0.4647  1.7402
17650THY    HP737325   2.318   9.088   7.234  1.9714 -1.9664  0.7647
17650THY    CA337326   2.212   8.637   7.255 -0.5720  1.1217  1.2160
17650THY    HA337327   2.114   8.646   7.301 -0.1992  2.7769 -1.8708
17650THY    CA437328   2.243   8.513   7.194 -0.3386  0.0918 -0.1531
17650THY    HA437329   2.165   8.438   7.185 -0.2692  0.0558 -0.2207
17650THY    CA537330   2.371   8.496   7.143  0.3470 -0.1438  0.1006
17650THY    CM137331   2.387   8.359   7.065 -0.2582 -0.1976 -0.4886
17650THY    HM137332   2.362   8.270   7.124  0.4686  0.2466 -0.4011
17650THY    HM237333   2.492   8.345   7.037 -0.0438  0.7814 -0.9385
17650THY    HM337334   2.326   8.366   6.974 -0.0360 -0.3590 -0.6335
17650THY    CA637335   2.469   8.589   7.142  0.0307 -0.2221 -0.1712
17650THY    HA637336   2.560   8.568   7.087 -0.3802 -1.0246  0.1192
17651THY      O37337   6.392   7.065   7.414 -0.2120 -0.2765  0.6175
17651THY     HO37338   6.372   7.154   7.446  2.4501  1.6494  0.6447
17651THY    CA137339   6.320   7.041   7.301 -0.2915  0.3213 -0.7726
17651THY    CA237340   6.251   6.922   7.274  0.7220  0.1159  0.5879
17651THY    CP137341   6.256   6.808   7.377 -0.3887 -0.4321  0.2943
17651THY    HP137342   6.267   6.837   7.482  0.6801 -0.0847 -1.2476
17651THY    CP237343   6.371   6.711   7.341 -0.5107 -0.3250  1.1972
17651THY    HP237344   6.368   6.670   7.240  1.9895 -0.9435  2.3173
17651THY    HP337345   6.390   6.633   7.415  3.6491 -1.1234  1.1956
17651THY    HP437346   6.462   6.771   7.359  0.2408 -2.5222  0.8072
17651THY    CP337347   6.120   6.725   7.371 -0.6352 -0.3754  0.2687
17651THY    HP537348   6.028   6.781   7.393 -0.6224 -1.5566  0.7814
17651THY    HP637349   6.109   6.655   7.455  1.4581  1.0347  1.5135
17651THY    HP737350   6.110   6.676   7.274  0.7634 -1.4851  2.0700
17651THY    CA337351   6.207   6.903   7.140 -0.1503  0.4650  0.1050
17651THY    HA337352   6.153   6.812   7.117 -0.1782  1.1153 -0.0443
17651THY    CA437353   6.216   7.007   7.042 -0.6813  0.1233 -0.3223
17651THY    HA437354   6.184   6.991   6.940 -2.5228  0.8555 -1.6483
17651THY    CA537355   6.280   7.130   7.079 -0.5448  0.1107 -0.0828
17651THY    CM137356   6.309   7.241   6.977  0.0312  0.0819 -0.6782
17651THY    HM137357   6.404   7.230   6.924 -0.6547 -1.4547  0.4325
17651THY    HM237358   6.312   7.340   7.022  2.0168 -1.4804  0.0438
17651THY    HM337359   6.233   7.237   6.897 -0.3036  0.3564  0.0184
17651THY    CA637360   6.326   7.145   7.208 -0.1281 -0.7184  0.3131
17651THY    HA637361   6.384   7.233   7.231 -0.1632 -1.9997  0.6817
17652THY      O37362   9.551   1.965   3.201 -0.0331  0.0691 -0.1131
17652THY     HO37363   9.559   2.062   3.200  2.4232 -1.4209 -0.2234
17652THY    CA137364   9.423   1.936   3.224  0.2345 -0.1279  0.0514
17652THY    CA237365   9.371   1.804   3.209 -0.4730 -1.2245 -0.1728
17652THY    CP137366   9.466   1.687   3.186  0.2156 -0.6817  0.2670
17652THY    HP137367   9.548   1.720   3.122  0.2074 -0.8922 -0.1103
17652THY    CP237368   9.405   1.571   3.095  0.7244 -0.9089  0.0495
17652THY    HP237369   9.356   1.622   3.012 -0.3183 -0.9935 -1.0379
17652THY    HP337370   9.329   1.509   3.145 -0.1368 -2.2811 -0.0414
17652THY    HP437371   9.476   1.497   3.057 -0.1632 -0.4196 -1.0917
17652THY    CP337372   9.520   1.617   3.311 -0.6108  0.9724 -0.3197
17652THY    HP537373   9.433   1.596   3.374 -1.3873  0.4285  1.0395
17652THY    HP637374   9.589   1.687   3.359 -1.1965  0.4132  0.6673
17652THY    HP737375   9.569   1.523   3.283 -0.5139  0.0715 -0.0191
17652THY    CA337376   9.229   1.781   3.219 -0.0094 -0.6882 -0.6037
17652THY    HA337377   9.183   1.684   3.206  0.3386 -0.1240 -0.8530
17652THY    CA437378   9.148   1.893   3.238 -0.4025  0.1517 -0.0613
17652THY    HA437379   9.041   1.884   3.248 -0.3841  1.2728  0.7662
17652THY    CA537380   9.201   2.021   3.259 -0.4718 -0.4437  0.7442
17652THY    CM137381   9.115   2.139   3.266 -0.1140 -0.2925 -0.6095
17652THY    HM137382   9.005   2.137   3.263 -0.3144 -0.2220  2.9096
17652THY    HM237383   9.148   2.191   3.175  1.1708 -1.2619 -2.9739
17652THY    HM337384   9.148   2.195   3.354  0.6799  0.7546 -2.6336
17652THY    CA637385   9.342   2.042   3.257 -0.3136  0.1691 -0.7452
17652THY    HA637386   9.378   2.145   3.260 -1.1603 -0.7462 -0.4005
17653THY      O37387   5.677   2.535   5.518 -0.1425 -0.4701 -0.0764
17653THY     HO37388   5.741   2.464   5.499  1.6477  2.1736  0.6821
17653THY    CA137389   5.688   2.545   5.653  1.1163 -0.4378 -0.2440
17653THY    CA237390   5.570   2.577   5.726  1.5650 -0.4136 -0.3566
17653THY    CP137391   5.438   2.609   5.647  0.2490  0.3205 -0.4753
17653THY    HP137392   5.460   2.635   5.543 -0.0872  1.0880  3.5051
17653THY    CP237393   5.356   2.738   5.691 -0.4624 -0.5265 -0.2120
17653THY    HP237394   5.335   2.737   5.799 -1.3932 -0.6740  1.4914
17653THY    HP337395   5.259   2.742   5.642 -0.6945 -0.0101  0.6478
17653THY    HP437396   5.420   2.824   5.670 -1.9748  1.7098  1.5648
17653THY    CP337397   5.348   2.493   5.655  0.6096  0.2563  0.4080
17653THY    HP537398   5.312   2.480   5.758  2.1295  0.8333  0.5476
17653THY    HP637399   5.397   2.395   5.642  1.1311 -0.1118  0.7141
17653THY    HP737400   5.263   2.507   5.588 -0.3418  1.4863  0.6906
17653THY    CA337401   5.571   2.580   5.868 -0.1868 -0.3585  0.1931
17653THY    HA337402   5.477   2.604   5.916 -0.0455 -0.3819  0.8121
17653THY    CA437403   5.688   2.538   5.934 -0.1297 -0.5983 -0.2706
17653THY    HA437404   5.686   2.537   6.043 -0.9184 -0.6036  0.0912
17653THY    CA537405   5.805   2.505   5.860 -0.5238  0.1547  0.2938
17653THY    CM137406   5.926   2.454   5.933  1.2962  0.7258 -0.2081
17653THY    HM137407   5.905   2.449   6.040 -0.1426  0.4894  0.3162
17653THY    HM237408   6.012   2.518   5.910  1.0417  2.7570  0.9547
17653THY    HM337409   5.952   2.353   5.899 -0.8810 -0.3890 -0.4635
17653THY    CA637410   5.805   2.512   5.722 -0.4501 -0.0775  0.2125
17653THY    HA637411   5.890   2.472   5.667 -0.1465 -0.0470  0.8063
17654THY      O37412   3.087   4.109   2.701  0.3971 -0.2870  0.9161
17654THY     HO37413   3.015   4.053   2.669  0.4288  0.1036  0.6475
17654THY    CA137414   3.117   4.052   2.825 -0.3931  0.7712 -0.3331
17654THY    CA237415   3.194   4.110   2.924  0.5380 -0.0079 -0.5304
17654THY    CP137416   3.247   4.250   2.905 -0.2794 -0.4509 -0.0818
17654THY    HP137417   3.302   4.244   2.810  0.6141  0.1325 -1.8974
17654THY    CP237418   3.360   4.297   3.008  0.0779  0.4367  0.2570
17654THY    HP237419   3.441   4.223   3.012  0.6054  0.3079  0.8199
17654THY    HP337420   3.324   4.315   3.109  0.0119  0.4728 -0.0698
17654THY    HP437421   3.393   4.399   2.987 -1.2195  1.0767  0.8228
17654THY    CP337422   3.134   4.356   2.897 -0.3256  0.3157 -1.0562
17654THY    HP537423   3.101   4.385   2.998 -0.5749 -0.3177  1.0112
17654THY    HP637424   3.036   4.320   2.866 -0.2268 -0.5759 -0.5715
17654THY    HP737425   3.167   4.443   2.840 -2.7166  0.2545 -0.1183
17654THY    CA337426   3.220   4.048   3.043 -0.0976 -0.2159  0.0240
17654THY    HA337427   3.278   4.097   3.119 -0.0550 -0.7178  0.7636
17654THY    CA437428   3.170   3.918   3.061  0.6525 -1.3287  0.6315
17654THY    HA437429   3.190   3.861   3.151 -2.4325 -0.2891  1.0120
17654THY    CA537430   3.092   3.856   2.970 -0.4541  0.3320 -0.2205
17654THY    CM137431   3.056   3.715   2.985 -0.5995  0.2288  0.8635
17654THY    HM137432   2.974   3.670   2.928 -0.0660 -1.0761  1.5011
17654THY    HM237433   3.036   3.702   3.092 -2.6825 -0.3352 -1.4255
17654THY    HM337434   3.140   3.649   2.962 -0.8484  4.0303 -1.0882
17654THY    CA637435   3.052   3.923   2.853 -0.0792  0.7205 -0.1482
17654THY    HA637436   2.986   3.873   2.783  1.7127 -0.4607 -0.9697
17655THY      O37437   1.370   4.654   3.340 -0.1412 -0.4593  0.6914
17655THY     HO37438   1.457   4.666   3.297 -0.4979 -1.7234 -1.0225
17655THY    CA137439   1.291   4.667   3.230  0.1485  0.4888  0.2960
17655THY    CA237440   1.156   4.644   3.246  0.0150 -0.3840 -0.9910
17655THY    CP137441   1.092   4.605   3.380 -0.2770 -0.4440 -0.0221
17655THY    HP137442   1.162   4.571   3.458  1.7415 -1.6027  1.2716
17655THY    CP237443   0.987   4.486   3.360 -0.3943  0.3047 -0.2566
17655THY    HP237444   0.892   4.527   3.322 -0.9564  0.3665 -1.4568
17655THY    HP337445   0.971   4.430   3.452  2.5666  0.2731 -1.3096
17655THY    HP437446   1.026   4.409   3.293  1.9653  1.4184 -0.1020
17655THY    CP337447   1.026   4.728   3.444  0.3054 -0.3179 -0.0930
17655THY    HP537448   0.967   4.698   3.531  0.3198  0.0429  0.8767
17655THY    HP637449   0.949   4.770   3.377  0.0214  0.9951  1.5985
17655THY    HP737450   1.100   4.803   3.472 -0.0773  0.3741  0.0368
17655THY    CA337451   1.075   4.657   3.134 -0.3310  0.6924  0.0024
17655THY    HA337452   0.969   4.646   3.151  0.1204  3.0280 -1.4666
17655THY    CA437453   1.132   4.681   3.003 -0.5511 -0.3865  0.5558
17655THY    HA437454   1.070   4.702   2.917  0.2930 -1.9921 -2.7870
17655THY    CA537455   1.266   4.705   2.995 -1.0799  0.4632 -0.5587
17655THY    CM137456   1.327   4.752   2.867  0.3286  0.9185  0.7857
17655THY    HM137457   1.420   4.696   2.851 -0.3135 -0.9743  0.1996
17655THY    HM237458   1.362   4.856   2.878  1.9520  2.5565  0.1392
17655THY    HM337459   1.258   4.729   2.785 -0.4152  1.5757  0.6163
17655THY    CA637460   1.348   4.703   3.107  0.5802 -0.3659  0.1297
17655THY    HA637461   1.453   4.727   3.096  1.1662  1.7765 -1.1662
17656THY      O37462   6.172   3.808   4.168  0.3204 -0.0857 -0.4600
17656THY     HO37463   6.165   3.830   4.262 -2.1152 -0.3588  0.2624
17656THY    CA137464   6.071   3.871   4.103  0.1518  0.1873  0.3090
17656THY    CA237465   6.075   3.880   3.964  0.2183 -0.3783  0.6404
17656THY    CP137466   6.181   3.810   3.878 -0.7572  0.1242  0.5033
17656THY    HP137467   6.281   3.814   3.923  0.2603 -1.9872  0.7587
17656THY    CP237468   6.214   3.874   3.736 -0.2452 -0.1993  0.2794
17656THY    HP237469   6.306   3.831   3.696 -0.3973 -0.1706 -0.0787
17656THY    HP337470   6.242   3.980   3.746  1.3469 -0.9146 -0.0534
17656THY    HP437471   6.130   3.868   3.666 -0.8272  0.5884 -1.3042
17656THY    CP337472   6.129   3.666   3.842  0.0834 -0.0425 -0.1432
17656THY    HP537473   6.212   3.602   3.809  0.6063 -2.0465  1.4658
17656THY    HP637474   6.057   3.663   3.759  0.2696 -0.2282  0.4400
17656THY    HP737475   6.073   3.617   3.923 -1.0659  0.6787  2.2129
17656THY    CA337476   5.970   3.942   3.902  1.6957  0.2930  1.0587
17656THY    HA337477   5.963   3.935   3.794 -0.7273  0.4897 -2.0002
17656THY    CA437478   5.863   4.006   3.979  0.3828  0.5761 -0.1054
17656THY    HA437479   5.779   4.056   3.930 -0.1981  1.6494  0.0120
17656THY    CA537480   5.881   4.016   4.116 -0.1769 -0.1196 -0.1411
17656THY    CM137481   5.785   4.088   4.209  1.0466 -0.6190  0.8335
17656THY    HM137482   5.827   4.115   4.306  0.6422 -0.2647  0.2322
17656THY    HM237483   5.694   4.029   4.229  1.2061  2.0902  1.4035
17656THY    HM337484   5.756   4.181   4.159 -0.6968  0.8136  1.1111
17656THY    CA637485   5.975   3.936   4.180 -0.7544 -0.1913  0.4236
17656THY    HA637486   5.971   3.933   4.289 -1.7065 -0.0459  3.5444
17657THY      O37487   4.253   6.355   6.529 -0.6682  0.4071  0.5734
17657THY     HO37488   4.249   6.341   6.433 -1.2871  0.5435 -0.2016
17657THY    CA137489   4.342   6.270   6.580  0.2071  0.4936  0.7555
17657THY    CA237490   4.405   6.290   6.697  0.9919 -0.3370 -0.3988
17657THY    CP137491   4.380   6.424   6.778 -0.0743 -0.3279 -0.0369
17657THY    HP137492   4.303   6.478   6.722 -1.3799 -0.0224 -1.5392
17657THY    CP237493   4.515   6.508   6.781 -0.0578 -0.3819  0.0783
17657THY    HP237494   4.495   6.615   6.794 -2.6399 -2.7075 -0.0139
17657THY    HP337495   4.585   6.483   6.701  1.8412  2.0502 -3.3350
17657THY    HP437496   4.574   6.469   6.865  1.7309 -2.2838 -1.4977
17657THY    CP337497   4.329   6.398   6.919 -0.4492  0.1301 -0.8088
17657THY    HP537498   4.401   6.358   6.990  1.0314 -0.5549  0.5146
17657THY    HP637499   4.252   6.321   6.909  1.1055  0.0444 -2.3860
17657THY    HP737500   4.288   6.491   6.961 -1.7664  0.3548 -1.4717
17657THY    CA337501   4.494   6.195   6.747  0.2923  0.5197 -0.0438
17657THY    HA337502   4.537   6.196   6.847  1.7518 -0.0875  0.9974
17657THY    CA437503   4.529   6.085   6.665  0.3868  0.2527 -0.0632
17657THY    HA437504   4.599   6.008   6.694 -0.0252  0.2447 -0.4427
17657THY    CA537505   4.476   6.075   6.538 -0.4086  0.2394 -0.1314
17657THY    CM137506   4.515   5.961   6.439 -0.0404 -0.2618 -0.1498
17657THY    HM137507   4.455   5.870   6.446  1.6576  0.7226 -1.2365
17657THY    HM237508   4.617   5.924   6.452  0.8720 -1.6203  1.6695
17657THY    HM337509   4.515   5.994   6.334  0.2324 -0.7576 -1.6659
17657THY    CA637510   4.370   6.159   6.491  0.0216 -0.6106 -0.5202
17657THY    HA637511   4.326   6.153   6.392  1.0778 -1.3975  2.8942
17658THY      O37512   3.135   3.948   3.921  0.7019 -0.1710 -0.5784
17658THY     HO37513   3.204   3.965   3.855  2.0393  1.6142  1.3577
17658THY    CA137514   3.017   3.916   3.867  0.8323  0.2583  0.6030
17658THY    CA237515   2.919   3.852   3.941 -0.7149 -0.2586  0.7331
17658THY    CP137516   2.945   3.828   4.085  0.4016  0.2339  0.7209
17658THY    HP137517   3.017   3.904   4.118 -0.0627  1.8044  0.5249
17658THY    CP237518   2.998   3.687   4.099 -0.0038  0.0467 -0.3093
17658THY    HP237519   3.094   3.668   4.051 -0.1908 -0.5831  0.3067
17658THY    HP337520   2.919   3.615   4.076 -2.0886  0.0201  1.8643
17658THY    HP437521   3.029   3.672   4.203 -0.5845  0.2739  0.0300
17658THY    CP337522   2.821   3.837   4.167 -0.4515  0.2552  0.8456
17658THY    HP537523   2.756   3.921   4.140 -2.1257  2.5306  0.3844
17658THY    HP637524   2.847   3.857   4.272 -0.3459  0.0217  1.9986
17658THY    HP737525   2.762   3.746   4.150  0.0169 -1.6794  0.8568
17658THY    CA337526   2.808   3.810   3.871  0.8088  0.0198  0.1699
17658THY    HA337527   2.734   3.748   3.922  0.1335 -0.4182  0.6088
17658THY    CA437528   2.796   3.828   3.735 -0.1297  0.1141 -0.3116
17658THY    HA437529   2.708   3.798   3.678 -0.6322  0.7248 -0.0303
17658THY    CA537530   2.889   3.906   3.663  0.2063 -0.4750  0.0171
17658THY    CM137531   2.870   3.942   3.518 -0.2559  0.6862 -0.0038
17658THY    HM137532   2.906   4.040   3.486  0.0449 -0.0736 -0.3551
17658THY    HM237533   2.765   3.933   3.486  0.3474 -1.8589  1.1047
17658THY    HM337534   2.922   3.867   3.457 -1.8893  0.6953 -1.2066
17658THY    CA637535   3.002   3.945   3.731  0.3511  0.4030  0.2719
17658THY    HA637536   3.071   4.000   3.668 -0.7752 -0.2894  0.9252
17659THY      O37537   8.174   4.446   7.117  0.5972 -0.4132  0.3151
17659THY     HO37538   8.148   4.368   7.169 -1.3397 -1.2476  0.3613
17659THY    CA137539   8.123   4.553   7.189 -0.0394  0.1472 -0.1592
17659THY    CA237540   8.182   4.686   7.190  0.1259 -0.2281 -0.7282
17659THY    CP137541   8.305   4.720   7.108  0.1345 -0.6261  1.1385
17659THY    HP137542   8.369   4.631   7.108 -2.5819  0.2902 -0.9173
17659THY    CP237543   8.395   4.812   7.183 -0.4593 -0.1622  0.0470
17659THY    HP237544   8.492   4.803   7.132  1.1023  2.4706  0.5674
17659THY    HP337545   8.409   4.772   7.284  0.8499 -0.9529 -1.6082
17659THY    HP437546   8.373   4.919   7.188 -3.3467 -1.4855 -0.3964
17659THY    CP337547   8.270   4.781   6.969  0.3595  0.0794  0.6207
17659THY    HP537548   8.231   4.883   6.980 -0.2071 -0.8303  0.5113
17659THY    HP637549   8.208   4.708   6.917  1.0636  0.6899 -0.4309
17659THY    HP737550   8.357   4.779   6.901  0.8289  0.6832  0.2377
17659THY    CA337551   8.113   4.798   7.255 -0.5091 -0.1499  0.6584
17659THY    HA337552   8.155   4.898   7.256  0.3273 -1.5861  0.3475
17659THY    CA437553   8.014   4.762   7.346 -0.0572  0.2662 -0.2739
17659THY    HA437554   7.981   4.832   7.422 -0.3091 -0.2408  0.1626
17659THY    CA537555   7.967   4.635   7.352  0.7249  0.2085  0.0926
17659THY    CM137556   7.855   4.602   7.456  0.1949 -0.3594 -0.3776
17659THY    HM137557   7.775   4.677   7.461 -0.3402  2.9331 -0.9872
17659THY    HM237558   7.895   4.602   7.558  0.3780 -0.4303  0.1360
17659THY    HM337559   7.795   4.512   7.436 -0.0596 -2.4923  0.2119
17659THY    CA637560   8.010   4.532   7.269 -0.2567  0.6165 -0.5242
17659THY    HA637561   7.954   4.439   7.264  1.3443 -1.0730 -1.4691
17660THY      O37562   8.984   3.559   5.924  0.1328  0.5146  0.5716
17660THY     HO37563   9.066   3.531   5.969 -0.4246  2.3810  1.8091
17660THY    CA137564   9.004   3.662   5.834 -0.1758  0.5681 -0.1935
17660THY    CA237565   8.895   3.716   5.765 -0.6242  0.4383 -0.2097
17660THY    CP137566   8.757   3.654   5.773  0.0763  0.2269  0.1094
17660THY    HP137567   8.739   3.579   5.851 -1.3226 -2.0953 -2.1129
17660THY    CP237568   8.731   3.579   5.635  0.2513 -0.4222 -0.1328
17660THY    HP237569   8.631   3.535   5.633 -0.0577  0.8654  0.4404
17660THY    HP337570   8.797   3.492   5.629 -1.6020  1.3400 -1.7666
17660THY    HP437571   8.747   3.659   5.561  1.0413  0.8987  0.9749
17660THY    CP337572   8.654   3.759   5.796  0.6943 -0.1114  0.2028
17660THY    HP537573   8.554   3.714   5.796  1.0042 -0.8437 -0.5082
17660THY    HP637574   8.648   3.844   5.727 -1.7398  0.5086  0.6290
17660THY    HP737575   8.682   3.811   5.888  0.2623 -0.0052  0.2561
17660THY    CA337576   8.922   3.829   5.683 -0.8585  0.5310 -0.1008
17660THY    HA337577   8.839   3.874   5.630 -1.4120  1.0103 -0.5525
17660THY    CA437578   9.053   3.893   5.682 -0.0864 -0.2049  0.1402
17660THY    HA437579   9.080   3.976   5.617 -0.2987 -0.5730 -0.0728
17660THY    CA537580   9.151   3.839   5.764  0.4348  0.7647 -0.3331
17660THY    CM137581   9.287   3.912   5.766  0.7653 -0.8127  0.1748
17660THY    HM137582   9.338   3.895   5.862 -0.6756 -0.3466 -1.8144
17660THY    HM237583   9.267   4.019   5.753  0.9934 -0.0364  0.3191
17660THY    HM337584   9.353   3.892   5.681  1.4173 -0.2400 -0.1477
17660THY    CA637585   9.131   3.717   5.832  0.5214  0.5656 -0.3062
17660THY    HA637586   9.204   3.685   5.906 -1.1882  1.2479 -2.9775
17661THY      O37587   4.051   4.504   3.750  0.2488  0.0034 -0.0341
17661THY     HO37588   4.097   4.589   3.745  0.5433  3.8132  0.2002
17661THY    CA137589   4.019   4.456   3.622 -1.0078  0.6246 -0.1792
17661THY    CA237590   3.939   4.347   3.596 -0.0415 -0.2297 -0.1201
17661THY    CP137591   3.892   4.251   3.702 -0.2768  0.2527 -0.2165
17661THY    HP137592   3.916   4.287   3.803 -0.4884 -0.4327  2.0022
17661THY    CP237593   3.946   4.103   3.675 -0.1514 -0.0845 -0.7635
17661THY    HP237594   3.871   4.057   3.610 -0.5178 -2.0258  2.2743
17661THY    HP337595   3.963   4.044   3.766 -1.1795 -1.5309 -3.4202
17661THY    HP437596   4.038   4.104   3.615  0.6031  1.0236  0.5584
17661THY    CP337597   3.741   4.253   3.710 -0.0054 -0.7120  0.1257
17661THY    HP537598   3.708   4.357   3.714 -0.0674 -0.1383  0.0897
17661THY    HP637599   3.699   4.194   3.792  1.7044 -0.1532 -0.3588
17661THY    HP737600   3.689   4.210   3.624  0.3591 -0.6137 -0.5154
17661THY    CA337601   3.911   4.317   3.464 -0.5476  0.6656  0.0169
17661THY    HA337602   3.865   4.223   3.437  1.2990  0.6074 -0.9050
17661THY    CA437603   3.973   4.389   3.358 -0.0719 -0.3842  0.7869
17661THY    HA437604   3.965   4.353   3.256 -1.2149  0.1845 -0.6718
17661THY    CA537605   4.043   4.508   3.385  0.0291  0.3207  0.2502
17661THY    CM137606   4.095   4.596   3.277  0.2689 -0.5845  0.5818
17661THY    HM137607   4.014   4.604   3.203  1.0362 -1.4319  0.7150
17661THY    HM237608   4.186   4.551   3.236  0.0158  0.6937 -1.1769
17661THY    HM337609   4.105   4.699   3.313  0.7862  1.8460 -0.2584
17661THY    CA637610   4.067   4.535   3.518 -0.3089  0.1862 -0.3042
17661THY    HA637611   4.130   4.622   3.537  0.2498  0.5739 -0.7809
17662THY      O37612   3.921   7.356   6.381 -0.0153  0.0345  0.0409
17662THY     HO37613   3.958   7.434   6.337 -0.1304 -0.9022 -0.4245
17662THY    CA137614   3.806   7.313   6.324  0.7384  0.0161 -0.6634
17662THY    CA237615   3.730   7.206   6.386 -0.3592  0.1694 -1.0254
17662THY    CP137616   3.785   7.136   6.510 -0.6330  0.2653  0.9273
17662THY    HP137617   3.821   7.214   6.579  1.2597  0.1796  0.1765
17662THY    CP237618   3.893   7.035   6.467  0.2244  0.0346  0.0051
17662THY    HP237619   3.976   7.087   6.417 -0.3757 -0.2204  0.7427
17662THY    HP337620   3.851   6.969   6.391 -2.0041 -0.4266  1.8270
17662THY    HP437621   3.926   6.962   6.542 -0.3427  0.8102  0.5233
17662THY    CP337622   3.678   7.055   6.577 -0.0533 -0.4395  0.0826
17662THY    HP537623   3.604   7.125   6.616  0.9378 -1.2795  1.6556
17662THY    HP637624   3.719   7.000   6.663 -0.5928 -0.9000 -1.0803
17662THY    HP737625   3.622   6.982   6.516 -1.2136  0.5725  0.0985
17662THY    CA337626   3.599   7.196   6.332 -0.0257  0.5400 -0.2825
17662THY    HA337627   3.530   7.124   6.375 -2.0928  0.8464  1.7540
17662THY    CA437628   3.554   7.285   6.228 -0.0096 -0.9604  0.0984
17662THY    HA437629   3.449   7.277   6.202 -0.8321  2.0581 -0.1946
17662THY    CA537630   3.645   7.369   6.161 -0.1918 -0.3263 -0.2219
17662THY    CM137631   3.612   7.450   6.037  0.4651 -0.1686  0.4718
17662THY    HM137632   3.626   7.557   6.056 -1.3100  0.0092  0.6963
17662THY    HM237633   3.513   7.421   6.001  0.9221 -1.9160  0.9344
17662THY    HM337634   3.683   7.424   5.957  1.2325  0.4429  0.6578
17662THY    CA637635   3.772   7.376   6.211  0.4222  0.3308 -0.3054
17662THY    HA637636   3.835   7.444   6.155 -0.9922 -2.7453 -1.3051
17663THY      O37637   1.809   7.908   4.897  0.1425 -0.7730 -0.1603
17663THY     HO37638   1.770   7.978   4.841 -0.8096 -0.3387 -0.3255
17663THY    CA137639   1.870   7.985   4.999  0.5895 -0.3360 -0.1142
17663THY    CA237640   1.975   7.925   5.080 -0.4365 -0.4092  0.3219
17663THY    CP137641   1.999   7.775   5.091 -0.3524 -0.4192  0.8201
17663THY    HP137642   1.938   7.723   5.016 -0.7877  0.9908 -0.8059
17663THY    CP237643   1.942   7.726   5.224  0.7493 -0.3568  0.7577
17663THY    HP237644   1.992   7.751   5.318 -3.0573  2.9720 -2.6556
17663THY    HP337645   1.931   7.618   5.210 -1.9054  0.7416  0.8178
17663THY    HP437646   1.836   7.753   5.218  0.0067 -1.3426 -2.0235
17663THY    CP337647   2.143   7.731   5.081  0.5017  0.1017  0.3819
17663THY    HP537648   2.143   7.623   5.102  3.0053 -0.1925  0.2626
17663THY    HP637649   2.204   7.784   5.156 -0.8428  0.5533  1.3273
17663THY    HP737650   2.186   7.740   4.981  1.8857  0.6582  0.2279
17663THY    CA337651   2.051   8.015   5.160  0.1558  0.1913 -0.2913
17663THY    HA337652   2.124   7.979   5.232  0.6082  0.4740  1.0972
17663THY    CA437653   2.024   8.152   5.144  0.5888 -0.3070  0.5595
17663THY    HA437654   2.084   8.221   5.202  0.5698 -0.8544  1.0393
17663THY    CA537655   1.925   8.204   5.057 -0.2291 -0.9564 -0.2943
17663THY    CM137656   1.919   8.351   5.042 -0.0365 -0.3133 -0.8045
17663THY    HM137657   1.856   8.401   5.116 -0.0176 -0.2118 -0.9290
17663THY    HM237658   1.870   8.382   4.949  2.3773 -1.3618  0.1170
17663THY    HM337659   2.012   8.408   5.053 -0.8991 -0.9920  0.7944
17663THY    CA637660   1.834   8.123   4.990  0.6341  0.1981 -0.2293
17663THY    HA637661   1.762   8.167   4.921  0.1312  0.8347 -0.0289
17664THY      O37662   7.951   6.036   7.488  0.7512  0.5006 -0.7225
17664THY     HO37663   8.007   6.096   7.539 -3.5394  0.6754  3.8472
17664THY    CA137664   7.829   6.033   7.555 -0.3555 -0.1600 -0.0899
17664THY    CA237665   7.714   5.972   7.505 -0.4088 -0.1393  0.2043
17664THY    CP137666   7.721   5.900   7.376 -0.4404 -0.0616  0.0738
17664THY    HP137667   7.824   5.868   7.360  0.0835  1.6548  0.7754
17664THY    CP237668   7.693   5.992   7.257  0.3395 -0.0842  0.5435
17664THY    HP237669   7.584   5.996   7.242  0.4231 -0.6096  0.8566
17664THY    HP337670   7.744   5.944   7.172  1.0311  0.4203  0.3675
17664THY    HP437671   7.739   6.091   7.255  0.8238 -0.9944  0.3157
17664THY    CP337672   7.631   5.777   7.359 -0.2785  0.3699 -0.3471
17664THY    HP537673   7.645   5.731   7.261 -0.4972  0.2237 -0.1006
17664THY    HP637674   7.527   5.809   7.371 -0.0188  1.7671  0.0540
17664THY    HP737675   7.651   5.703   7.438  1.2895  1.4740  1.1807
17664THY    CA337676   7.603   5.970   7.583  0.3527 -0.3993  0.0147
17664THY    HA337677   7.509   5.923   7.556  0.1752 -0.3125  0.3126
17664THY    CA437678   7.604   6.036   7.710  0.3970 -1.0930 -0.7864
17664THY    HA437679   7.514   6.043   7.769  0.8255 -0.6429  3.0821
17664THY    CA537680   7.716   6.096   7.756  0.1257 -0.5599 -0.8191
17664THY    CM137681   7.716   6.167   7.886  0.0415 -0.2118 -0.5420
17664THY    HM137682   7.619   6.175   7.936  0.5240  0.7238 -0.3863
17664THY    HM237683   7.753   6.270   7.887 -0.3241 -0.3988 -0.4102
17664THY    HM337684   7.781   6.114   7.957 -0.0340  1.4796  1.4816
17664THY    CA637685   7.829   6.094   7.675 -0.5280 -0.7914  0.0472
17664THY    HA637686   7.915   6.152   7.708  0.7752 -0.5381 -1.9284
17665THY      O37687   7.368   3.859   4.486 -0.6824 -0.4378 -0.6437
17665THY     HO37688   7.396   3.800   4.414  1.5717  0.7215 -1.0812
17665THY    CA137689   7.457   3.840   4.592  0.4612  0.1295 -0.6159
17665THY    CA237690   7.425   3.877   4.727 -0.4878  0.1545  0.2804
17665THY    CP137691   7.298   3.958   4.759  0.1969 -0.6013 -0.6495
17665THY    HP137692   7.246   3.976   4.665 -2.0688  0.0252 -3.2153
17665THY    CP237693   7.328   4.097   4.825  0.4791  0.1683 -1.0415
17665THY    HP237694   7.420   4.135   4.780 -0.2648  0.7318  1.6262
17665THY    HP337695   7.331   4.105   4.934 -2.9297  0.4150 -1.4398
17665THY    HP437696   7.254   4.170   4.790 -0.6817  0.5951 -1.9876
17665THY    CP337697   7.205   3.885   4.849 -0.0274 -0.1477 -0.2895
17665THY    HP537698   7.249   3.851   4.943 -1.1410  0.3775 -0.3176
17665THY    HP637699   7.166   3.791   4.806 -0.8971  0.6344 -0.2965
17665THY    HP737700   7.128   3.956   4.879  0.9989  1.3693  0.2088
17665THY    CA337701   7.529   3.848   4.822 -0.2523 -0.3404 -0.4735
17665THY    HA337702   7.522   3.883   4.924  1.4072 -0.6634  0.9657
17665THY    CA437703   7.643   3.775   4.783 -0.4601 -0.4628 -0.0649
17665THY    HA437704   7.723   3.757   4.854  2.0858 -3.4564 -1.8659
17665THY    CA537705   7.660   3.736   4.654 -0.1996  0.0506 -0.0245
17665THY    CM137706   7.778   3.659   4.604 -0.1476 -0.7273 -0.6013
17665THY    HM137707   7.755   3.552   4.600  0.4272 -1.3255 -0.7083
17665THY    HM237708   7.855   3.659   4.682 -1.6979  0.8803  0.4753
17665THY    HM337709   7.813   3.695   4.507 -1.1290 -0.9435 -0.1751
17665THY    CA637710   7.571   3.776   4.551 -0.2182 -1.2145 -0.3038
17665THY    HA637711   7.590   3.756   4.446 -2.0504 -1.3750 -1.5031
17666THY      O37712   8.541   2.060   4.582  0.0345 -0.1357  0.6683
17666THY     HO37713   8.625   2.107   4.567  0.3244  1.1414  0.5895
17666THY    CA137714   8.445   2.155   4.588  0.1472  0.4020  0.3684
17666THY    CA237715   8.324   2.128   4.653 -0.1308 -0.2714 -0.5717
17666THY    CP137716   8.316   1.998   4.737  0.1803  0.6369 -0.2084
17666THY    HP137717   8.410   1.943   4.723  1.2954  1.1065  1.4992
17666THY    CP237718   8.210   1.903   4.681  0.7663  0.1374  0.4881
17666THY    HP237719   8.119   1.959   4.658  1.1311 -2.0468  0.2869
17666THY    HP337720   8.188   1.816   4.743  1.1930 -0.5481 -0.1179
17666THY    HP437721   8.246   1.857   4.588 -0.7219 -0.5580  0.6802
17666THY    CP337722   8.293   2.033   4.890 -0.2247 -0.8990  0.2812
17666THY    HP537723   8.263   1.943   4.944 -0.4817 -1.2332  0.1651
17666THY    HP637724   8.209   2.099   4.915  0.5844  1.4018  0.5403
17666THY    HP737725   8.388   2.071   4.930 -1.0789  0.4373  1.1301
17666THY    CA337726   8.220   2.230   4.653  0.4610 -0.4180 -0.6680
17666THY    HA337727   8.124   2.214   4.701 -0.5061 -1.4359  1.5989
17666THY    CA437728   8.241   2.341   4.573  0.6684  0.2213 -0.3022
17666THY    HA437729   8.162   2.415   4.565  0.8722  2.4431  0.2415
17666THY    CA537730   8.361   2.369   4.507 -0.6502  0.1283 -0.6184
17666THY    CM137731   8.384   2.502   4.432  0.4135 -0.0146  0.8449
17666THY    HM137732   8.491   2.526   4.421  1.1246  2.1701 -0.9494
17666THY    HM237733   8.341   2.588   4.485 -0.9327  2.1495 -1.0375
17666THY    HM337734   8.335   2.492   4.334  2.2881 -0.8060 -1.5511
17666THY    CA637735   8.461   2.274   4.514  0.2192 -0.2883 -0.0426
17666THY    HA637736   8.550   2.288   4.453  1.5250  1.4224 -0.4990
17667THY      O37737   4.204   3.583   3.451 -0.1983 -0.9608 -0.4869
17667THY     HO37738   4.231   3.677   3.445 -0.1096 -1.5252 -0.5422
17667THY    CA137739   4.250   3.529   3.338  0.1828 -0.1641 -0.2755
17667THY    CA237740   4.237   3.388   3.312  0.9322  0.7673 -0.1607
17667THY    CP137741   4.161   3.300   3.413  0.3914  0.2320 -0.0133
17667THY    HP137742   4.080   3.365   3.449 -0.5635 -1.3406 -0.2851
17667THY    CP237743   4.260   3.256   3.522 -0.0496 -0.6044  0.5113
17667THY    HP237744   4.323   3.341   3.550  0.1633  0.2661  0.0792
17667THY    HP337745   4.335   3.185   3.486  0.5368  0.6221  0.4822
17667THY    HP437746   4.207   3.233   3.615 -1.3956 -1.2047  1.1299
17667THY    CP337747   4.097   3.174   3.348  0.0826  0.1265 -0.8385
17667THY    HP537748   4.039   3.201   3.259 -2.2017  1.6092 -0.6873
17667THY    HP637749   4.022   3.128   3.412 -0.4774 -0.4686 -0.7746
17667THY    HP737750   4.173   3.099   3.321  0.3003 -0.3206 -0.4664
17667THY    CA337751   4.276   3.339   3.182 -0.2070 -0.0654  0.2198
17667THY    HA337752   4.276   3.231   3.172  1.2321 -2.0087  0.3594
17667THY    CA437753   4.332   3.431   3.092 -0.2874 -0.3217 -0.0567
17667THY    HA437754   4.365   3.398   2.994 -0.3277 -0.6751  0.9147
17667THY    CA537755   4.343   3.566   3.119  0.4222  0.2146 -0.8932
17667THY    CM137756   4.411   3.658   3.024  0.0527 -0.3974 -0.1328
17667THY    HM137757   4.405   3.761   3.060 -4.1864  1.2800 -0.7552
17667THY    HM237758   4.367   3.663   2.924 -0.3374 -0.3024 -1.3380
17667THY    HM337759   4.516   3.629   3.015  0.3467 -0.5323  0.9400
17667THY    CA637760   4.306   3.616   3.247 -0.7989 -0.3698 -0.5432
17667THY    HA637761   4.323   3.721   3.266 -2.0097 -1.2676 -0.1621
17668THY      O37762   5.944   3.093   8.116  0.0991 -0.0271  0.7674
17668THY     HO37763   5.910   3.010   8.153  0.8400 -0.0246  0.4529
17668THY    CA137764   5.993   3.052   7.999  0.3977 -0.0422 -0.2442
17668THY    CA237765   6.024   3.150   7.896  0.1136 -0.5437  0.6652
17668THY    CP137766   5.994   3.299   7.925  0.0124 -0.2816 -0.0341
17668THY    HP137767   5.907   3.320   7.988  0.3008  0.2216 -0.3325
17668THY    CP237768   5.976   3.388   7.814  0.1270  0.9257  0.4884
17668THY    HP237769   6.063   3.384   7.749  0.1902  1.0681 -0.5158
17668THY    HP337770   5.968   3.494   7.844 -0.7639  0.6185  0.5203
17668THY    HP437771   5.892   3.355   7.752  1.1622 -0.4450  0.3708
17668THY    CP337772   6.105   3.364   8.012 -0.3447  0.2205  1.0126
17668THY    HP537773   6.203   3.366   7.963 -0.7748 -0.7494 -0.0080
17668THY    HP637774   6.117   3.304   8.103 -1.3757 -1.0853 -1.3579
17668THY    HP737775   6.087   3.470   8.032 -0.8958  1.6224  0.6799
17668THY    CA337776   6.094   3.098   7.786 -0.3904 -0.0549 -0.4452
17668THY    HA337777   6.136   3.154   7.703  2.2346  1.8110  0.5673
17668THY    CA437778   6.095   2.960   7.759 -0.6838 -0.2494 -0.0374
17668THY    HA437779   6.127   2.921   7.663  1.1923  0.2852  0.0835
17668THY    CA537780   6.059   2.869   7.858  1.4509  0.3118  0.2464
17668THY    CM137781   6.058   2.723   7.828 -0.1873 -0.4689  0.0186
17668THY    HM137782   6.145   2.686   7.772  1.0923  2.0546 -1.0141
17668THY    HM237783   5.968   2.700   7.769 -0.2055 -0.9456  1.2206
17668THY    HM337784   6.055   2.659   7.916  0.8484 -1.0189 -0.8042
17668THY    CA637785   6.017   2.918   7.979  0.7829  0.3342  0.3030
17668THY    HA637786   5.997   2.845   8.057  1.1208  0.8041  0.7050
17669THY      O37787   7.299   1.498   2.366 -0.3851 -0.3414 -0.0314
17669THY     HO37788   7.239   1.445   2.421  1.2194 -0.0926 -1.7325
17669THY    CA137789   7.389   1.550   2.447  1.0458  0.0190 -0.0254
17669THY    CA237790   7.475   1.654   2.401  0.4168  0.1774  0.1573
17669THY    CP137791   7.454   1.717   2.264  0.8203 -0.4435 -0.6302
17669THY    HP137792   7.381   1.667   2.199  0.3617 -0.4385  0.0237
17669THY    CP237793   7.582   1.702   2.191 -0.2091  0.4996  0.1646
17669THY    HP237794   7.637   1.607   2.197  2.5811 -2.1407  1.4759
17669THY    HP337795   7.664   1.773   2.208 -0.7925  0.2389  0.9153
17669THY    HP437796   7.587   1.717   2.083  0.8298  0.4907 -0.1740
17669THY    CP337797   7.417   1.868   2.271 -0.2377 -0.3006  0.0102
17669THY    HP537798   7.418   1.904   2.167 -0.0879 -1.7833 -3.8264
17669THY    HP637799   7.485   1.937   2.323 -1.8989 -0.3113  1.7320
17669THY    HP737800   7.318   1.878   2.317 -0.4010 -0.2237 -1.6159
17669THY    CA337801   7.558   1.712   2.498 -0.2455  0.1908  0.2334
17669THY    HA337802   7.612   1.801   2.466  0.6918 -1.1019 -0.7704
17669THY    CA437803   7.561   1.653   2.624  0.1452 -0.1840 -0.7833
17669THY    HA437804   7.631   1.701   2.691 -0.2125  0.5460 -1.2616
17669THY    CA537805   7.487   1.538   2.662  0.4097 -0.2839 -0.4035
17669THY    CM137806   7.494   1.490   2.803 -0.5822  0.1853  0.3937
17669THY    HM137807   7.523   1.385   2.806 -0.9453  0.3134  0.2943
17669THY    HM237808   7.401   1.508   2.859 -0.0912  0.7296  1.3582
17669THY    HM337809   7.562   1.542   2.872 -0.3124 -0.6732  1.2218
17669THY    CA637810   7.388   1.497   2.573  0.0210 -0.9873  0.6584
17669THY    HA637811   7.317   1.423   2.609 -0.4417 -0.1188  1.4944
17670THY      O37812   9.147   5.660   7.694 -0.0355  0.0863 -0.0908
17670THY     HO37813   9.097   5.661   7.778 -0.6811 -0.2740 -0.7556
17670THY    CA137814   9.059   5.675   7.587  0.1073  0.2280  0.4853
17670THY    CA237815   9.094   5.681   7.453 -0.8765 -0.2034  0.2349
17670THY    CP137816   9.240   5.688   7.411 -0.1864  0.4322  0.2280
17670THY    HP137817   9.308   5.659   7.493  0.6040 -0.3200 -0.1015
17670THY    CP237818   9.280   5.836   7.409  0.1588  0.2573 -0.8680
17670THY    HP237819   9.389   5.847   7.402  0.1224  1.1674  0.3096
17670THY    HP337820   9.249   5.887   7.501  0.1461  0.0047 -0.4131
17670THY    HP437821   9.239   5.892   7.323  1.0156  0.2402 -0.2373
17670THY    CP337822   9.285   5.625   7.277 -0.4247 -0.1974 -0.3958
17670THY    HP537823   9.276   5.515   7.275 -0.7498  0.3856 -0.3861
17670THY    HP637824   9.385   5.659   7.247 -0.3381  1.3314  0.7982
17670THY    HP737825   9.219   5.652   7.194  0.6430 -0.7263  0.6599
17670THY    CA337826   8.992   5.690   7.358  0.2212  0.7310  0.3984
17670THY    HA337827   9.021   5.701   7.254 -3.5147 -0.4240  0.5244
17670THY    CA437828   8.864   5.703   7.396 -0.4870  0.8184 -0.4616
17670THY    HA437829   8.792   5.723   7.317 -1.7306  2.1299  0.4163
17670THY    CA537830   8.821   5.689   7.530  0.2477  0.2063 -0.1527
17670THY    CM137831   8.674   5.688   7.553  0.2957  0.0528 -0.4323
17670THY    HM137832   8.644   5.601   7.613 -1.9423  1.1164  0.9850
17670THY    HM237833   8.620   5.694   7.458 -0.5534  0.3139 -2.8955
17670THY    HM337834   8.647   5.772   7.618 -0.4925  0.0734 -0.6874
17670THY    CA637835   8.921   5.678   7.623  0.2982 -0.0223  0.3136
17670THY    HA637836   8.892   5.663   7.726  1.5858  0.2065 -0.7911
17671THY      O37837   9.208   6.606   6.047  0.3219  0.4990  0.4437
17671THY     HO37838   9.304   6.606   6.031  0.6043  1.9786 -1.5677
17671THY    CA137839   9.180   6.740   6.052  0.2043  0.1254  0.3049
17671THY    CA237840   9.043   6.779   6.047 -0.9708 -0.3037  0.6921
17671THY    CP137841   8.926   6.674   6.062 -0.2523  0.4789 -0.4947
17671THY    HP137842   8.957   6.581   6.112 -3.7818  1.3412 -1.3335
17671THY    CP237843   8.851   6.647   5.928  0.6358 -0.3026  0.2888
17671THY    HP237844   8.757   6.590   5.932  0.8003 -0.9981 -0.0319
17671THY    HP337845   8.917   6.605   5.851 -0.0226 -0.3705 -0.6422
17671THY    HP437846   8.817   6.746   5.896 -1.1676  1.2632  0.2428
17671THY    CP337847   8.821   6.723   6.155  1.0628 -0.2274  0.2047
17671THY    HP537848   8.765   6.803   6.104  2.3557 -0.7950  0.7694
17671THY    HP637849   8.859   6.760   6.250 -1.4700  0.4966  1.1515
17671THY    HP737850   8.757   6.636   6.174  1.4360 -1.2361 -0.3129
17671THY    CA337851   9.010   6.907   6.036 -0.7007  0.8792 -0.1943
17671THY    HA337852   8.909   6.948   6.031 -0.8692  0.0753 -0.6871
17671THY    CA437853   9.115   6.996   6.049 -0.5340  0.1004 -0.2381
17671THY    HA437854   9.091   7.101   6.033  1.2498  1.8872  0.5023
17671THY    CA537855   9.251   6.966   6.053 -0.0840  0.1491  0.0817
17671THY    CM137856   9.354   7.074   6.047  0.8085 -0.3530 -0.0444
17671THY    HM137857   9.335   7.150   6.124 -1.4711  0.3626 -1.2193
17671THY    HM237858   9.373   7.100   5.943  1.1219 -0.4471 -0.6365
17671THY    HM337859   9.455   7.035   6.063  0.5940 -0.8198 -0.8075
17671THY    CA637860   9.283   6.832   6.065  0.5697  0.0222 -0.1003
17671THY    HA637861   9.388   6.808   6.078  1.1181 -1.1592  1.4388
17672THY      O37862   1.226   3.272   1.818  0.1512 -0.1050 -0.6066
17672THY     HO37863   1.210   3.176   1.817 -1.7197  0.4431 -0.3237
17672THY    CA137864   1.323   3.304   1.902 -0.3798 -0.3682 -0.3696
17672THY    CA237865   1.352   3.440   1.926  0.4609 -0.3052  0.4560
17672THY    CP137866   1.263   3.542   1.855 -0.0121 -0.3339 -0.3022
17672THY    HP137867   1.180   3.488   1.809  0.9525 -2.4935 -0.0414
17672THY    CP237868   1.334   3.629   1.744 -0.9932  0.0068  0.6959
17672THY    HP237869   1.381   3.561   1.672  0.2316  2.1593 -0.8754
17672THY    HP337870   1.399   3.708   1.784 -0.7773  0.8037  0.1282
17672THY    HP437871   1.256   3.685   1.691 -1.0451  0.7071  1.3032
17672THY    CP337872   1.205   3.649   1.944 -0.7622  0.1822  0.2437
17672THY    HP537873   1.296   3.693   1.987  0.0092  0.7985 -1.8427
17672THY    HP637874   1.147   3.596   2.020 -2.8210 -0.6313  1.2003
17672THY    HP737875   1.155   3.723   1.880  0.5454  0.1797  1.1668
17672THY    CA337876   1.470   3.472   1.996  0.0577 -0.3753 -0.7222
17672THY    HA337877   1.499   3.577   1.999 -0.3952 -2.6582 -0.4823
17672THY    CA437878   1.535   3.371   2.066 -0.0016  0.3962  0.3917
17672THY    HA437879   1.609   3.404   2.139  0.6635 -0.4150  0.7190
17672THY    CA537880   1.498   3.237   2.053  0.5267 -0.5522  0.2889
17672THY    CM137881   1.557   3.128   2.141  0.8355  0.1132 -0.0443
17672THY    HM137882   1.493   3.046   2.175  2.2058 -2.1244 -2.1506
17672THY    HM237883   1.613   3.169   2.225  1.3948  1.0651 -2.5724
17672THY    HM337884   1.637   3.081   2.084 -0.2474 -0.7582 -0.8795
17672THY    CA637885   1.396   3.200   1.964 -0.6112  0.1155  0.5447
17672THY    HA637886   1.373   3.096   1.943  3.1578  0.3932 -0.4966
17673THY      O37887   5.134   3.999   4.273  0.3206 -0.2308 -0.3853
17673THY     HO37888   5.093   4.066   4.216  2.5209 -0.9191  0.4539
17673THY    CA137889   5.144   4.043   4.398  0.5361 -0.4055  0.3921
17673THY    CA237890   5.169   3.959   4.512  0.2358  0.7247  0.5322
17673THY    CP137891   5.173   3.805   4.499  0.3723 -0.1297 -0.2301
17673THY    HP137892   5.153   3.786   4.393 -1.6464  0.1714 -0.0315
17673THY    CP237893   5.068   3.733   4.571  0.2814 -0.2904  0.2241
17673THY    HP237894   4.971   3.760   4.528  0.3707 -1.1256 -0.7248
17673THY    HP337895   5.062   3.756   4.678  1.1717  0.1759 -1.4948
17673THY    HP437896   5.069   3.624   4.559 -0.8213  0.5632  0.0995
17673THY    CP337897   5.320   3.763   4.533  0.0653  0.3774  0.1948
17673THY    HP537898   5.337   3.771   4.641 -0.1975  0.5269 -1.0672
17673THY    HP637899   5.392   3.825   4.478  1.2783  1.0042 -0.6140
17673THY    HP737900   5.339   3.658   4.507  0.1051 -2.3530  0.7846
17673THY    CA337901   5.198   4.020   4.639  0.3785  1.2796 -0.0620
17673THY    HA337902   5.234   3.955   4.718 -2.8950  3.2277  0.2935
17673THY    CA437903   5.180   4.160   4.653  0.7754  0.0157  0.2689
17673THY    HA437904   5.196   4.198   4.754  1.1215  0.7215 -1.5979
17673THY    CA537905   5.152   4.235   4.540 -0.2120 -0.2452 -0.1213
17673THY    CM137906   5.131   4.381   4.566 -0.0482 -0.0034  0.5927
17673THY    HM137907   5.205   4.420   4.635  0.2815  1.0430 -1.7216
17673THY    HM237908   5.029   4.398   4.604 -0.5441 -0.4039 -1.2824
17673THY    HM337909   5.152   4.448   4.482  1.7772  0.2057  0.3134
17673THY    CA637910   5.133   4.182   4.412 -0.4150  0.2015  0.5419
17673THY    HA637911   5.104   4.246   4.330 -0.3095 -0.5207 -0.3067
17674THY      O37912   1.119   7.122   1.908  1.0091 -0.2402 -0.0048
17674THY     HO37913   1.119   7.172   1.825 -0.7922 -0.5316 -0.4122
17674THY    CA137914   1.158   7.006   1.862 -0.0459  0.1781  0.1811
17674THY    CA237915   1.211   6.912   1.954  0.8027  0.2760 -0.0903
17674THY    CP137916   1.181   6.925   2.107 -0.0690 -0.2633  0.3742
17674THY    HP137917   1.112   7.006   2.132 -0.1734  1.7574 -0.2818
17674THY    CP237918   1.305   6.927   2.190 -0.2031 -0.4104  0.4292
17674THY    HP237919   1.293   6.974   2.288  0.5167 -0.6774  1.2028
17674THY    HP337920   1.374   6.988   2.129  0.1990 -0.0068  0.3860
17674THY    HP437921   1.358   6.831   2.196  1.3964  2.4221  1.3663
17674THY    CP337922   1.108   6.799   2.147 -0.1839 -0.5773 -0.7008
17674THY    HP537923   1.178   6.723   2.183  2.0229  1.2599  1.9893
17674THY    HP637924   1.035   6.753   2.079  0.2094 -1.2433 -0.3563
17674THY    HP737925   1.061   6.827   2.242 -2.0228 -0.4626 -3.6460
17674THY    CA337926   1.248   6.786   1.898 -0.4351 -0.5569  0.2637
17674THY    HA337927   1.280   6.702   1.959 -1.5646  0.7270  0.7160
17674THY    CA437928   1.248   6.766   1.762 -0.3688  0.7174  0.2386
17674THY    HA437929   1.273   6.668   1.720 -2.3550 -0.9883  0.3664
17674THY    CA537930   1.208   6.869   1.674  0.9429 -1.4512  0.1426
17674THY    CM137931   1.191   6.844   1.524  0.6098  0.3643 -0.1921
17674THY    HM137932   1.270   6.899   1.471 -1.5188 -1.2849  1.4544
17674THY    HM237933   1.106   6.890   1.474 -0.4570  1.0765 -1.3246
17674THY    HM337934   1.200   6.738   1.498 -2.6007 -0.6024 -0.3342
17674THY    CA637935   1.149   6.981   1.723 -0.1886 -0.0017 -0.3299
17674THY    HA637936   1.101   7.049   1.653 -0.4405  2.6347  2.4091
17675THY      O37937   8.278   1.520   7.253 -0.1762  0.1785  0.3037
17675THY     HO37938   8.203   1.464   7.228  0.3269  2.0524 -1.3234
17675THY    CA137939   8.355   1.452   7.341 -0.0702  0.8362  0.0096
17675THY    CA237940   8.426   1.505   7.451  0.0907  0.1057  0.6991
17675THY    CP137941   8.425   1.660   7.467 -0.1933  0.7954 -0.1296
17675THY    HP137942   8.381   1.707   7.378  2.1960 -0.0191  0.6847
17675THY    CP237943   8.566   1.711   7.477 -0.3278 -0.5545  0.1461
17675THY    HP237944   8.623   1.680   7.389  2.1040  0.7915  0.5525
17675THY    HP337945   8.629   1.669   7.555  0.4706 -1.8013 -1.0582
17675THY    HP437946   8.561   1.820   7.481 -2.1004  0.7678  0.0595
17675THY    CP337947   8.356   1.697   7.596 -0.3992  0.0402 -0.8385
17675THY    HP537948   8.257   1.651   7.597  0.8062 -0.4775 -3.6165
17675THY    HP637949   8.343   1.805   7.613  2.6981  0.9172 -0.4929
17675THY    HP737950   8.408   1.652   7.682  1.4522 -0.3362  0.4402
17675THY    CA337951   8.500   1.421   7.535 -0.2204 -0.7210  0.7506
17675THY    HA337952   8.563   1.464   7.612  0.1585  0.2915 -1.4498
17675THY    CA437953   8.484   1.284   7.519  0.0874  0.9268  0.4020
17675THY    HA437954   8.543   1.216   7.581 -1.0490  0.3939 -1.1337
17675THY    CA537955   8.402   1.232   7.419 -0.4547  0.1520  0.1040
17675THY    CM137956   8.398   1.082   7.398  0.1835  0.2274 -0.2244
17675THY    HM137957   8.298   1.041   7.382 -0.8791  0.9723  1.9010
17675THY    HM237958   8.435   1.025   7.484 -0.6804 -0.6239 -2.1504
17675THY    HM337959   8.450   1.061   7.304  1.4969  0.8940 -0.0700
17675THY    CA637960   8.338   1.315   7.335  0.2990  0.3558  0.0683
17675THY    HA637961   8.272   1.281   7.255  0.7141  0.3588 -0.7937
17676THY      O37962   3.760   8.948   6.113  0.1274 -0.0010 -0.0451
17676THY     HO37963   3.756   8.969   6.018  0.1239 -0.0339 -0.1957
17676THY    CA137964   3.858   9.034   6.156  0.3528 -0.0365 -0.9436
17676THY    CA237965   3.871   9.066   6.285 -0.0421  0.5618  0.2250
17676THY    CP137966   3.778   9.012   6.388  1.2142  0.2792  0.7180
17676THY    HP137967   3.710   8.936   6.349  3.0779 -1.2346 -0.2401
17676THY    CP237968   3.699   9.125   6.463 -0.4219  0.6364  0.7503
17676THY    HP237969   3.621   9.087   6.530  0.2572  2.0073  1.6770
17676THY    HP337970   3.668   9.214   6.407  0.2334  1.6271  1.6315
17676THY    HP437971   3.768   9.168   6.537 -0.7268  2.0003 -0.9772
17676THY    CP337972   3.857   8.923   6.487  0.2336  0.0620 -0.0516
17676THY    HP537973   3.908   8.840   6.437  1.0192 -0.1224  0.5291
17676THY    HP637974   3.787   8.872   6.553  1.5256  1.0129 -0.6565
17676THY    HP737975   3.923   8.989   6.545 -2.1333  0.7440  1.8318
17676THY    CA337976   3.980   9.144   6.322 -0.2503 -0.3387 -0.5750
17676THY    HA337977   3.992   9.173   6.426  3.1070 -0.9823  0.8459
17676THY    CA437978   4.082   9.183   6.227 -0.3117 -0.3452  0.1606
17676THY    HA437979   4.166   9.247   6.254 -1.7317 -0.3373  2.1111
17676THY    CA537980   4.061   9.147   6.095 -0.4741  0.2681  0.2617
17676THY    CM137981   4.168   9.184   5.993 -0.0962 -0.9182 -0.4400
17676THY    HM137982   4.270   9.150   6.014 -0.2850 -2.5279 -2.1628
17676THY    HM237983   4.169   9.293   5.981 -1.7857 -1.0865 -0.4161
17676THY    HM337984   4.145   9.144   5.894 -1.2768 -0.3910 -1.1265
17676THY    CA637985   3.952   9.071   6.060 -0.0976  0.2673 -0.7848
17676THY    HA637986   3.947   9.044   5.955 -0.5320 -0.3026  1.3105
17677THY      O37987   6.996   5.263   2.356 -1.1134 -0.2832 -0.2905
17677THY     HO37988   7.005   5.229   2.266 -2.3001 -0.3698 -0.4095
17677THY    CA137989   7.051   5.391   2.368 -0.4581  0.6958 -0.5833
17677THY    CA237990   7.031   5.471   2.485  0.0210 -0.4968  0.2947
17677THY    CP137991   6.964   5.422   2.605 -0.1231 -0.9806  0.4867
17677THY    HP137992   6.977   5.313   2.608  2.7635  1.2735  0.7906
17677THY    CP237993   6.816   5.459   2.599  0.2473 -0.1820 -0.1151
17677THY    HP237994   6.812   5.569   2.599  1.5216 -2.0741 -0.0169
17677THY    HP337995   6.765   5.407   2.681  2.9206  3.1663  2.0874
17677THY    HP437996   6.779   5.428   2.501  0.0342 -0.0209 -0.3724
17677THY    CP337997   7.017   5.460   2.742 -0.3725  0.4882  0.5390
17677THY    HP537998   7.115   5.412   2.751 -1.1674  0.9446 -1.0827
17677THY    HP637999   6.947   5.432   2.822 -0.4523 -0.3834 -2.0419
17677THY    HP738000   7.033   5.568   2.755 -1.0777 -1.1205  0.8754
17677THY    CA338001   7.071   5.607   2.485  0.1907  0.7315  0.0496
17677THY    HA338002   7.050   5.665   2.575 -0.0914 -0.2101  1.4550
17677THY    CA438003   7.155   5.646   2.374  0.4917  0.3417 -0.4716
17677THY    HA438004   7.184   5.750   2.370 -2.3396  1.3580  0.4580
17677THY    CA538005   7.162   5.574   2.250  1.2910 -0.1812  0.0565
17677THY    CM138006   7.218   5.644   2.137  0.3375 -0.0481 -0.2361
17677THY    HM138007   7.312   5.693   2.164 -0.9918  1.2824  1.7329
17677THY    HM238008   7.144   5.724   2.122  0.8242  0.7151  0.3747
17677THY    HM338009   7.207   5.578   2.050 -1.0869  0.5979 -0.8862
17677THY    CA638010   7.107   5.443   2.249  0.1981 -0.1259 -0.0000
17677THY    HA638011   7.104   5.387   2.156 -1.7598 -1.4035  2.0609
17678THY      O38012   7.017   9.528   7.269  0.1984 -0.4564 -0.6363
17678THY     HO38013   7.064   9.547   7.186  0.7308  0.2477  1.3766
17678THY    CA138014   6.972   9.404   7.273 -0.0052  0.1820  0.5077
17678THY    CA238015   6.920   9.340   7.390 -0.0244 -0.5063  0.2886
17678THY    CP138016   6.915   9.407   7.529 -0.2944 -0.3979  0.1364
17678THY    HP138017   6.970   9.501   7.518 -1.6624 -1.0763  0.8942
17678THY    CP238018   6.989   9.322   7.632 -0.3421 -0.0561  0.1927
17678THY    HP238019   6.936   9.234   7.672 -0.1987  0.3894  0.3061
17678THY    HP338020   7.033   9.370   7.720  0.1237  0.7302 -1.6018
17678THY    HP438021   7.078   9.282   7.583 -0.4317  0.0578 -0.1555
17678THY    CP338022   6.768   9.446   7.579  0.0945  0.0912  0.8221
17678THY    HP538023   6.709   9.479   7.493 -0.1479 -0.1695 -0.2386
17678THY    HP638024   6.772   9.520   7.659  1.2521  1.1494 -0.3216
17678THY    HP738025   6.726   9.352   7.617 -0.3161 -0.1148  0.9194
17678THY    CA338026   6.868   9.212   7.375  0.3370 -0.6980  0.0238
17678THY    HA338027   6.828   9.160   7.461  0.3499  0.9552  2.5598
17678THY    CA438028   6.859   9.151   7.252 -0.1742 -0.2683  0.1560
17678THY    HA438029   6.805   9.058   7.257 -2.3921 -3.3905  1.0927
17678THY    CA538030   6.902   9.211   7.140  0.2641 -0.1674  0.6191
17678THY    CM138031   6.889   9.128   7.015 -0.5179 -0.0677  0.0600
17678THY    HM138032   6.962   9.178   6.950  1.0017  0.6598 -1.1215
17678THY    HM238033   6.790   9.123   6.968 -0.5595  0.1504 -1.7047
17678THY    HM338034   6.926   9.025   7.024 -0.5013 -0.4973  0.0250
17678THY    CA638035   6.957   9.338   7.145 -0.4187 -0.2480 -0.2279
17678THY    HA638036   6.994   9.391   7.058  1.4018  1.8293  2.1076
17679THY      O38037   1.924   2.055   4.183  0.0367 -0.6738  0.5112
17679THY     HO38038   1.836   2.096   4.175  0.7063 -2.0530  1.7490
17679THY    CA138039   1.932   1.976   4.295  0.3276 -0.7556 -0.6964
17679THY    CA238040   2.024   1.865   4.308  0.0602  0.3730  0.3578
17679THY    CP138041   2.123   1.831   4.198 -0.0938 -0.4189  0.7250
17679THY    HP138042   2.100   1.898   4.114 -1.6265  0.2033  1.0334
17679THY    CP238043   2.084   1.685   4.152 -0.3061 -0.1607 -0.1448
17679THY    HP238044   1.979   1.672   4.123 -0.1100 -0.3314 -1.4335
17679THY    HP338045   2.106   1.611   4.229 -2.2219 -0.7535 -1.4226
17679THY    HP438046   2.142   1.659   4.063  1.2030  0.4554  0.9931
17679THY    CP338047   2.273   1.842   4.241 -0.5774 -0.3735 -0.2533
17679THY    HP538048   2.304   1.946   4.254 -0.5386 -2.1498 -0.0133
17679THY    HP638049   2.336   1.807   4.159  1.0611  0.0778  1.4838
17679THY    HP738050   2.282   1.777   4.329  1.0064  1.7550  2.6300
17679THY    CA338051   2.018   1.794   4.431  0.0158 -0.1582  0.4886
17679THY    HA338052   2.081   1.707   4.444  1.3737  1.1315  1.6080
17679THY    CA438053   1.914   1.818   4.522 -0.5066  0.6745 -0.9546
17679THY    HA438054   1.906   1.757   4.611  0.3891  1.4420  0.0109
17679THY    CA538055   1.827   1.929   4.507 -0.3504  0.2221  0.0112
17679THY    CM138056   1.729   1.971   4.613 -0.5565 -0.0788  0.1999
17679THY    HM138057   1.626   1.962   4.575 -0.2255 -1.3056  1.2922
17679THY    HM238058   1.738   2.078   4.635 -3.1303  1.3972  0.2138
17679THY    HM338059   1.739   1.906   4.700  1.3666 -1.1154 -0.9828
17679THY    CA638060   1.840   2.008   4.393 -0.2197 -0.3114 -0.2388
17679THY    HA638061   1.776   2.096   4.386 -0.4459  0.7007 -0.3176
17680THY      O38062   6.298   0.368   3.094 -0.4196 -0.0622  0.2085
17680THY     HO38063   6.207   0.379   3.060 -0.1125 -0.5213  1.4152
17680THY    CA138064   6.329   0.478   3.164  0.4413  0.8424 -0.0610
17680THY    CA238065   6.448   0.494   3.228 -0.6519 -0.5491  0.1967
17680THY    CP138066   6.541   0.376   3.250 -0.5860 -0.0791 -0.3587
17680THY    HP138067   6.501   0.292   3.192  0.3673  0.3847 -1.1508
17680THY    CP238068   6.549   0.335   3.396  0.6271  0.5546  0.4394
17680THY    HP238069   6.446   0.312   3.426  1.3398  1.8896 -1.2177
17680THY    HP338070   6.569   0.418   3.466 -0.2051  0.9881  0.2942
17680THY    HP438071   6.614   0.247   3.401  0.9663 -1.9135  0.4911
17680THY    CP338072   6.688   0.401   3.198  0.1889  0.4728  0.3306
17680THY    HP538073   6.688   0.384   3.090 -2.2186 -0.4906  4.7058
17680THY    HP638074   6.765   0.345   3.252 -0.3483  1.4570  0.5056
17680THY    HP738075   6.727   0.503   3.213 -0.2331 -0.4672  0.6443
17680THY    CA338076   6.480   0.627   3.278 -0.0872  0.3495 -0.8573
17680THY    HA338077   6.576   0.653   3.323 -0.6638  0.7346  0.7344
17680THY    CA438078   6.379   0.732   3.270  0.2276  0.4996 -0.2236
17680THY    HA438079   6.399   0.832   3.307  0.8232  1.1863 -0.5862
17680THY    CA538080   6.255   0.711   3.209 -0.6279  0.0561  0.3260
17680THY    CM138081   6.159   0.816   3.200  0.4136  0.2888  0.8831
17680THY    HM138082   6.121   0.838   3.300 -3.7249 -0.8152 -0.1565
17680THY    HM238083   6.073   0.783   3.140  0.5991  0.2130  0.5315
17680THY    HM338084   6.197   0.912   3.163 -1.1856 -1.1146  1.0341
17680THY    CA638085   6.233   0.582   3.159  0.1250  0.2747 -0.2168
17680THY    HA638086   6.140   0.557   3.107  1.1159 -1.4959 -0.4014
17681THY      O38087   0.993   6.966   6.734 -0.1724  0.2376 -0.3137
17681THY     HO38088   0.976   6.973   6.829  0.1538  0.2577  0.3067
17681THY    CA138089   0.923   7.063   6.679 -0.0914 -0.2032 -0.6058
17681THY    CA238090   0.918   7.087   6.541  0.5735 -0.4619 -0.5213
17681THY    CP138091   1.005   6.998   6.448  0.6289  0.3299  0.0754
17681THY    HP138092   1.069   6.934   6.510  2.0842 -2.0606 -0.8947
17681THY    CP238093   1.102   7.079   6.362  0.8929  0.0367  0.0544
17681THY    HP238094   1.172   7.007   6.318 -1.4285 -1.0272 -1.6973
17681THY    HP338095   1.164   7.140   6.428  0.8813 -1.3319  1.6418
17681THY    HP438096   1.057   7.135   6.279  1.4498  0.8364  1.7308
17681THY    CP338097   0.922   6.906   6.362  0.2342  0.0049  0.0097
17681THY    HP538098   0.847   6.856   6.425  1.4002  0.7529 -0.8333
17681THY    HP638099   0.981   6.820   6.329  1.1784  0.9407  0.2765
17681THY    HP738100   0.864   6.953   6.282 -1.4747  0.8707 -0.5253
17681THY    CA338101   0.821   7.174   6.493  0.3822 -0.7002  0.0088
17681THY    HA338102   0.813   7.188   6.385 -0.6393 -0.7160 -0.5642
17681THY    CA438103   0.752   7.262   6.577  0.0657 -0.0859  0.8066
17681THY    HA438104   0.694   7.342   6.532  3.0267 -2.6875  1.7018
17681THY    CA538105   0.777   7.252   6.710 -0.1117  0.0705 -0.4825
17681THY    CM138106   0.716   7.345   6.810  0.1366  0.9851 -0.5616
17681THY    HM138107   0.722   7.447   6.770  1.7529  0.6028 -0.7656
17681THY    HM238108   0.760   7.341   6.910  3.4567 -0.3169 -0.4290
17681THY    HM338109   0.609   7.322   6.814 -0.1151 -0.2184  0.3440
17681THY    CA638110   0.868   7.154   6.766  0.9720 -0.4277  0.1971
17681THY    HA638111   0.873   7.148   6.875  0.6266 -0.2519  2.3679
17682THY      O38112   4.616   0.419   4.492 -0.8160 -0.3415  0.0230
17682THY     HO38113   4.568   0.504   4.492 -0.9483 -0.4424 -0.0496
17682THY    CA138114   4.597   0.347   4.605 -0.2033  0.2395  0.1953
17682THY    CA238115   4.671   0.234   4.640 -0.5642  0.3813  0.3296
17682THY    CP138116   4.779   0.181   4.544 -0.1900 -0.2001  0.1110
17682THY    HP138117   4.826   0.268   4.498 -1.7346 -1.9041  0.1053
17682THY    CP238118   4.721   0.086   4.441  0.1335 -0.2283  0.2332
17682THY    HP238119   4.793   0.024   4.387  1.5376  1.1698  0.5930
17682THY    HP338120   4.667   0.152   4.372  0.7118 -0.9308 -0.0025
17682THY    HP438121   4.649   0.018   4.488  0.7420  0.0146 -0.2555
17682THY    CP338122   4.892   0.108   4.611  0.1710 -0.5105 -0.4202
17682THY    HP538123   4.933   0.153   4.702  2.1199 -1.5290 -0.0440
17682THY    HP638124   4.981   0.102   4.547  1.7651  1.6495 -1.4112
17682THY    HP738125   4.862   0.005   4.634 -1.3777 -2.1902 -0.3899
17682THY    CA338126   4.649   0.185   4.773 -0.7156 -0.1830 -0.5920
17682THY    HA338127   4.718   0.110   4.813 -1.6254  0.0481 -1.3205
17682THY    CA438128   4.546   0.242   4.855 -0.1811  0.5064 -0.7946
17682THY    HA438129   4.532   0.208   4.957 -0.1985  0.2269 -1.6718
17682THY    CA538130   4.460   0.336   4.800 -0.9553  0.5611  0.3527
17682THY    CM138131   4.335   0.380   4.874 -0.0003  0.7091  0.7047
17682THY    HM138132   4.363   0.445   4.957 -1.7003  0.1488  2.2555
17682THY    HM238133   4.278   0.295   4.914 -0.0870 -1.4998 -0.3495
17682THY    HM338134   4.271   0.445   4.813  0.1936 -1.7649 -1.2457
17682THY    CA638135   4.492   0.399   4.681  0.2816  0.6822  0.4126
17682THY    HA638136   4.444   0.494   4.658  0.2235 -0.1729  0.1779
17683THY      O38137   7.781   6.222   2.223  0.6079 -0.5075 -0.0715
17683THY     HO38138   7.768   6.311   2.260  1.9108  1.6586 -0.7062
17683THY    CA138139   7.708   6.150   2.309  0.5749 -0.4144 -0.3582
17683THY    CA238140   7.717   6.009   2.318 -0.0004  0.3251  0.4710
17683THY    CP138141   7.808   5.930   2.222 -0.8927 -0.0114  0.1990
17683THY    HP138142   7.886   5.995   2.181 -0.4393  2.1989  1.1215
17683THY    CP238143   7.718   5.884   2.103  0.2461  0.4503 -0.6690
17683THY    HP238144   7.690   5.972   2.044 -0.0966  0.3131 -0.8705
17683THY    HP338145   7.626   5.847   2.150  0.3935  2.2360  1.0552
17683THY    HP438146   7.772   5.822   2.030 -0.7032 -1.7660  1.0075
17683THY    CP338147   7.876   5.812   2.290  0.3054 -0.1256 -0.3261
17683THY    HP538148   7.933   5.750   2.220 -1.1438  0.3606 -2.2959
17683THY    HP638149   7.812   5.731   2.326 -1.4493  0.1791  1.1278
17683THY    HP738150   7.954   5.845   2.360 -1.0510  3.3164 -3.6808
17683THY    CA338151   7.641   5.941   2.419 -0.2683  0.1819  0.3688
17683THY    HA338152   7.660   5.835   2.430 -1.2001 -0.4018  0.1333
17683THY    CA438153   7.567   6.010   2.508 -0.1769 -0.5252  0.3841
17683THY    HA438154   7.514   5.958   2.587  1.6578  2.0555  2.2140
17683THY    CA538155   7.554   6.144   2.487  0.0976 -0.5917  0.4429
17683THY    CM138156   7.463   6.214   2.582 -0.8507  0.4043 -0.1861
17683THY    HM138157   7.426   6.306   2.535  1.3722  0.2858  0.7163
17683THY    HM238158   7.516   6.226   2.677  0.5358 -0.3647 -0.0249
17683THY    HM338159   7.375   6.158   2.614 -2.1687  0.4432  1.8070
17683THY    CA638160   7.623   6.216   2.398 -0.4095  0.2500  0.3235
17683THY    HA638161   7.621   6.324   2.405  0.5938  0.4636  0.3412
17684THY      O38162   0.649   5.801   4.675 -0.2276 -0.1461 -0.6666
17684THY     HO38163   0.717   5.834   4.736 -1.8491 -0.4159  3.7850
17684THY    CA138164   0.538   5.787   4.748 -0.2063 -0.4382 -0.2166
17684THY    CA238165   0.427   5.692   4.720 -0.0261  0.2151  0.2597
17684THY    CP138166   0.436   5.608   4.587  0.1048 -0.2014 -0.3423
17684THY    HP138167   0.523   5.636   4.528 -1.3234 -1.6721  1.2464
17684THY    CP238168   0.314   5.622   4.500  0.4753 -0.3967  0.1190
17684THY    HP238169   0.298   5.728   4.478  1.2873 -0.1827  0.2906
17684THY    HP338170   0.217   5.589   4.539  1.1403  2.1772  1.0112
17684THY    HP438171   0.321   5.578   4.399  1.2081 -0.4203  0.2718
17684THY    CP338172   0.460   5.460   4.613 -0.2167 -0.6261 -0.0159
17684THY    HP538173   0.550   5.442   4.672  0.0453 -1.1264 -0.3748
17684THY    HP638174   0.477   5.407   4.518  1.5006 -0.1046 -0.4747
17684THY    HP738175   0.372   5.420   4.663 -0.2135 -0.2928  0.3919
17684THY    CA338176   0.324   5.672   4.814 -0.8178  0.1073  0.1050
17684THY    HA338177   0.251   5.594   4.796  0.1841 -1.3169 -0.5693
17684THY    CA438178   0.336   5.732   4.934 -0.1886  0.1842  1.1093
17684THY    HA438179   0.257   5.710   5.005  0.5205  1.3587  2.1597
17684THY    CA538180   0.423   5.829   4.967 -0.4555  0.5628  0.1965
17684THY    CM138181   0.438   5.879   5.106  0.6574 -0.9680 -0.4341
17684THY    HM138182   0.343   5.868   5.160  0.4173 -0.7848  1.9947
17684THY    HM238183   0.451   5.986   5.091 -0.3435  0.9948  0.0225
17684THY    HM338184   0.517   5.830   5.165 -0.6831  0.7555 -0.6392
17684THY    CA638185   0.534   5.852   4.877  0.0625  0.0774  0.2795
17684THY    HA638186   0.616   5.918   4.904  1.0354 -1.4839 -0.2245
17685THY      O38187   4.518   8.977   5.906 -0.1317  0.1416 -0.0693
17685THY     HO38188   4.491   9.052   5.850 -1.3635  0.0247 -0.5867
17685THY    CA138189   4.645   8.937   5.885 -0.5765  0.4700 -0.3493
17685THY    CA238190   4.707   8.824   5.928  0.3839  0.4866  0.0804
17685THY    CP138191   4.616   8.710   5.972 -0.8647 -0.1574 -0.4805
17685THY    HP138192   4.513   8.743   5.954 -1.2191  1.1500 -0.8137
17685THY    CP238193   4.620   8.678   6.122 -0.1603  0.2302  0.2319
17685THY    HP238194   4.680   8.590   6.149 -2.8425 -0.4134 -1.9439
17685THY    HP338195   4.518   8.665   6.159 -0.0290  0.7762  0.7259
17685THY    HP438196   4.650   8.768   6.177 -1.4905  0.1886  0.7164
17685THY    CP338197   4.638   8.579   5.901  0.8199  0.1984  0.2652
17685THY    HP538198   4.553   8.513   5.919  0.2336 -2.0781  0.3330
17685THY    HP638199   4.731   8.526   5.926  2.0697 -0.7394  1.9353
17685THY    HP738200   4.644   8.601   5.794  2.2586  0.1761 -0.1199
17685THY    CA338201   4.849   8.810   5.908  0.2590  0.4425  0.3079
17685THY    HA338202   4.892   8.714   5.936  0.3104  1.3860  0.5926
17685THY    CA438203   4.934   8.903   5.839  0.5000  0.6830 -0.0952
17685THY    HA438204   5.041   8.892   5.831  0.4041  0.4774 -0.9270
17685THY    CA538205   4.861   9.020   5.796 -0.3094  0.0825  0.3056
17685THY    CM138206   4.937   9.134   5.731  0.2214  0.5290 -0.0881
17685THY    HM138207   4.880   9.142   5.638  2.5872 -1.0463 -0.7233
17685THY    HM238208   5.040   9.105   5.706  0.3177  0.2260  0.5131
17685THY    HM338209   4.935   9.233   5.778  1.0211 -1.2905  0.8373
17685THY    CA638210   4.731   9.038   5.825  0.4298 -0.2556 -0.0701
17685THY    HA638211   4.685   9.135   5.811  0.9560 -1.1043  0.0560
17686THY      O38212   4.817   5.010   6.233 -0.1240 -0.0054  0.3991
17686THY     HO38213   4.763   4.940   6.192  2.4722 -0.4012 -1.5504
17686THY    CA138214   4.899   4.925   6.298  0.4011  0.9948 -0.1411
17686THY    CA238215   4.990   4.968   6.396 -0.0968  0.0751 -0.1063
17686THY    CP138216   5.006   5.120   6.422  0.3461 -0.4026  0.2137
17686THY    HP138217   4.984   5.174   6.329 -0.1407 -3.0190 -4.0089
17686THY    CP238218   5.143   5.167   6.459  0.3683 -0.2025 -0.6098
17686THY    HP238219   5.147   5.276   6.469 -1.1602  0.2829 -0.5788
17686THY    HP338220   5.220   5.139   6.386  1.6519  0.7648  0.2927
17686THY    HP438221   5.187   5.130   6.553  1.0379  0.7948  2.4157
17686THY    CP338222   4.902   5.162   6.524  0.0373 -0.1500  0.5472
17686THY    HP538223   4.801   5.132   6.496  0.8011 -0.7089 -1.7678
17686THY    HP638224   4.902   5.270   6.537 -0.3976  0.9945  0.4307
17686THY    HP738225   4.917   5.115   6.622  2.3077 -0.6015  0.1900
17686THY    CA338226   5.073   4.869   6.451 -0.2276 -0.1063 -0.8845
17686THY    HA338227   5.155   4.898   6.517  0.1102  0.5002 -3.0051
17686THY    CA438228   5.060   4.736   6.402  0.3283  0.1159 -0.3712
17686THY    HA438229   5.131   4.664   6.442  0.5178  0.5934  0.0712
17686THY    CA538230   4.966   4.698   6.303 -0.6122 -0.1864 -0.5111
17686THY    CM138231   4.969   4.550   6.254 -1.0010  0.0943  0.3873
17686THY    HM138232   4.878   4.497   6.284 -0.7171 -0.2239 -0.2857
17686THY    HM238233   5.058   4.492   6.279 -0.5615 -1.5649  0.2901
17686THY    HM338234   4.973   4.547   6.144  3.2991  0.1087  0.5950
17686THY    CA638235   4.884   4.795   6.247 -0.3368 -0.2278  0.7158
17686THY    HA638236   4.816   4.775   6.165  0.6465 -1.3156  1.7349
17687THY      O38237   7.751   7.720   3.461 -0.0717 -0.2204  0.0524
17687THY     HO38238   7.817   7.656   3.432  0.7838 -0.2335  0.9149
17687THY    CA138239   7.631   7.666   3.443  0.8887 -0.0161  0.5334
17687THY    CA238240   7.503   7.735   3.472  0.2050  0.4562 -0.4372
17687THY    CP138241   7.503   7.879   3.504  0.0533  0.9032 -0.2173
17687THY    HP138242   7.604   7.908   3.535  1.0546 -1.5451 -0.8426
17687THY    CP238243   7.416   7.918   3.621  0.5016 -0.1781  0.2093
17687THY    HP238244   7.445   8.022   3.639  0.6978 -0.1368  0.1483
17687THY    HP338245   7.434   7.849   3.704 -0.5517 -0.4558 -0.4269
17687THY    HP438246   7.311   7.914   3.589  0.8790 -1.4659 -0.1143
17687THY    CP338247   7.463   7.966   3.383 -0.3130  0.3786  0.1992
17687THY    HP538248   7.459   8.073   3.407  0.8236 -0.7802  0.5318
17687THY    HP638249   7.369   7.930   3.341 -0.3141 -0.2410  0.9007
17687THY    HP738250   7.542   7.959   3.307 -0.8761 -0.1587 -0.3072
17687THY    CA338251   7.383   7.661   3.464 -0.4934 -0.1129  0.1395
17687THY    HA338252   7.289   7.712   3.483 -1.0411 -0.2271 -0.8202
17687THY    CA438253   7.393   7.534   3.414  0.7863 -0.1297 -0.1805
17687THY    HA438254   7.300   7.479   3.414 -1.3379 -2.7157  3.0513
17687THY    CA538255   7.511   7.472   3.372  0.7531  0.2669  0.5673
17687THY    CM138256   7.508   7.320   3.350  0.4566  0.0243  0.0411
17687THY    HM138257   7.598   7.268   3.385  0.4305 -0.5218 -0.3817
17687THY    HM238258   7.497   7.299   3.243  1.0420  0.2920 -1.7926
17687THY    HM338259   7.416   7.269   3.381  1.4044  0.2232 -1.6211
17687THY    CA638260   7.637   7.534   3.404 -0.6923  0.3773  0.1054
17687THY    HA638261   7.730   7.481   3.385 -1.4471 -1.1543 -0.7694
17688THY      O38262   3.835   4.125   7.115  0.4008 -0.0177  0.1906
17688THY     HO38263   3.803   4.154   7.203 -0.7158 -0.6111  0.8527
17688THY    CA138264   3.788   4.223   7.034 -1.6670  0.4408  0.2767
17688THY    CA238265   3.730   4.193   6.906 -0.0700  0.0422  0.0850
17688THY    CP138266   3.714   4.049   6.862 -0.2823 -0.3759  0.5971
17688THY    HP138267   3.718   3.981   6.948 -1.4067 -1.8164 -1.4031
17688THY    CP238268   3.827   4.000   6.771 -0.2178 -0.5786  0.1187
17688THY    HP238269   3.804   4.029   6.668 -1.4841 -0.2384  0.4246
17688THY    HP338270   3.843   3.893   6.783  2.3903 -0.1784  0.4743
17688THY    HP438271   3.924   4.038   6.806 -1.0824  1.8255  0.2683
17688THY    CP338272   3.575   4.014   6.795 -0.1619  0.5009  0.1288
17688THY    HP538273   3.567   4.075   6.704 -1.2383 -0.3787 -1.2661
17688THY    HP638274   3.484   4.019   6.856 -0.0487  0.7538 -0.8032
17688THY    HP738275   3.572   3.910   6.761 -5.8826  1.4774 -0.3536
17688THY    CA338276   3.682   4.299   6.819  0.7525  0.1557  0.2335
17688THY    HA338277   3.634   4.277   6.724  0.2369 -0.0179  1.9742
17688THY    CA438278   3.698   4.430   6.875 -0.6809  0.4032  0.0938
17688THY    HA438279   3.660   4.520   6.827 -0.2050  0.3502  0.2721
17688THY    CA538280   3.740   4.456   7.004 -0.5719 -0.2857 -0.3828
17688THY    CM138281   3.745   4.594   7.057  0.7008  0.4353 -0.6798
17688THY    HM138282   3.702   4.674   6.995 -0.7813  1.9705 -0.2181
17688THY    HM238283   3.848   4.615   7.088  0.1750  1.5938  0.2922
17688THY    HM338284   3.693   4.589   7.153  0.8746  0.8040  2.8134
17688THY    CA638285   3.796   4.352   7.080  0.3121 -0.1185  0.1452
17688THY    HA638286   3.834   4.363   7.182  0.7732 -0.0695 -1.5208
17689THY      O38287   0.888   6.887   7.218  0.3220 -0.1312 -0.1062
17689THY     HO38288   0.818   6.821   7.231 -0.3820  0.9581  0.8283
17689THY    CA138289   0.895   6.961   7.333  0.5931 -0.1027  0.9402
17689THY    CA238290   0.919   7.098   7.343 -0.3705 -0.0455  0.1091
17689THY    CP138291   0.933   7.182   7.213  0.0323  0.4137 -0.2819
17689THY    HP138292   0.895   7.118   7.132  0.2061  1.0366 -1.1882
17689THY    CP238293   1.089   7.205   7.189  0.1529  0.2814  0.3456
17689THY    HP238294   1.141   7.272   7.258  1.5726  0.4230 -0.8535
17689THY    HP338295   1.110   7.230   7.085 -0.7160 -0.6391 -2.4008
17689THY    HP438296   1.139   7.108   7.186 -0.7501 -1.1606 -0.1061
17689THY    CP338297   0.862   7.315   7.202  0.1585  0.3113  0.6424
17689THY    HP538298   0.896   7.380   7.121 -3.9184 -3.1023 -1.0463
17689THY    HP638299   0.872   7.374   7.294  2.1411  0.6660 -0.1431
17689THY    HP738300   0.755   7.302   7.183  0.4381 -1.0649  0.2476
17689THY    CA338301   0.919   7.157   7.472  0.4982 -0.6969 -0.1465
17689THY    HA338302   0.935   7.264   7.482 -2.5424 -0.1374  0.3526
17689THY    CA438303   0.909   7.082   7.588  0.2437 -0.6327 -0.2272
17689THY    HA438304   0.883   7.119   7.686 -2.1958 -0.6456 -1.6521
17689THY    CA538305   0.905   6.942   7.569 -0.0058 -0.9978 -0.0578
17689THY    CM138306   0.918   6.840   7.680  0.6750  0.3785  0.7616
17689THY    HM138307   0.820   6.819   7.723  0.0943 -1.7332 -1.3090
17689THY    HM238308   0.979   6.883   7.760 -0.8440  1.4667  0.9520
17689THY    HM338309   0.969   6.746   7.655  0.4354 -0.1155  0.7567
17689THY    CA638310   0.891   6.881   7.448 -0.5552  0.5679  0.7928
17689THY    HA638311   0.873   6.775   7.433 -1.8364  0.1877  1.0492
17690THY      O38312   8.692   6.160   6.914  0.0149  0.5377 -0.1526
17690THY     HO38313   8.734   6.166   6.826  0.0358  0.5882  0.5401
17690THY    CA138314   8.562   6.131   6.886 -0.2836 -0.2497 -0.1796
17690THY    CA238315   8.473   6.115   6.996 -0.2429 -0.3741  0.0660
17690THY    CP138316   8.531   6.116   7.144  0.3322  0.1363  0.4326
17690THY    HP138317   8.626   6.170   7.155  2.1556  1.4373 -2.7422
17690THY    CP238318   8.554   5.975   7.190  0.5011  0.4631  0.3851
17690THY    HP238319   8.607   5.964   7.285  0.2632  0.7436  1.5153
17690THY    HP338320   8.606   5.934   7.103  0.6699  1.2875 -1.2165
17690THY    HP438321   8.458   5.926   7.207  0.4362 -2.0164 -0.4748
17690THY    CP338322   8.432   6.190   7.237 -0.4646 -0.6535  0.3859
17690THY    HP538323   8.475   6.201   7.337 -0.8782 -0.4317  0.0245
17690THY    HP638324   8.340   6.135   7.258  0.0207  2.0079  0.4511
17690THY    HP738325   8.409   6.289   7.197 -1.6424  1.2649  0.9442
17690THY    CA338326   8.339   6.097   6.970 -0.0239  0.4534 -0.3921
17690THY    HA338327   8.278   6.074   7.057 -1.3151 -0.6949 -1.5131
17690THY    CA438328   8.289   6.112   6.838 -0.7354  0.1191  0.2103
17690THY    HA438329   8.187   6.086   6.813 -0.9832 -0.4412  1.6509
17690THY    CA538330   8.374   6.125   6.732 -0.2881  0.7265 -0.1019
17690THY    CM138331   8.327   6.123   6.590  0.4551  0.1116 -0.6109
17690THY    HM138332   8.379   6.199   6.530  2.0923  2.5723  0.3498
17690THY    HM238333   8.220   6.149   6.588  0.1902  1.6057 -1.4892
17690THY    HM338334   8.342   6.029   6.537  0.6829  1.0241 -1.0985
17690THY    CA638335   8.517   6.137   6.757  0.8559 -0.8680  0.3172
17690THY    HA638336   8.584   6.160   6.675  0.5181 -0.4282  3.2538
17691THY      O38337   8.173   8.577   4.895 -0.3050  0.6643 -0.1578
17691THY     HO38338   8.090   8.544   4.856 -0.0142 -0.8032  0.7203
17691THY    CA138339   8.143   8.692   4.957 -0.1102  0.4379  0.5284
17691THY    CA238340   8.240   8.783   5.012  0.3895  0.0539  0.5599
17691THY    CP138341   8.394   8.754   4.990 -0.4495 -0.1330  0.0672
17691THY    HP138342   8.414   8.676   4.915  3.0819  2.1056 -1.4125
17691THY    CP238343   8.472   8.704   5.109 -0.5666  0.3356  0.2905
17691THY    HP238344   8.571   8.662   5.087 -0.6294 -0.2061  0.4311
17691THY    HP338345   8.422   8.620   5.160 -0.4912 -1.9594 -1.2277
17691THY    HP438346   8.495   8.775   5.189 -0.4947 -0.4646  1.1675
17691THY    CP338347   8.462   8.881   4.942  0.7227  0.3047  0.4169
17691THY    HP538348   8.463   8.957   5.020 -1.4434  0.6705  0.1508
17691THY    HP638349   8.412   8.918   4.852  0.8030  0.6846  1.4592
17691THY    HP738350   8.562   8.858   4.905 -0.3524 -1.6257 -1.6225
17691THY    CA338351   8.190   8.897   5.085 -0.1380 -0.2412  0.1470
17691THY    HA338352   8.262   8.967   5.125  1.7433 -0.6933 -1.4239
17691THY    CA438353   8.052   8.918   5.099  0.7368 -0.8533  0.0637
17691THY    HA438354   8.020   9.010   5.147  0.7639 -0.3774 -0.1734
17691THY    CA538355   7.958   8.831   5.046 -0.2561  0.4255  0.3374
17691THY    CM138356   7.815   8.872   5.043  0.6824 -0.7173 -0.0167
17691THY    HM138357   7.789   8.947   5.119  1.1429 -1.1129  0.5488
17691THY    HM238358   7.747   8.787   5.053 -0.3200 -2.0882  0.5948
17691THY    HM338359   7.797   8.916   4.945  1.7803 -1.4439 -1.1119
17691THY    CA638360   8.007   8.720   4.974 -0.1200  0.0289  0.0685
17691THY    HA638361   7.936   8.651   4.932  0.6714 -1.1246 -0.0706
17692THY      O38362   8.057   5.522   6.405 -0.0132 -0.1115 -0.1598
17692THY     HO38363   8.069   5.598   6.464 -1.0565 -1.3230  1.0029
17692THY    CA138364   7.954   5.451   6.452  0.2911  0.2263 -0.8690
17692THY    CA238365   7.882   5.366   6.374 -0.5023 -0.5698 -0.0483
17692THY    CP138366   7.920   5.346   6.225 -0.1358 -0.0968 -0.2738
17692THY    HP138367   7.995   5.421   6.197  1.0547  2.2843 -0.4572
17692THY    CP238368   7.808   5.371   6.131  0.1097 -0.4978 -0.0511
17692THY    HP238369   7.722   5.312   6.164 -1.3640 -2.0883  1.1278
17692THY    HP338370   7.829   5.349   6.026 -1.3730 -0.9585  0.6106
17692THY    HP438371   7.783   5.476   6.147 -1.5445 -0.5698 -0.4042
17692THY    CP338372   7.976   5.208   6.205  0.5804 -0.6419 -0.6139
17692THY    HP538373   8.071   5.205   6.261  0.2670  0.2013  2.3055
17692THY    HP638374   7.973   5.180   6.099 -3.5452 -0.5536 -1.0395
17692THY    HP738375   7.910   5.139   6.259  0.2191 -1.5834 -1.0251
17692THY    CA338376   7.774   5.295   6.441  0.1009  0.3468 -1.1483
17692THY    HA338377   7.711   5.220   6.393 -2.2788  2.1591 -0.4246
17692THY    CA438378   7.745   5.327   6.582 -0.4275  0.4981 -0.0249
17692THY    HA438379   7.676   5.265   6.639 -0.0307 -0.0190 -0.9657
17692THY    CA538380   7.813   5.426   6.650 -0.3185 -0.3287  0.0691
17692THY    CM138381   7.790   5.440   6.794  0.0130 -0.0070  0.3938
17692THY    HM138382   7.694   5.477   6.833  0.2476 -0.1532  1.1866
17692THY    HM238383   7.865   5.510   6.833 -1.6697 -1.1239  2.9764
17692THY    HM338384   7.808   5.343   6.841 -2.0175 -1.9389 -1.0171
17692THY    CA638385   7.924   5.481   6.584  0.3591 -0.8420  0.9741
17692THY    HA638386   7.998   5.532   6.644  0.6140  0.8922 -1.2625
17693THY      O38387   3.900   6.086   5.396 -0.1909 -0.1122 -0.0937
17693THY     HO38388   3.995   6.069   5.382  0.3430 -1.1507  3.0461
17693THY    CA138389   3.884   6.196   5.315  0.0637 -0.2380  0.3999
17693THY    CA238390   3.759   6.229   5.262 -0.4272 -0.0898  0.0391
17693THY    CP138391   3.646   6.133   5.289 -0.1403  0.2594 -0.0757
17693THY    HP138392   3.669   6.040   5.342 -2.3191  0.1321 -0.7489
17693THY    CP238393   3.580   6.085   5.162 -0.4937 -0.6148 -0.3863
17693THY    HP238394   3.651   6.070   5.080  1.0771  0.8838 -1.4265
17693THY    HP338395   3.497   6.143   5.120 -0.1506 -1.2024 -0.3072
17693THY    HP438396   3.543   5.984   5.179  0.6890  1.4911 -0.5102
17693THY    CP338397   3.540   6.204   5.374  0.0612 -0.0526 -0.4710
17693THY    HP538398   3.587   6.241   5.466 -0.5160 -0.2407  0.7828
17693THY    HP638399   3.470   6.136   5.422 -0.6481 -0.5691 -0.1145
17693THY    HP738400   3.487   6.290   5.331  1.0571  0.5318  0.4590
17693THY    CA338401   3.740   6.339   5.166 -0.4107 -1.0943  0.5824
17693THY    HA338402   3.642   6.355   5.124 -0.6561 -0.3865  0.9856
17693THY    CA438403   3.854   6.410   5.138 -0.2675 -0.2425  0.6208
17693THY    HA438404   3.855   6.488   5.063 -0.5458 -0.9822 -0.0718
17693THY    CA538405   3.980   6.378   5.202  0.2495  0.1859  0.3168
17693THY    CM138406   4.105   6.449   5.163  0.2531 -0.2266  0.8072
17693THY    HM138407   4.090   6.523   5.084  1.4310  0.4049  1.7644
17693THY    HM238408   4.177   6.380   5.119  0.7516 -0.5706  1.5287
17693THY    HM338409   4.155   6.502   5.246  1.4985 -0.2806 -0.2456
17693THY    CA638410   3.997   6.262   5.282 -0.0115 -0.0706 -0.4850
17693THY    HA638411   4.095   6.245   5.325  0.6229 -0.2654  2.1731
17694THY      O38412   5.776   2.034   3.926  0.0658  0.0226 -0.0203
17694THY     HO38413   5.775   2.124   3.890 -5.0407 -0.0661  0.1716
17694THY    CA138414   5.695   2.044   4.039  0.4339  0.1155 -0.4084
17694THY    CA238415   5.600   1.947   4.073 -0.1171  0.1055  0.2839
17694THY    CP138416   5.579   1.825   3.989  0.0934 -0.9057  0.3038
17694THY    HP138417   5.645   1.830   3.902  1.2900 -0.0404  0.1838
17694THY    CP238418   5.434   1.821   3.945 -0.0481 -0.2541  0.4779
17694THY    HP238419   5.414   1.740   3.874 -1.2731  0.0505  0.4970
17694THY    HP338420   5.417   1.912   3.885 -3.6137  1.9009  1.4510
17694THY    HP438421   5.365   1.843   4.027 -0.2978 -0.5265  0.7183
17694THY    CP338422   5.621   1.703   4.076  0.2115 -0.3946 -0.0214
17694THY    HP538423   5.626   1.617   4.009 -1.3357 -2.9281  1.7188
17694THY    HP638424   5.560   1.687   4.166 -0.3061 -0.4372  1.5252
17694THY    HP738425   5.725   1.722   4.103  0.5425 -2.3943  1.2969
17694THY    CA338426   5.528   1.967   4.192  0.1320 -0.0232 -0.3618
17694THY    HA338427   5.461   1.887   4.222  1.5222 -0.8590 -1.8816
17694THY    CA438428   5.547   2.086   4.274  0.1375  0.0215 -0.2900
17694THY    HA438429   5.498   2.097   4.370  3.8260  2.1424 -0.6639
17694THY    CA538430   5.645   2.183   4.242  0.2463 -0.3118  0.4693
17694THY    CM138431   5.669   2.303   4.330  0.5191 -0.4692  0.5293
17694THY    HM138432   5.740   2.360   4.269  0.7198 -0.7659 -0.0317
17694THY    HM238433   5.704   2.281   4.431  2.6276 -1.3706 -0.5861
17694THY    HM338434   5.579   2.365   4.332  0.8582 -0.4434  1.0253
17694THY    CA638435   5.718   2.164   4.119  0.4395 -0.0169 -0.1941
17694THY    HA638436   5.786   2.242   4.088 -1.9310 -2.3231  1.1291
17695THY      O38437   2.627   7.610   4.606  0.0062 -0.5426 -0.5022
17695THY     HO38438   2.625   7.582   4.700  1.8026  0.5371  2.4666
17695THY    CA138439   2.586   7.735   4.621  0.9096  0.2164  0.4170
17695THY    CA238440   2.536   7.804   4.510  0.1252  0.2231  0.4272
17695THY    CP138441   2.529   7.741   4.372  0.2881 -0.6793  0.0182
17695THY    HP138442   2.507   7.634   4.383 -0.8353 -1.1395  0.1958
17695THY    CP238443   2.669   7.745   4.297 -0.0329  1.0365 -0.6631
17695THY    HP238444   2.759   7.717   4.353  3.0152 -2.2682  1.6488
17695THY    HP338445   2.703   7.838   4.250  1.4018  1.0297 -1.1640
17695THY    HP438446   2.674   7.663   4.225  1.3933  1.9621 -1.4279
17695THY    CP338447   2.421   7.813   4.290 -0.4141  0.5073  0.9472
17695THY    HP538448   2.390   7.751   4.205 -0.6710  0.3755  1.2477
17695THY    HP638449   2.454   7.911   4.254  0.5451  1.1172  0.8603
17695THY    HP738450   2.328   7.819   4.348  0.9030  2.5501  2.7905
17695THY    CA338451   2.479   7.926   4.541  0.3783  0.1133 -0.1950
17695THY    HA338452   2.426   7.983   4.466 -1.0223 -0.4398 -2.1207
17695THY    CA438453   2.488   7.979   4.672  0.2341  0.7153  0.5763
17695THY    HA438454   2.457   8.082   4.685 -0.2975  0.1733  0.4933
17695THY    CA538455   2.546   7.909   4.774  0.1040  0.1253  0.0724
17695THY    CM138456   2.552   7.968   4.914 -0.3202 -0.3071  0.1699
17695THY    HM138457   2.490   7.908   4.981  1.3192 -0.4707 -1.7926
17695THY    HM238458   2.512   8.070   4.916  1.9115 -0.1752  1.1037
17695THY    HM338459   2.650   7.960   4.964 -0.8769  0.9645  0.8917
17695THY    CA638460   2.581   7.783   4.753  0.0468 -0.1112 -0.2132
17695THY    HA638461   2.635   7.733   4.833  1.2691  0.9824  2.6527
17696THY      O38462   2.774   0.731   5.866  0.1381 -0.0885  0.4069
17696THY     HO38463   2.845   0.714   5.930  0.3889 -0.4412  0.0783
17696THY    CA138464   2.684   0.626   5.869 -0.2099 -0.6842 -0.3114
17696THY    CA238465   2.662   0.549   5.748  0.3601  0.0013  0.3728
17696THY    CP138466   2.733   0.585   5.617 -0.4916  0.8715 -1.3181
17696THY    HP138467   2.813   0.655   5.646 -1.3603  2.8798 -1.1001
17696THY    CP238468   2.637   0.678   5.525  0.1105  0.1986 -0.0258
17696THY    HP238469   2.608   0.762   5.589  2.2142 -0.3088  1.1549
17696THY    HP338470   2.554   0.613   5.494  0.6960  1.2452 -1.3255
17696THY    HP438471   2.681   0.721   5.434 -0.3171 -0.2131 -0.4422
17696THY    CP338472   2.788   0.464   5.549 -0.3080 -0.3583  0.0740
17696THY    HP538473   2.827   0.476   5.448 -2.6230 -1.6373 -2.1901
17696THY    HP638474   2.710   0.395   5.515  1.5083 -0.5985 -1.9820
17696THY    HP738475   2.859   0.413   5.615 -0.2987  0.6909  1.3824
17696THY    CA338476   2.569   0.442   5.752  0.1432  0.3851  0.0640
17696THY    HA338477   2.537   0.383   5.667 -0.0409  0.7997 -0.4514
17696THY    CA438478   2.513   0.405   5.876 -0.6044 -0.5095  0.0414
17696THY    HA438479   2.443   0.323   5.886 -1.1477  1.0504  0.6504
17696THY    CA538480   2.563   0.467   5.994 -1.2864 -0.1147  0.5498
17696THY    CM138481   2.518   0.417   6.131 -0.3785 -0.6765 -0.0940
17696THY    HM138482   2.461   0.497   6.179  0.1298  2.6737 -1.5955
17696THY    HM238483   2.593   0.394   6.207  0.7642 -1.0120  2.2351
17696THY    HM338484   2.457   0.327   6.119 -2.6640  1.0799  1.1418
17696THY    CA638485   2.640   0.584   5.987 -0.5381 -0.5222 -0.7827
17696THY    HA638486   2.662   0.636   6.079 -2.4947 -1.6343  2.2300
17697THY      O38487   5.650   6.377   4.722  0.2214 -0.7226 -0.4118
17697THY     HO38488   5.662   6.393   4.817  2.1715 -1.4799  4.0727
17697THY    CA138489   5.519   6.332   4.711 -0.4147  0.5842  0.1073
17697THY    CA238490   5.473   6.254   4.603 -0.0133 -0.6052  0.0497
17697THY    CP138491   5.562   6.217   4.492 -0.1010  0.0540 -0.0951
17697THY    HP138492   5.639   6.295   4.487 -0.5215 -1.1673  0.2746
17697THY    CP238493   5.494   6.184   4.352  0.4264 -0.2452  0.7111
17697THY    HP238494   5.577   6.155   4.286  0.2690 -0.1081 -0.0521
17697THY    HP338495   5.441   6.273   4.314 -0.8743 -1.5261 -0.5654
17697THY    HP438496   5.418   6.107   4.362  0.1757  0.3108  1.0279
17697THY    CP338497   5.638   6.087   4.532 -0.4800 -0.1267 -0.1921
17697THY    HP538498   5.670   6.099   4.636  1.8526 -0.6708 -1.1331
17697THY    HP638499   5.724   6.067   4.467 -1.3149 -1.3551  0.1045
17697THY    HP738500   5.571   6.002   4.521  0.7708 -2.2808 -0.9759
17697THY    CA338501   5.337   6.206   4.614 -0.1135  0.2651 -0.2372
17697THY    HA338502   5.294   6.130   4.550  1.7931  2.3627 -3.2747
17697THY    CA438503   5.258   6.225   4.731 -0.7247  0.2633 -0.0392
17697THY    HA438504   5.165   6.172   4.748 -0.7838 -1.4775 -0.5324
17697THY    CA538505   5.304   6.317   4.829  0.1622  0.6322 -0.2973
17697THY    CM138506   5.214   6.373   4.935  0.1538  0.4116 -0.0505
17697THY    HM138507   5.108   6.349   4.921  0.0944 -0.4607  0.6904
17697THY    HM238508   5.220   6.482   4.941  0.2723 -1.2977  0.0588
17697THY    HM338509   5.250   6.341   5.034  2.4886 -0.9717 -2.0547
17697THY    CA638510   5.434   6.369   4.812 -0.1873 -0.6482 -0.3993
17697THY    HA638511   5.480   6.437   4.883 -1.1111 -1.2240  0.8567
17698THY      O38512   7.019   2.029   1.613  0.2844 -0.5626 -0.0332
17698THY     HO38513   6.947   2.014   1.549  1.0856 -0.8788 -3.3688
17698THY    CA138514   7.008   1.951   1.724  0.0813 -0.4594 -0.0001
17698THY    CA238515   7.058   1.989   1.855 -0.2969 -0.5876 -0.8724
17698THY    CP138516   7.127   2.128   1.871 -0.5391  0.9159  0.4785
17698THY    HP138517   7.136   2.175   1.772 -1.8821  0.4002 -0.3187
17698THY    CP238518   7.272   2.111   1.913 -0.4022 -0.4532  0.3915
17698THY    HP238519   7.289   2.045   1.999  1.6416 -1.9769 -1.2281
17698THY    HP338520   7.328   2.204   1.920 -0.4247  1.4035  0.3039
17698THY    HP438521   7.333   2.053   1.843  3.0197  1.1125  1.8525
17698THY    CP338522   7.041   2.217   1.955  0.0992  0.1723 -0.8616
17698THY    HP538523   7.007   2.166   2.046  0.7646  0.1483 -1.3672
17698THY    HP638524   6.949   2.237   1.900 -0.3722  1.4982  0.9631
17698THY    HP738525   7.077   2.316   1.986 -2.2306 -2.1181  0.8248
17698THY    CA338526   7.050   1.892   1.962  0.1493 -0.4140  0.3371
17698THY    HA338527   7.106   1.904   2.054  0.6039  0.0858 -3.8903
17698THY    CA438528   6.990   1.765   1.940 -0.3124 -0.1637  0.8735
17698THY    HA438529   6.976   1.689   2.016 -0.9303 -0.9674  0.1601
17698THY    CA538530   6.941   1.732   1.809  0.3255  0.2543  0.3834
17698THY    CM138531   6.877   1.593   1.793  0.1539  0.1520 -0.8038
17698THY    HM138532   6.928   1.506   1.834  1.1810 -1.7028 -1.1380
17698THY    HM238533   6.856   1.571   1.687  0.3666 -0.4597  1.5794
17698THY    HM338534   6.783   1.605   1.848  0.6848  0.5744  2.1446
17698THY    CA638535   6.945   1.828   1.709  0.3391 -0.4090 -0.9200
17698THY    HA638536   6.886   1.800   1.623 -0.7421 -0.2334  0.6473
17699THY      O38537   1.123   1.026   6.440  0.2295 -0.5033 -0.3524
17699THY     HO38538   1.188   1.096   6.458 -0.0109 -2.2880  0.3704
17699THY    CA138539   1.186   0.906   6.453 -0.0431 -0.4608 -0.3168
17699THY    CA238540   1.119   0.782   6.470 -0.1328  0.4708  1.0389
17699THY    CP138541   0.971   0.774   6.482  0.0641  0.1891  0.1022
17699THY    HP138542   0.909   0.862   6.458 -0.8132  2.1946  0.0957
17699THY    CP238543   0.918   0.718   6.619 -0.2366 -0.0210 -0.2560
17699THY    HP238544   0.946   0.612   6.622  0.4667  0.3642 -0.0630
17699THY    HP338545   0.812   0.741   6.634 -0.4433  3.1722 -2.6385
17699THY    HP438546   0.970   0.768   6.701  0.9898 -1.8579  1.6340
17699THY    CP338547   0.918   0.665   6.388 -0.4061 -0.5610 -0.1537
17699THY    HP538548   0.813   0.677   6.360 -0.7289  0.4849 -0.4343
17699THY    HP638549   0.936   0.560   6.414 -0.3431 -1.5890 -0.4059
17699THY    HP738550   0.958   0.691   6.289  1.1105 -0.4432 -1.8528
17699THY    CA338551   1.200   0.664   6.466 -0.0001  0.3947 -0.1561
17699THY    HA338552   1.157   0.565   6.482 -0.3553  1.0590  0.0987
17699THY    CA438553   1.334   0.675   6.442  0.0437  0.8602  0.4841
17699THY    HA438554   1.390   0.582   6.449  1.8465 -0.3419  1.4267
17699THY    CA538555   1.396   0.799   6.428 -0.0959 -0.2169  0.2259
17699THY    CM138556   1.543   0.816   6.409 -0.2436 -0.5228  0.0624
17699THY    HM138557   1.594   0.834   6.504 -1.1182 -0.1459  0.6087
17699THY    HM238558   1.567   0.888   6.330  1.4767  1.1886  1.4747
17699THY    HM338559   1.586   0.727   6.361  3.1001  0.9417  0.7387
17699THY    CA638560   1.321   0.915   6.434  0.5523  0.2307 -0.3341
17699THY    HA638561   1.363   1.015   6.430 -0.1783  0.0012 -0.0330
17700THY      O38562   8.060   3.146   2.457 -0.4943  0.2355  0.2897
17700THY     HO38563   8.028   3.165   2.367  0.4008 -0.4385 -1.2230
17700THY    CA138564   7.959   3.072   2.509  0.1440  0.4411 -0.2923
17700THY    CA238565   7.978   2.957   2.584 -0.6535  0.4823 -0.2351
17700THY    CP138566   8.116   2.903   2.607 -0.8015  0.5298 -0.4542
17700THY    HP138567   8.189   2.937   2.532 -0.3308  1.2237  0.0947
17700THY    CP238568   8.123   2.751   2.587 -0.1639  0.3741  0.0530
17700THY    HP238569   8.067   2.689   2.659 -1.8638 -0.3104  0.7382
17700THY    HP338570   8.226   2.713   2.582 -0.2521  2.3525 -0.5539
17700THY    HP438571   8.064   2.731   2.497  0.1026  0.1781  0.1327
17700THY    CP338572   8.160   2.929   2.751  0.7087 -0.1364 -0.2638
17700THY    HP538573   8.148   3.036   2.772  2.0967 -3.1419  0.5867
17700THY    HP638574   8.262   2.898   2.777 -0.0002  1.3233 -1.5338
17700THY    HP738575   8.100   2.874   2.824  1.2170  1.2386  0.9332
17700THY    CA338576   7.863   2.898   2.634  0.0405 -0.1009  0.4789
17700THY    HA338577   7.870   2.818   2.708  0.7702  1.8125  2.2342
17700THY    CA438578   7.737   2.939   2.602  0.1827  0.2491 -0.3751
17700THY    HA438579   7.653   2.890   2.650  0.7263  0.0129 -1.6054
17700THY    CA538580   7.722   3.048   2.513 -0.4742  0.1389  0.3097
17700THY    CM138581   7.581   3.095   2.472 -0.2109 -0.0145  0.3586
17700THY    HM138582   7.512   3.017   2.507  0.4846  0.3280 -0.1139
17700THY    HM238583   7.561   3.097   2.364  0.2307 -0.0962  1.8171
17700THY    HM338584   7.555   3.195   2.508 -1.3088 -3.4234  1.4415
17700THY    CA638585   7.833   3.116   2.468  0.1113  0.3703 -0.4703
17700THY    HA638586   7.822   3.199   2.398  0.0436  0.1042 -0.7026
17701THY      O38587   4.623   8.910   2.967  0.1304 -0.4109 -0.2661
17701THY     HO38588   4.617   8.955   3.053 -0.5124 -0.3011 -0.5381
17701THY    CA138589   4.742   8.947   2.916  0.0530  0.2275 -0.3769
17701THY    CA238590   4.753   8.983   2.779  0.3098 -0.4519  0.4675
17701THY    CP138591   4.634   8.967   2.685 -0.1032 -0.1616  0.0374
17701THY    HP138592   4.537   8.960   2.736 -0.1183  0.0710  1.5581
17701THY    CP238593   4.657   8.857   2.582 -0.2345 -0.4646  0.5095
17701THY    HP238594   4.610   8.764   2.617  0.3657  2.6486  1.2478
17701THY    HP338595   4.764   8.841   2.566 -0.1169 -0.5050  1.3174
17701THY    HP438596   4.602   8.881   2.490 -0.8144 -0.1544  0.4099
17701THY    CP338597   4.621   9.101   2.617  0.0515 -0.1307 -0.7102
17701THY    HP538598   4.520   9.103   2.574  0.4504 -1.0510  0.0212
17701THY    HP638599   4.697   9.123   2.542 -0.5743  0.2027  3.5374
17701THY    HP738600   4.622   9.181   2.692 -0.7807 -1.3049  0.4517
17701THY    CA338601   4.880   9.020   2.729  0.3498 -0.1728 -0.3542
17701THY    HA338602   4.892   9.041   2.623  0.1849 -0.4952 -1.7589
17701THY    CA438603   4.990   9.022   2.816  0.1436 -0.0173 -0.6836
17701THY    HA438604   5.081   9.063   2.774 -0.5248  0.2195  1.1351
17701THY    CA538605   4.975   8.976   2.948  0.2499 -0.5659  0.6862
17701THY    CM138606   5.099   8.968   3.036 -0.3612 -0.3329  0.6736
17701THY    HM138607   5.103   9.064   3.087  1.2493 -0.2319  0.5753
17701THY    HM238608   5.186   8.963   2.970 -0.1820 -0.2300  2.1213
17701THY    HM338609   5.088   8.888   3.111 -1.1982 -0.5211  0.5952
17701THY    CA638610   4.852   8.938   3.002 -0.0289  0.7278 -0.6698
17701THY    HA638611   4.845   8.902   3.105 -0.6173  0.2077 -2.1391
17702THY      O38612   2.886   2.299   2.360  0.0098 -0.3225 -0.8166
17702THY     HO38613   2.952   2.365   2.390 -0.7953  0.8467 -0.5173
17702THY    CA138614   2.807   2.372   2.284  0.6876  0.2143 -0.5092
17702THY    CA238615   2.788   2.349   2.145  0.0038  0.4675  0.0373
17702THY    CP138616   2.850   2.227   2.079 -0.2012 -0.6201  0.4182
17702THY    HP138617   2.893   2.158   2.153 -1.7546  0.3900  0.4822
17702THY    CP238618   2.929   2.262   1.958 -0.0674 -0.4229  0.0588
17702THY    HP238619   2.866   2.318   1.888 -0.3648 -0.5057 -0.3762
17702THY    HP338620   2.963   2.165   1.920  0.7868  1.9289 -0.6286
17702THY    HP438621   3.018   2.320   1.982 -0.6197  2.7747 -0.2132
17702THY    CP338622   2.736   2.135   2.031 -0.8653  0.2793 -0.2475
17702THY    HP538623   2.658   2.103   2.102 -2.4623 -0.6581  1.4009
17702THY    HP638624   2.773   2.038   1.994 -0.5412  0.3613 -0.1551
17702THY    HP738625   2.670   2.179   1.955 -0.7084 -1.3809 -2.6649
17702THY    CA338626   2.705   2.438   2.080  0.7034  0.3574  0.0767
17702THY    HA338627   2.693   2.418   1.974  1.2236  0.1539  0.7687
17702THY    CA438628   2.647   2.546   2.147 -0.6411  0.0799  0.3464
17702THY    HA438629   2.575   2.606   2.092 -1.0882  0.8633  0.5553
17702THY    CA538630   2.661   2.556   2.279 -0.2921 -0.5600 -0.2493
17702THY    CM138631   2.601   2.675   2.347 -0.1407  0.2344 -0.0212
17702THY    HM138632   2.492   2.688   2.343  0.1469 -1.9709  2.4396
17702THY    HM238633   2.642   2.768   2.306 -0.6677  1.8446  0.9452
17702THY    HM338634   2.610   2.676   2.456 -0.7054  0.2816  0.5665
17702THY    CA638635   2.744   2.468   2.352 -0.0947  0.7496 -0.1423
17702THY    HA638636   2.766   2.485   2.457 -0.0447  1.2212 -2.7534
17703THY      O38637   3.153   1.914   6.585 -0.4725  0.2362 -0.0122
17703THY     HO38638   3.087   1.955   6.526 -0.9229 -0.0622 -1.1479
17703THY    CA138639   3.104   1.932   6.710 -0.4023  0.0031  0.1026
17703THY    CA238640   3.172   1.876   6.822  0.1197 -0.3170 -0.1797
17703THY    CP138641   3.297   1.786   6.805  0.0340  0.9399 -0.4122
17703THY    HP138642   3.342   1.797   6.706 -2.6300 -0.4110 -0.9472
17703THY    CP238643   3.266   1.637   6.812 -0.3192 -0.2755  0.2535
17703THY    HP238644   3.199   1.597   6.736  0.1340 -0.8116  0.5041
17703THY    HP338645   3.223   1.598   6.905 -1.0073 -0.6761  0.0403
17703THY    HP438646   3.363   1.589   6.796  1.6239  2.0920  2.9970
17703THY    CP338647   3.410   1.816   6.910  0.2371 -0.4572  0.6121
17703THY    HP538648   3.389   1.766   7.005  1.5953  0.1079  1.0618
17703THY    HP638649   3.411   1.924   6.928 -0.7058 -3.7527  1.2843
17703THY    HP738650   3.503   1.775   6.870  0.5521 -0.2744  1.1386
17703THY    CA338651   3.124   1.907   6.948  0.6768  0.0459  0.1581
17703THY    HA338652   3.162   1.856   7.036  0.3599  0.5766  0.8222
17703THY    CA438653   3.015   2.000   6.963 -0.8237 -0.3601  0.5803
17703THY    HA438654   2.994   2.024   7.067  3.8775  0.9254  0.0811
17703THY    CA538655   2.955   2.052   6.849  0.0327  0.2632  0.4377
17703THY    CM138656   2.841   2.139   6.872  1.0295  0.0760 -0.0810
17703THY    HM138657   2.829   2.182   6.972  0.9655  0.6254 -1.3369
17703THY    HM238658   2.750   2.085   6.845  0.9937 -0.6459  0.3192
17703THY    HM338659   2.844   2.226   6.805  2.0481  1.0037  0.6355
17703THY    CA638660   2.993   2.017   6.718  0.5325  0.1168  0.2943
17703THY    HA638661   2.949   2.066   6.632  1.5425 -0.2275  0.6196
17704THY      O38662   3.205   4.227   2.489 -0.0564  0.1665 -0.4751
17704THY     HO38663   3.162   4.227   2.576  1.2271  0.8300  0.0702
17704THY    CA138664   3.199   4.359   2.446 -0.3120 -0.5319 -0.2637
17704THY    CA238665   3.258   4.408   2.325  0.4399 -0.0620  0.4672
17704THY    CP138666   3.319   4.305   2.228 -0.0913  0.1799  0.4226
17704THY    HP138667   3.337   4.208   2.275  1.5874 -1.0179  0.1144
17704THY    CP238668   3.460   4.361   2.183 -0.3730 -0.1729 -0.1308
17704THY    HP238669   3.521   4.382   2.272 -0.3268 -0.7684  2.5622
17704THY    HP338670   3.451   4.456   2.130  0.8251 -1.1243 -0.5195
17704THY    HP438671   3.511   4.284   2.123  0.3117  1.9910 -1.4795
17704THY    CP338672   3.228   4.291   2.094 -0.5817 -0.3590 -0.0081
17704THY    HP538673   3.245   4.389   2.048  0.0679 -0.4489 -0.1604
17704THY    HP638674   3.122   4.274   2.116 -0.8605 -1.9732 -0.4958
17704THY    HP738675   3.270   4.213   2.030  1.4192  1.9857 -0.9951
17704THY    CA338676   3.232   4.540   2.283 -0.1108 -0.2934 -0.0701
17704THY    HA338677   3.265   4.566   2.183 -1.5888 -0.5319  1.0210
17704THY    CA438678   3.140   4.617   2.353  0.5799  0.7664 -0.1435
17704THY    HA438679   3.110   4.715   2.317  1.3401  0.0058 -0.1719
17704THY    CA538680   3.083   4.567   2.469  0.2813  0.0685  0.6056
17704THY    CM138681   2.987   4.655   2.539 -0.4480 -0.4271  0.1060
17704THY    HM138682   2.938   4.617   2.630 -2.0046 -1.2077  0.1227
17704THY    HM238683   2.897   4.671   2.477 -0.7446  0.2124  1.0104
17704THY    HM338684   3.034   4.751   2.559 -1.0149 -0.6398  0.4348
17704THY    CA638685   3.112   4.439   2.519 -0.1454  0.1007  0.1416
17704THY    HA638686   3.065   4.402   2.610  0.1027 -0.5330 -1.8464
17705THY      O38687   0.959   8.343   4.594 -0.3439 -0.2055  0.0575
17705THY     HO38688   0.975   8.309   4.504  2.0537 -0.2244  1.0740
17705THY    CA138689   0.914   8.470   4.577  0.1295  0.2811 -0.0440
17705THY    CA238690   0.794   8.514   4.639  0.0506 -0.2891  0.2338
17705THY    CP138691   0.721   8.410   4.728 -0.2244 -0.0064 -0.7526
17705THY    HP138692   0.764   8.309   4.734 -1.4989  0.0052 -1.3227
17705THY    CP238693   0.572   8.383   4.676  0.6334 -0.0969 -0.6331
17705THY    HP238694   0.511   8.336   4.754 -1.3854 -2.2113 -1.7746
17705THY    HP338695   0.591   8.316   4.590 -1.3029  0.5935 -2.1511
17705THY    HP438696   0.523   8.471   4.632 -0.2828  1.7937 -0.1670
17705THY    CP338697   0.711   8.472   4.863  1.0575  0.6481 -0.7277
17705THY    HP538698   0.665   8.572   4.860  1.2864  2.1669 -0.5578
17705THY    HP638699   0.808   8.473   4.915  2.5613 -1.9136 -1.7943
17705THY    HP738700   0.649   8.402   4.920 -1.0665 -0.5876  0.0585
17705THY    CA338701   0.750   8.645   4.623  0.0763 -0.7252  0.1368
17705THY    HA338702   0.656   8.680   4.664 -0.2800 -2.7074  1.7534
17705THY    CA438703   0.828   8.723   4.531 -0.4584 -0.4527 -0.2115
17705THY    HA438704   0.805   8.825   4.501  1.8255 -1.6267  0.0366
17705THY    CA538705   0.940   8.685   4.460 -0.1084 -0.0697  0.6786
17705THY    CM138706   1.010   8.762   4.348 -0.2671 -0.2292  0.2451
17705THY    HM138707   0.971   8.865   4.345 -1.4461 -0.0735 -0.1737
17705THY    HM238708   0.991   8.723   4.248  1.4569  0.0141 -1.3271
17705THY    HM338709   1.118   8.747   4.357 -0.5215 -0.2139 -1.9096
17705THY    CA638710   0.987   8.554   4.484 -0.1114 -0.3168  0.1438
17705THY    HA638711   1.068   8.516   4.423  0.0784  0.7551 -1.2781
17706THY      O38712   7.793   7.098   1.753  0.0826 -0.0596 -0.4130
17706THY     HO38713   7.755   7.122   1.668  0.7576 -0.2605 -0.0387
17706THY    CA138714   7.699   7.110   1.845 -0.0213  0.9403  0.0578
17706THY    CA238715   7.724   7.086   1.981 -0.3672  0.2037  0.1914
17706THY    CP138716   7.866   7.080   2.044  0.1330 -0.9804 -0.5255
17706THY    HP138717   7.940   7.056   1.968  1.8387  0.7252 -0.8628
17706THY    CP238718   7.880   6.967   2.145  0.1660  0.2565  0.1530
17706THY    HP238719   7.841   6.875   2.101 -0.6007 -0.2452  0.7018
17706THY    HP338720   7.831   6.982   2.242  2.2239  1.3768 -0.0743
17706THY    HP438721   7.986   6.946   2.162 -0.0091  0.3418 -0.6593
17706THY    CP338722   7.910   7.211   2.109  0.3400  0.5496  0.0887
17706THY    HP538723   7.844   7.235   2.194  1.7085  2.2013 -1.6748
17706THY    HP638724   7.905   7.292   2.035 -2.8631  0.3657 -0.1229
17706THY    HP738725   8.013   7.209   2.146  0.0217  1.5441  0.9761
17706THY    CA338726   7.616   7.105   2.070 -0.2544  0.1476  0.3868
17706THY    HA338727   7.633   7.112   2.177 -1.9478  0.5237 -0.7561
17706THY    CA438728   7.485   7.124   2.018 -0.0440 -0.1503 -0.0128
17706THY    HA438729   7.401   7.134   2.087  0.8358  0.9153  0.2854
17706THY    CA538730   7.467   7.127   1.883  0.4351 -0.7922 -0.0647
17706THY    CM138731   7.323   7.125   1.830  0.1531  0.0490 -0.6847
17706THY    HM138732   7.265   7.040   1.866 -0.0321 -0.6581 -0.8586
17706THY    HM238733   7.324   7.141   1.722 -2.3354  0.0970  0.2257
17706THY    HM338734   7.277   7.216   1.870 -1.8855  0.3681 -1.7951
17706THY    CA638735   7.569   7.116   1.796  0.6999  0.1510 -0.4743
17706THY    HA638736   7.553   7.107   1.689 -0.9959  0.4877 -2.0532
17707THY      O38737   0.526   5.907   2.270 -0.6088  0.6999 -1.0090
17707THY     HO38738   0.599   5.959   2.232 -3.1181 -1.6872  1.0871
17707THY    CA138739   0.430   5.991   2.230  0.4157 -0.5140  0.5084
17707THY    CA238740   0.296   5.949   2.198  0.1134 -0.1998 -0.7831
17707THY    CP138741   0.260   5.806   2.220  0.1859  0.0218  0.1939
17707THY    HP138742   0.338   5.740   2.179 -0.0360  0.1342 -0.1428
17707THY    CP238743   0.136   5.762   2.143 -0.1519  0.0074  0.9008
17707THY    HP238744   0.052   5.820   2.184 -1.3805 -2.2386  0.8438
17707THY    HP338745   0.112   5.656   2.145  2.4038 -1.3090  0.2213
17707THY    HP438746   0.149   5.796   2.040 -1.4403 -0.3431  0.4134
17707THY    CP338747   0.235   5.783   2.373 -0.3839 -0.3069  0.0639
17707THY    HP538748   0.201   5.682   2.398  1.5243  0.8266 -0.3605
17707THY    HP638749   0.177   5.867   2.414  0.8633  1.4385  0.1255
17707THY    HP738750   0.326   5.802   2.431  0.8783 -1.3232 -2.4736
17707THY    CA338751   0.211   6.038   2.136 -0.8109 -0.3562  0.9240
17707THY    HA338752   0.110   6.004   2.114 -0.3941 -0.0005 -0.5994
17707THY    CA438753   0.249   6.172   2.107 -0.8570 -0.3658 -0.1601
17707THY    HA438754   0.180   6.242   2.062 -0.0850 -0.9905  0.2157
17707THY    CA538755   0.378   6.211   2.151  0.2125  0.5475 -0.0189
17707THY    CM138756   0.418   6.352   2.141  0.6762 -0.0172 -0.4035
17707THY    HM138757   0.469   6.382   2.050 -0.1323  0.1442  1.6019
17707THY    HM238758   0.482   6.374   2.227  0.6921 -0.3090  0.7499
17707THY    HM338759   0.327   6.413   2.155  1.6736 -0.7917  1.3111
17707THY    CA638760   0.472   6.123   2.213  0.2359 -0.3301 -0.1036
17707THY    HA638761   0.565   6.157   2.258 -0.6147  2.7761 -1.5010
17708THY      O38762   7.329   8.784   5.993  0.1964 -0.2249 -0.0041
17708THY     HO38763   7.392   8.843   5.946 -0.4775 -0.1244  0.8087
17708THY    CA138764   7.215   8.782   5.918  0.6340  0.4141 -0.4450
17708THY    CA238765   7.088   8.847   5.947 -0.1299  0.3672  0.3653
17708THY    CP138766   7.073   8.923   6.077 -0.1831  0.2865  0.0861
17708THY    HP138767   7.164   8.933   6.136  0.9069 -1.2807 -0.3286
17708THY    CP238768   6.967   8.851   6.167 -0.4121  0.0284 -0.2538
17708THY    HP238769   7.005   8.753   6.195  0.4407  1.4893  0.4607
17708THY    HP338770   6.874   8.839   6.111 -0.5351  0.5310 -1.8564
17708THY    HP438771   6.942   8.908   6.257 -0.0326 -0.1817  0.2521
17708THY    CP338772   7.025   9.075   6.059 -0.2090  0.0018 -0.2827
17708THY    HP538773   6.917   9.071   6.039 -0.1495 -0.2224 -3.6120
17708THY    HP638774   7.081   9.128   5.982 -2.2342  0.0111  2.0419
17708THY    HP738775   7.036   9.130   6.153 -1.2772  0.8943 -1.4863
17708THY    CA338776   6.982   8.833   5.867  0.4284 -0.5647  0.5204
17708THY    HA338777   6.886   8.877   5.895 -1.3147  1.6804 -4.0357
17708THY    CA438778   6.994   8.757   5.752 -0.7672  0.1914  0.6342
17708THY    HA438779   6.909   8.751   5.685 -1.4691  1.2107 -2.5633
17708THY    CA538780   7.113   8.689   5.721 -0.2949  0.2455  0.4325
17708THY    CM138781   7.116   8.613   5.590  0.3552  0.1935  0.0496
17708THY    HM138782   7.014   8.600   5.554  1.5667 -2.9164 -2.2680
17708THY    HM238783   7.166   8.516   5.597 -0.4562  0.8800 -0.3249
17708THY    HM338784   7.167   8.683   5.522  1.4513  1.1696  0.2290
17708THY    CA638785   7.225   8.695   5.811 -0.8678  0.4701  0.3983
17708THY    HA638786   7.315   8.641   5.783 -1.2591 -1.4559  0.6658
17709THY      O38787   3.708   6.607   4.537  0.1057 -0.1311 -0.4116
17709THY     HO38788   3.689   6.642   4.448 -1.5251  0.8588  1.4800
17709THY    CA138789   3.590   6.556   4.577  0.1340  0.2029  1.1737
17709THY    CA238790   3.581   6.434   4.648 -0.2885 -0.5692 -0.4961
17709THY    CP138791   3.709   6.351   4.683  0.2089 -0.0275  0.1088
17709THY    HP138792   3.791   6.424   4.681 -0.6401 -2.0238  1.0721
17709THY    CP238793   3.747   6.251   4.573 -0.3259  0.1691  0.5011
17709THY    HP238794   3.838   6.196   4.601  0.3851 -0.0434  1.5373
17709THY    HP338795   3.758   6.303   4.477 -1.7055  0.5445  1.5275
17709THY    HP438796   3.664   6.183   4.551 -1.0286 -0.6110  1.5927
17709THY    CP338797   3.692   6.287   4.824 -0.5201 -0.3089 -0.2610
17709THY    HP538798   3.624   6.351   4.881 -0.7653 -0.4042 -0.4369
17709THY    HP638799   3.786   6.295   4.879 -1.5247  1.3464  0.7475
17709THY    HP738800   3.647   6.187   4.827 -0.0880  4.6394 -0.5836
17709THY    CA338801   3.447   6.385   4.674  0.4645  0.4611 -0.3982
17709THY    HA338802   3.437   6.302   4.744 -0.2570  1.7191  0.7037
17709THY    CA438803   3.335   6.459   4.629  0.4073  0.2696 -1.1124
17709THY    HA438804   3.231   6.428   4.637 -0.2203 -2.4917  0.0051
17709THY    CA538805   3.345   6.592   4.577  0.0688  0.2164 -0.1205
17709THY    CM138806   3.224   6.671   4.537 -0.2311 -0.1304  0.2043
17709THY    HM138807   3.245   6.778   4.526  1.7505 -1.2635 -0.2486
17709THY    HM238808   3.151   6.653   4.617 -1.1464 -1.3947 -2.0874
17709THY    HM338809   3.171   6.631   4.450 -0.1022  0.6617 -1.8145
17709THY    CA638810   3.475   6.633   4.554  0.5765  0.9023  0.0807
17709THY    HA638811   3.490   6.726   4.499 -0.4829 -0.6095 -0.6003
17710THY      O38812   6.071   8.871   5.036 -0.0862 -0.0391  0.6197
17710THY     HO38813   6.011   8.796   5.049 -0.5134 -0.6616  0.8421
17710THY    CA138814   6.157   8.839   4.939 -0.8630  0.4061  0.0548
17710THY    CA238815   6.267   8.923   4.893 -0.6580  0.3283  0.5361
17710THY    CP138816   6.266   9.067   4.949  0.1084  0.1236  0.4157
17710THY    HP138817   6.179   9.084   5.014  1.3410  1.7102  0.9094
17710THY    CP238818   6.274   9.177   4.845  0.0234 -1.1716  0.5146
17710THY    HP238819   6.176   9.196   4.799 -0.9377  1.4149  2.4940
17710THY    HP338820   6.357   9.158   4.775  0.1059 -1.0249  0.3400
17710THY    HP438821   6.298   9.268   4.901 -1.9751 -0.2303  0.5085
17710THY    CP338822   6.380   9.075   5.045  0.4966 -0.4257 -0.5459
17710THY    HP538823   6.373   9.002   5.127 -3.2458 -0.0609  0.0090
17710THY    HP638824   6.378   9.172   5.096  0.1377 -1.4971  0.0221
17710THY    HP738825   6.480   9.071   5.001  1.8040  2.3009 -0.4498
17710THY    CA338826   6.352   8.882   4.791 -0.1808  0.3758  1.0805
17710THY    HA338827   6.430   8.946   4.753  0.0049  0.0665  0.6696
17710THY    CA438828   6.343   8.749   4.747 -0.0629 -0.2254  0.7544
17710THY    HA438829   6.421   8.713   4.680 -0.9869 -0.6968 -0.4233
17710THY    CA538830   6.243   8.663   4.785 -0.4549 -0.1462 -0.2239
17710THY    CM138831   6.233   8.526   4.717  0.5416 -0.0189 -0.5246
17710THY    HM138832   6.132   8.495   4.689  0.0801  0.4472  0.5312
17710THY    HM238833   6.284   8.449   4.776  0.4553 -0.8380 -1.2239
17710THY    HM338834   6.289   8.525   4.622  0.6677  0.0555 -0.5436
17710THY    CA638835   6.154   8.709   4.880 -0.2906  0.1747  0.6561
17710THY    HA638836   6.062   8.654   4.897 -1.6948 -1.8702  2.2341
17711THY      O38837   2.487   1.470   6.934  0.2219 -0.7236 -0.0525
17711THY     HO38838   2.522   1.380   6.933 -0.9037 -1.6010 -0.5152
17711THY    CA138839   2.389   1.450   6.844  0.2091  0.6303 -0.1137
17711THY    CA238840   2.277   1.533   6.842  0.1383 -0.7178 -1.6967
17711THY    CP138841   2.263   1.659   6.934 -0.3562  0.2933  0.2795
17711THY    HP138842   2.357   1.678   6.987  1.2173 -1.6421 -1.6607
17711THY    CP238843   2.140   1.638   7.033 -0.0311 -0.0009  0.6322
17711THY    HP238844   2.160   1.556   7.103 -0.2766 -1.3748 -0.6445
17711THY    HP338845   2.043   1.618   6.987  0.6279 -0.9336 -0.5337
17711THY    HP438846   2.119   1.732   7.087  1.1166 -0.8177  1.3935
17711THY    CP338847   2.244   1.788   6.849 -0.1742 -0.3876 -0.5015
17711THY    HP538848   2.164   1.790   6.775 -3.0302  2.5128  0.2589
17711THY    HP638849   2.342   1.812   6.806 -0.8740 -1.5755  0.2688
17711THY    HP738850   2.212   1.869   6.915 -0.2109 -0.6567 -0.2985
17711THY    CA338851   2.176   1.508   6.749 -0.0904  0.0801  0.4227
17711THY    HA338852   2.087   1.571   6.747 -0.1576 -1.3027  0.3191
17711THY    CA438853   2.195   1.409   6.648  0.5877  0.1476  0.8493
17711THY    HA438854   2.114   1.384   6.581 -0.1209  1.2869  0.0203
17711THY    CA538855   2.301   1.319   6.659 -0.3219  0.4580  0.3620
17711THY    CM138856   2.307   1.192   6.568  0.2106 -0.2010 -0.0789
17711THY    HM138857   2.403   1.138   6.572 -0.3569 -0.4156 -1.1220
17711THY    HM238858   2.295   1.220   6.463 -1.5272 -0.5303 -1.8268
17711THY    HM338859   2.225   1.121   6.585 -0.4346 -0.4687  0.5918
17711THY    CA638860   2.400   1.342   6.757  0.1849  0.1448  0.2182
17711THY    HA638861   2.490   1.281   6.753  0.6855  0.8181  0.8856
17712THY      O38862   6.359   3.193   7.052 -0.3216 -0.1942 -0.5778
17712THY     HO38863   6.333   3.262   6.988  1.4861 -0.0171  0.3132
17712THY    CA138864   6.445   3.252   7.128  0.3231 -0.7100 -0.6682
17712THY    CA238865   6.525   3.180   7.211 -0.0798  0.0678  0.1772
17712THY    CP138866   6.490   3.023   7.235  0.2503 -0.5516  0.4916
17712THY    HP138867   6.430   2.976   7.157  3.0827 -2.2647 -0.5290
17712THY    CP238868   6.398   3.009   7.359 -0.1101  0.7773 -0.1092
17712THY    HP238869   6.456   3.027   7.450  1.5025 -0.1567 -0.4123
17712THY    HP338870   6.358   2.907   7.355 -1.1602 -0.7714  0.3245
17712THY    HP438871   6.315   3.081   7.361 -1.3904 -1.6906 -1.3943
17712THY    CP338872   6.615   2.941   7.253 -0.1367  0.1884  0.7989
17712THY    HP538873   6.637   2.947   7.360 -0.8426  0.2798  2.1147
17712THY    HP638874   6.699   2.976   7.191 -0.8198 -1.2631 -0.0444
17712THY    HP738875   6.592   2.838   7.225 -0.8116 -0.7133  1.1805
17712THY    CA338876   6.626   3.245   7.286  0.7323 -0.4680 -0.5418
17712THY    HA338877   6.686   3.191   7.359 -0.1236  1.1993  0.6889
17712THY    CA438878   6.642   3.382   7.278  0.1320  0.2339 -0.1504
17712THY    HA438879   6.725   3.429   7.330  1.8987 -2.2006 -0.3849
17712THY    CA538880   6.569   3.456   7.181 -0.6417  0.2808  0.0993
17712THY    CM138881   6.613   3.592   7.161 -0.1774 -0.5604 -0.1809
17712THY    HM138882   6.630   3.601   7.053  0.8836 -0.7733 -3.4437
17712THY    HM238883   6.706   3.624   7.208  0.1421 -1.1215 -0.2849
17712THY    HM338884   6.528   3.655   7.190  0.4887 -1.4828  1.1847
17712THY    CA638885   6.471   3.390   7.107  0.4121 -0.2387 -0.9577
17712THY    HA638886   6.420   3.431   7.020 -0.1375 -0.8140 -2.7622
17713THY      O38887   1.374   4.387   6.293 -0.0776 -0.5408  0.1636
17713THY     HO38888   1.398   4.315   6.232 -1.6827 -1.8661  0.6663
17713THY    CA138889   1.477   4.416   6.374  1.0744  0.4008 -0.1525
17713THY    CA238890   1.479   4.526   6.461 -0.3177  0.2818  0.1875
17713THY    CP138891   1.368   4.628   6.469  0.7990 -0.2806  0.2813
17713THY    HP138892   1.295   4.611   6.388 -1.3700  1.7011 -0.3345
17713THY    CP238893   1.406   4.777   6.457 -0.9386 -0.0073  0.0335
17713THY    HP238894   1.478   4.793   6.376  0.9956  1.7495  0.6321
17713THY    HP338895   1.454   4.814   6.548 -0.5616 -0.2146  0.0627
17713THY    HP438896   1.315   4.837   6.445 -0.4455 -0.1105  0.7682
17713THY    CP338897   1.283   4.606   6.595 -0.2448  0.4721 -0.3658
17713THY    HP538898   1.264   4.501   6.618 -1.4496  0.2089 -0.2216
17713THY    HP638899   1.187   4.658   6.603 -0.0380 -0.4222  0.1723
17713THY    HP738900   1.343   4.648   6.676 -0.3514  0.5608 -0.3843
17713THY    CA338901   1.592   4.535   6.553 -0.2786  0.2875 -0.3572
17713THY    HA338902   1.611   4.617   6.622  2.5202 -1.7287  0.8952
17713THY    CA438903   1.687   4.434   6.553 -0.4034 -0.1865 -0.0449
17713THY    HA438904   1.770   4.446   6.623  0.4899 -0.8204 -2.1671
17713THY    CA538905   1.683   4.330   6.467  0.8062  0.2870 -0.5698
17713THY    CM138906   1.790   4.220   6.470  0.0577  0.3579  0.1368
17713THY    HM138907   1.746   4.120   6.469  1.8005  0.5271 -0.6569
17713THY    HM238908   1.844   4.221   6.565 -0.0808  0.4670 -1.1330
17713THY    HM338909   1.865   4.222   6.390 -0.1227  0.1873  1.7865
17713THY    CA638910   1.579   4.321   6.379 -0.6108 -0.3100  0.2458
17713THY    HA638911   1.585   4.233   6.316  0.5674  0.2885 -0.1169
17714THY      O38912   8.663   8.476   6.985  0.4815 -0.0434 -0.1771
17714THY     HO38913   8.755   8.502   6.970  0.0911 -0.1319  1.2157
17714THY    CA138914   8.579   8.579   6.962  0.0441 -0.2297  1.1358
17714THY    CA238915   8.447   8.552   6.921  0.1413  0.3052 -0.4497
17714THY    CP138916   8.392   8.403   6.912 -0.7219 -0.1869  1.1945
17714THY    HP138917   8.424   8.340   6.996 -2.8164 -1.1348 -1.3204
17714THY    CP238918   8.435   8.327   6.787 -0.0075  0.3010 -0.2765
17714THY    HP238919   8.379   8.235   6.768 -0.0262 -1.2794  0.0274
17714THY    HP338920   8.543   8.314   6.794 -0.3125  1.0219 -3.0175
17714THY    HP438921   8.420   8.385   6.695 -0.8419  1.2582  1.0798
17714THY    CP338922   8.237   8.396   6.914  0.0413  0.0800 -0.1747
17714THY    HP538923   8.211   8.290   6.918  0.5410  0.3668 -0.2919
17714THY    HP638924   8.191   8.441   6.826 -1.0433  1.7972  2.3607
17714THY    HP738925   8.203   8.448   7.005 -1.6301 -0.2286 -0.6895
17714THY    CA338926   8.361   8.669   6.900 -0.1119 -0.3583 -0.6287
17714THY    HA338927   8.254   8.660   6.882 -0.7399  2.2871  0.6220
17714THY    CA438928   8.412   8.794   6.913 -0.3942  0.0740  0.4170
17714THY    HA438929   8.337   8.871   6.898 -0.2105 -0.6728  0.4601
17714THY    CA538930   8.544   8.817   6.950  0.9828  0.2615 -0.1882
17714THY    CM138931   8.592   8.964   6.959 -0.1203 -0.4612  0.2855
17714THY    HM138932   8.584   9.012   6.861  0.8013 -1.6550 -1.8260
17714THY    HM238933   8.700   8.962   6.980 -0.3275  0.5787 -0.4115
17714THY    HM338934   8.548   9.032   7.032  2.7515  0.1842  1.5981
17714THY    CA638935   8.626   8.705   6.973 -0.1005 -0.0800  0.6616
17714THY    HA638936   8.731   8.715   6.999 -0.0477 -0.3974  0.9262
17715THY      O38937   9.230   3.987   6.632  0.0158 -0.4488 -0.2976
17715THY     HO38938   9.213   3.902   6.674 -0.0866 -0.1586 -0.1341
17715THY    CA138939   9.173   4.070   6.716  0.9260  0.0526 -0.5321
17715THY    CA238940   9.084   4.169   6.671  0.4478  0.0873 -0.1952
17715THY    CP138941   9.040   4.175   6.526  0.2863 -0.1134  1.3902
17715THY    HP138942   9.046   4.072   6.490  1.1115  0.7081  1.1377
17715THY    CP238943   9.143   4.258   6.454 -0.0973  0.1106 -0.8732
17715THY    HP238944   9.127   4.256   6.345  0.5049 -0.0585  1.0508
17715THY    HP338945   9.244   4.221   6.475  0.6816 -0.8459  0.5944
17715THY    HP438946   9.141   4.357   6.502 -2.3766 -2.3555  0.4235
17715THY    CP338947   8.903   4.232   6.496  0.0202  0.4069  0.2720
17715THY    HP538948   8.913   4.338   6.522 -1.0941  1.5263  0.1366
17715THY    HP638949   8.833   4.196   6.573  1.4630  0.5760 -2.3911
17715THY    HP738950   8.873   4.204   6.394 -0.0703 -0.2307  2.5245
17715THY    CA338951   9.035   4.263   6.765  0.1279  0.5049  0.4582
17715THY    HA338952   8.963   4.339   6.736  0.9221  0.2677  1.1383
17715THY    CA438953   9.066   4.241   6.903 -0.2574  0.3182 -0.1837
17715THY    HA438954   9.017   4.304   6.977 -2.0079 -0.8926 -0.0585
17715THY    CA538955   9.162   4.141   6.943  0.7757  0.1033 -0.6236
17715THY    CM138956   9.211   4.141   7.084  0.0330  0.9120 -0.3891
17715THY    HM138957   9.134   4.175   7.154  1.8727  1.5470  2.8681
17715THY    HM238958   9.289   4.217   7.090 -0.2391 -0.3106  0.0151
17715THY    HM338959   9.245   4.038   7.101 -0.4288 -0.0875 -0.7193
17715THY    CA638960   9.202   4.045   6.852  0.5070 -0.5738 -0.0362
17715THY    HA638961   9.265   3.962   6.882 -0.3873  2.3511  0.2138
17716THY      O38962   8.646   9.268   5.027 -0.4134  0.9617  0.2962
17716THY     HO38963   8.690   9.252   5.112  0.1886  0.8123  1.0986
17716THY    CA138964   8.737   9.268   4.933  0.4509 -0.3983  0.3306
17716THY    CA238965   8.717   9.221   4.804 -0.1809  0.0492 -0.0348
17716THY    CP138966   8.576   9.168   4.767  0.2922  0.0062 -0.3899
17716THY    HP138967   8.526   9.130   4.856  1.0586  0.6482  0.0809
17716THY    CP238968   8.579   9.048   4.671  0.2249 -0.0040 -0.0564
17716THY    HP238969   8.655   8.974   4.697 -1.5557 -1.5030 -2.5263
17716THY    HP338970   8.589   9.073   4.565  4.9577  0.3871  0.5360
17716THY    HP438971   8.485   8.992   4.677  0.7140  0.5266 -0.8339
17716THY    CP338972   8.477   9.275   4.716 -0.5379  0.3613  0.1825
17716THY    HP538973   8.462   9.332   4.809  0.1154  0.3711  0.3517
17716THY    HP638974   8.379   9.236   4.688 -1.1591  1.4071  0.9307
17716THY    HP738975   8.529   9.335   4.640  0.9537  1.4553  0.3480
17716THY    CA338976   8.827   9.240   4.712 -0.3743  0.4247 -0.0657
17716THY    HA338977   8.825   9.216   4.606 -1.2313 -0.1213  2.2463
17716THY    CA438978   8.946   9.300   4.752  0.3551 -0.3533 -0.0054
17716THY    HA438979   9.030   9.316   4.686  2.0290  1.4730 -0.8715
17716THY    CA538980   8.964   9.336   4.885  0.2451 -0.2637  0.0643
17716THY    CM138981   9.097   9.378   4.936  0.8271 -0.0346  0.0283
17716THY    HM138982   9.145   9.452   4.871  0.4093 -1.6105 -1.0053
17716THY    HM238983   9.158   9.288   4.953 -1.4180  0.9649 -1.3869
17716THY    HM338984   9.082   9.417   5.036 -1.1755  0.7424 -2.4305
17716THY    CA638985   8.853   9.322   4.974 -0.3258  0.6418 -1.6215
17716THY    HA638986   8.867   9.334   5.081  0.4643  0.4128 -0.3783
17717THY      O38987   8.356   1.017   3.288  0.3192 -0.1085  0.0652
17717THY     HO38988   8.300   0.940   3.307  1.0979  0.5417 -0.3591
17717THY    CA138989   8.369   1.086   3.408 -0.6626  0.3136 -0.0952
17717THY    CA238990   8.473   1.175   3.428  0.5065  0.8036 -0.3565
17717THY    CP138991   8.596   1.164   3.340 -0.6595  0.1088  0.2114
17717THY    HP138992   8.585   1.084   3.265 -0.4160 -0.6187  0.8408
17717THY    CP238993   8.701   1.097   3.426  0.2002  0.2857 -0.3567
17717THY    HP238994   8.719   1.165   3.510 -1.7947  0.1977  0.3531
17717THY    HP338995   8.783   1.103   3.354 -0.8385 -0.8119  1.4879
17717THY    HP438996   8.675   0.995   3.458 -2.0389 -0.6864 -0.1479
17717THY    CP338997   8.636   1.291   3.260 -0.5858 -0.7459  0.0811
17717THY    HP538998   8.725   1.274   3.199  1.5133  1.6599  1.7129
17717THY    HP638999   8.653   1.376   3.328  0.9448 -0.4797 -0.4084
17717THY    HP739000   8.550   1.318   3.197 -1.3076  0.5270  0.8685
17717THY    CA339001   8.456   1.278   3.531  0.0699  1.0462  0.5055
17717THY    HA339002   8.539   1.341   3.561  1.6374  0.8887 -1.3763
17717THY    CA439003   8.333   1.284   3.593 -0.5827 -0.5870 -0.2030
17717THY    HA439004   8.322   1.359   3.671  2.9367  0.1690 -0.2865
17717THY    CA539005   8.238   1.188   3.577 -0.2429 -0.6047  0.3239
17717THY    CM139006   8.118   1.197   3.675 -0.6328  0.0960  0.3321
17717THY    HM139007   8.073   1.101   3.700 -0.2158  2.1331  0.6185
17717THY    HM239008   8.049   1.263   3.620 -0.6319 -0.0551  0.2085
17717THY    HM339009   8.143   1.235   3.774 -0.9882  0.1520  0.4275
17717THY    CA639010   8.252   1.091   3.483  0.6808 -0.3351 -0.7409
17717THY    HA639011   8.172   1.024   3.454 -0.5907  2.4259 -0.5362
17718THY      O39012   6.467   5.774   5.051  0.8334  0.0369  0.3270
17718THY     HO39013   6.401   5.813   4.990 -0.5764  0.4356 -1.3259
17718THY    CA139014   6.401   5.668   5.104 -0.3285 -0.3434  0.3473
17718THY    CA239015   6.465   5.585   5.203  0.8751 -0.2290  0.0239
17718THY    CP139016   6.593   5.638   5.271 -0.5527 -0.1122 -0.3236
17718THY    HP139017   6.605   5.745   5.253 -2.1626  1.4317  0.1569
17718THY    CP239018   6.714   5.560   5.216  0.5240  0.3338 -0.8305
17718THY    HP239019   6.714   5.563   5.106  1.7726  0.3247 -0.3077
17718THY    HP339020   6.713   5.452   5.233  0.0955 -3.2476 -1.5193
17718THY    HP439021   6.805   5.615   5.242 -0.3902 -1.0733  1.4998
17718THY    CP339022   6.599   5.622   5.420  0.0351  0.0191  0.6709
17718THY    HP539023   6.524   5.688   5.464  0.8844  0.0851  1.6229
17718THY    HP639024   6.695   5.648   5.467 -0.5680  2.6135 -1.3512
17718THY    HP739025   6.593   5.521   5.463  0.7283  1.7063  1.3113
17718THY    CA339026   6.399   5.461   5.239 -0.5802  0.3469 -0.6939
17718THY    HA339027   6.440   5.388   5.309 -2.7414 -0.9084 -3.2996
17718THY    CA439028   6.299   5.418   5.152  0.1187 -0.0024  0.0589
17718THY    HA439029   6.259   5.317   5.159 -1.7586 -2.7222  0.5174
17718THY    CA539030   6.237   5.498   5.054  0.2634 -0.6042  0.0457
17718THY    CM139031   6.128   5.442   4.968 -0.3288 -0.4702 -0.0791
17718THY    HM139032   6.127   5.332   4.976 -1.2314 -0.5188 -0.0830
17718THY    HM239033   6.148   5.461   4.862  1.4618 -0.4192 -1.4687
17718THY    HM339034   6.027   5.480   4.989  0.1337 -1.7938  2.0203
17718THY    CA639035   6.285   5.627   5.033 -0.9786  0.3182  0.8292
17718THY    HA639036   6.238   5.682   4.952 -3.6442 -0.9188 -2.9152
17719THY      O39037   8.125   7.751   2.545 -0.0124  0.1182  0.0198
17719THY     HO39038   8.084   7.812   2.481 -0.3620  1.6941  1.4866
17719THY    CA139039   8.165   7.634   2.495 -0.1039  0.2538 -0.1903
17719THY    CA239040   8.189   7.524   2.588  0.0442 -0.1908 -0.3322
17719THY    CP139041   8.173   7.553   2.742 -0.2629 -0.1362 -0.6721
17719THY    HP139042   8.190   7.660   2.757  0.6281 -2.0713 -0.4893
17719THY    CP239043   8.280   7.485   2.825  0.0435  0.2654  0.7235
17719THY    HP239044   8.383   7.510   2.795 -0.5741 -2.4862  0.2471
17719THY    HP339045   8.260   7.379   2.809 -1.9185 -0.9647  1.2289
17719THY    HP439046   8.264   7.506   2.932 -1.4159 -0.4039  3.5279
17719THY    CP339047   8.032   7.529   2.786 -0.0034  0.8146  0.1442
17719THY    HP539048   7.952   7.575   2.727 -0.5033  0.3415 -1.2541
17719THY    HP639049   8.014   7.583   2.880 -2.5570  0.5000 -0.0272
17719THY    HP739050   7.996   7.425   2.792  0.0219 -3.1543 -0.2563
17719THY    CA339051   8.217   7.394   2.542 -0.6800 -0.1470  0.1245
17719THY    HA339052   8.225   7.313   2.614  0.6714 -0.7477 -0.3029
17719THY    CA439053   8.242   7.376   2.407  0.4519 -0.3734 -0.5059
17719THY    HA439054   8.272   7.279   2.367  1.4315  0.0269 -0.3816
17719THY    CA539055   8.225   7.483   2.318 -0.7239 -0.4549  0.0864
17719THY    CM139056   8.238   7.448   2.176  0.6852  0.5237 -0.5978
17719THY    HM139057   8.335   7.403   2.153  0.9247 -1.3821  0.7721
17719THY    HM239058   8.228   7.543   2.122  0.3946 -0.2110 -1.0322
17719THY    HM339059   8.162   7.376   2.142 -0.9096  1.3708  0.6208
17719THY    CA639060   8.188   7.614   2.359 -0.6052 -0.0808 -0.1112
17719THY    HA639061   8.175   7.688   2.281 -0.3904 -1.0303 -1.0392
17720THY      O39062   2.543   2.884   5.874 -0.1113 -0.2626  0.5415
17720THY     HO39063   2.623   2.839   5.841  0.1142  0.3879  0.4499
17720THY    CA139064   2.487   2.947   5.771 -0.5278  0.2015 -0.2945
17720THY    CA239065   2.352   2.981   5.774 -0.2919  0.4564 -0.2598
17720THY    CP139066   2.264   2.961   5.906 -0.2450 -0.1325 -0.1174
17720THY    HP139067   2.314   2.882   5.962 -0.4823 -0.3925 -0.4539
17720THY    CP239068   2.116   2.921   5.889  0.0803 -0.0805 -0.3121
17720THY    HP239069   2.099   2.884   5.788 -0.2397 -0.8804  1.9191
17720THY    HP339070   2.046   3.000   5.917  0.4318 -1.1649  0.3934
17720THY    HP439071   2.095   2.843   5.964  0.5488 -0.4889 -0.8381
17720THY    CP339072   2.266   3.086   5.986  0.3159 -0.3248 -0.3161
17720THY    HP539073   2.225   3.067   6.086 -0.1399 -0.1362  1.4740
17720THY    HP639074   2.224   3.177   5.942  1.0174  0.5891  0.4698
17720THY    HP739075   2.371   3.114   6.003  0.4309 -1.6190  0.1056
17720THY    CA339076   2.295   3.064   5.674 -0.4735  0.1062 -0.9690
17720THY    HA339077   2.193   3.100   5.681 -0.7712 -3.0586 -0.9791
17720THY    CA439078   2.381   3.119   5.570 -0.6079 -0.1581  0.4862
17720THY    HA439079   2.339   3.186   5.496 -2.2447  1.0307  0.8570
17720THY    CA539080   2.512   3.075   5.560  0.1208  0.7762 -0.1827
17720THY    CM139081   2.585   3.123   5.440 -0.0084  0.2338  0.2491
17720THY    HM139082   2.546   3.085   5.344  0.3834 -0.6958  2.0411
17720THY    HM239083   2.685   3.079   5.447  0.1982  3.5769  0.9752
17720THY    HM339084   2.593   3.232   5.429 -1.0412 -0.4843  0.2719
17720THY    CA639085   2.566   2.998   5.662  0.0448 -0.6738  0.4764
17720THY    HA639086   2.670   2.968   5.649 -0.4092  0.8572 -2.0768
17721THY      O39087   8.677   7.129   4.122 -0.3940  0.1209 -0.5372
17721THY     HO39088   8.673   7.033   4.139 -0.9486  0.3914 -0.4692
17721THY    CA139089   8.559   7.157   4.054 -0.1694 -0.0101 -0.6886
17721THY    CA239090   8.534   7.295   4.027 -0.8726  0.7834 -0.6902
17721THY    CP139091   8.621   7.418   4.082  1.1084 -0.4187 -0.0801
17721THY    HP139092   8.708   7.376   4.135 -1.0090  1.9311 -1.7512
17721THY    CP239093   8.534   7.490   4.197 -0.6304 -0.2770  0.0134
17721THY    HP239094   8.491   7.416   4.265  2.6949  0.7543 -1.1580
17721THY    HP339095   8.448   7.545   4.157 -0.8937  0.9644  0.5406
17721THY    HP439096   8.594   7.567   4.249  0.9870 -1.6469 -0.2480
17721THY    CP339097   8.651   7.522   3.967 -0.1981  0.3774  0.1967
17721THY    HP539098   8.673   7.623   4.003  0.3024  3.3161 -0.8639
17721THY    HP639099   8.559   7.547   3.912 -1.0352  1.1236 -1.1463
17721THY    HP739100   8.739   7.489   3.909 -0.4663  1.1659 -2.0588
17721THY    CA339101   8.409   7.325   3.963  0.5533 -0.0962 -0.0687
17721THY    HA339102   8.377   7.427   3.949 -2.2327  2.6295 -0.4218
17721THY    CA439103   8.327   7.215   3.936 -0.1030  0.0623  0.6160
17721THY    HA439104   8.225   7.233   3.902  0.1246  0.4879  3.0802
17721THY    CA539105   8.359   7.085   3.958  0.5619 -0.4546  0.8172
17721THY    CM139106   8.263   6.969   3.931  0.3011  0.1327 -0.7465
17721THY    HM139107   8.297   6.919   3.839  4.5889  1.8129 -1.4455
17721THY    HM239108   8.162   7.007   3.915  0.3043  1.5979 -0.0781
17721THY    HM339109   8.275   6.895   4.011  1.6376  0.3994 -0.2718
17721THY    CA639110   8.477   7.050   4.023 -0.0509  0.2990  0.2454
17721THY    HA639111   8.511   6.947   4.033 -1.4689  0.0390 -0.2625
17722THY      O39112   2.140   1.092   2.930  0.0937 -0.6150 -0.0236
17722THY     HO39113   2.129   1.182   2.895  1.1755 -1.0290 -0.0270
17722THY    CA139114   2.268   1.068   2.961 -0.4923 -0.2623  0.8637
17722THY    CA239115   2.312   0.946   2.996  0.5247 -0.1167 -0.1368
17722THY    CP139116   2.205   0.840   3.005  0.1047 -0.1155  0.1369
17722THY    HP139117   2.135   0.853   2.923 -0.5937  0.3650 -0.5593
17722THY    CP239118   2.131   0.857   3.135  0.5807  0.5439  0.2204
17722THY    HP239119   2.053   0.782   3.151 -0.6510 -2.4117  0.7174
17722THY    HP339120   2.080   0.954   3.127  4.9420 -1.8670  2.6445
17722THY    HP439121   2.208   0.863   3.213  1.5873 -0.3062 -1.2263
17722THY    CP339122   2.249   0.698   2.992 -0.5237 -0.3114  0.1474
17722THY    HP539123   2.328   0.682   2.918  0.3713  0.8851 -1.1508
17722THY    HP639124   2.169   0.625   2.970  0.5229  0.3003 -1.2248
17722THY    HP739125   2.293   0.675   3.089  1.7875 -0.9766  1.4841
17722THY    CA339126   2.448   0.927   3.030 -0.0555  0.5094 -0.0493
17722THY    HA339127   2.478   0.828   3.062 -1.9357 -0.1357 -0.8659
17722THY    CA439128   2.544   1.027   3.009 -1.0449 -0.1331 -0.1546
17722THY    HA439129   2.650   1.020   3.032 -0.1331 -2.5935  3.0654
17722THY    CA539130   2.496   1.152   2.964  0.4085 -0.3914 -0.3729
17722THY    CM139131   2.593   1.258   2.936  0.4991  0.1526  0.5409
17722THY    HM139132   2.545   1.350   2.969 -0.5192  1.0363 -0.2815
17722THY    HM239133   2.620   1.264   2.830 -2.4064 -0.6372  0.7056
17722THY    HM339134   2.685   1.248   2.996  0.9578 -0.5413  0.5208
17722THY    CA639135   2.361   1.174   2.942 -0.1353 -0.0999  0.2784
17722THY    HA639136   2.329   1.272   2.906 -1.4038  1.6336  0.5448
17723THY      O39137   1.917   0.687   5.025 -1.0718 -0.6520  0.1357
17723THY     HO39138   1.962   0.609   5.062  0.4292  1.0228  1.6942
17723THY    CA139139   1.937   0.771   5.120  0.5269  0.1686  0.3865
17723THY    CA239140   2.016   0.890   5.114  0.0299  0.3716 -0.7211
17723THY    CP139141   2.046   0.957   4.980  0.4721 -0.4136 -0.1612
17723THY    HP139142   2.008   0.898   4.896 -0.4085  0.5969 -1.0700
17723THY    CP239143   2.188   0.970   4.950  0.0555 -0.3369  0.2066
17723THY    HP239144   2.198   1.012   4.849  0.3898  0.4576  2.1911
17723THY    HP339145   2.239   0.874   4.937 -0.4675 -0.1487 -0.0973
17723THY    HP439146   2.237   1.036   5.023  1.1722  0.6035 -1.5837
17723THY    CP339147   1.973   1.092   4.972  0.2620  0.0119  0.1099
17723THY    HP539148   1.980   1.132   4.870 -2.4656 -0.2131  0.2204
17723THY    HP639149   2.013   1.163   5.045  0.3309 -0.2865  0.3794
17723THY    HP739150   1.866   1.076   4.990 -0.0797 -1.7446  0.2373
17723THY    CA339151   2.036   0.951   5.236 -0.1702 -0.4625 -0.8060
17723THY    HA339152   2.095   1.042   5.239 -0.4567 -0.0940 -0.6257
17723THY    CA439153   1.996   0.900   5.356 -0.2962 -0.1259 -0.2530
17723THY    HA439154   2.020   0.950   5.449  0.7691 -0.4873 -0.0834
17723THY    CA539155   1.912   0.787   5.352 -0.7882  0.5901  0.5781
17723THY    CM139156   1.860   0.734   5.480 -0.5841  0.0838  0.4097
17723THY    HM139157   1.771   0.784   5.521 -0.2849  0.1230  0.9249
17723THY    HM239158   1.937   0.746   5.557 -0.7096  0.3587 -0.4926
17723THY    HM339159   1.818   0.633   5.477 -0.9992  0.9258  0.5463
17723THY    CA639160   1.890   0.721   5.237  0.2307 -0.0521 -0.0192
17723THY    HA639161   1.820   0.638   5.234  0.7018 -2.3547 -0.3978
17724THY      O39162   7.546   3.383   3.134  0.4111  0.4967 -0.7509
17724THY     HO39163   7.548   3.377   3.037 -1.7374  0.2823  0.7338
17724THY    CA139164   7.558   3.251   3.167 -0.1274 -0.4360  0.3002
17724THY    CA239165   7.633   3.208   3.282 -0.1794 -0.2428 -0.0424
17724THY    CP139166   7.686   3.308   3.390  0.0170  0.5120 -0.0304
17724THY    HP139167   7.713   3.400   3.338  1.8921  1.6019  0.0764
17724THY    CP239168   7.816   3.258   3.452  0.1996 -0.4249 -0.2755
17724THY    HP239169   7.858   3.320   3.532  0.0981 -0.5482 -0.0484
17724THY    HP339170   7.901   3.247   3.383  0.9717  0.5799 -0.7935
17724THY    HP439171   7.782   3.170   3.508 -0.1924 -1.2794 -0.6778
17724THY    CP339172   7.575   3.332   3.493 -0.2093 -0.0717 -0.3944
17724THY    HP539173   7.518   3.246   3.530  0.2627  2.0245  0.1395
17724THY    HP639174   7.493   3.390   3.448  1.2958 -0.4351  1.5848
17724THY    HP739175   7.624   3.394   3.569 -1.0456  0.0802  0.1029
17724THY    CA339176   7.646   3.071   3.305 -0.5473 -0.3512  0.7085
17724THY    HA339177   7.704   3.029   3.386  1.4527 -1.1939  1.7158
17724THY    CA439178   7.584   2.979   3.223  0.6009  0.2342  0.1240
17724THY    HA439179   7.599   2.872   3.232 -1.6352  0.1575 -0.2391
17724THY    CA539180   7.511   3.023   3.116  0.8567 -0.0119 -0.0672
17724THY    CM139181   7.452   2.919   3.028 -0.1318  0.2262 -0.1850
17724THY    HM139182   7.356   2.879   3.062 -2.1869 -2.3553  2.1782
17724THY    HM239183   7.518   2.833   3.008 -2.0309  0.1431 -1.6775
17724THY    HM339184   7.419   2.967   2.935 -0.5172  0.9514  1.0039
17724THY    CA639185   7.499   3.157   3.085 -0.1183 -0.8581  0.2593
17724THY    HA639186   7.437   3.174   2.998 -0.1604 -1.1086 -1.0839
17725THY      O39187   1.695   5.641   2.603 -0.1370 -0.2816  0.3629
17725THY     HO39188   1.614   5.672   2.559 -0.4407 -1.0150 -1.3285
17725THY    CA139189   1.695   5.694   2.730  0.7686 -0.1483  0.2555
17725THY    CA239190   1.808   5.707   2.811  0.2099 -0.0061  0.1246
17725THY    CP139191   1.940   5.636   2.767 -0.4799  0.0247 -0.1396
17725THY    HP139192   1.899   5.548   2.716 -1.1082 -2.1065  1.3128
17725THY    CP239193   2.034   5.592   2.878  0.4467 -0.3598 -0.2185
17725THY    HP239194   2.123   5.542   2.838  1.7933 -0.7988  2.3663
17725THY    HP339195   1.978   5.531   2.950  2.2202  1.8401  0.6034
17725THY    HP439196   2.069   5.674   2.941 -0.3400 -2.2349  1.6542
17725THY    CP339197   2.024   5.718   2.672  0.5968 -0.0998 -0.4719
17725THY    HP539198   2.108   5.654   2.642 -1.1257 -4.3127 -1.1201
17725THY    HP639199   2.053   5.807   2.728  2.1865  0.5781 -1.3646
17725THY    HP739200   1.973   5.748   2.580 -1.2625  1.3695  1.0904
17725THY    CA339201   1.807   5.765   2.937  0.4809 -0.0330 -1.0945
17725THY    HA339202   1.893   5.784   3.001  0.2191 -0.7895  4.5385
17725THY    CA439203   1.689   5.828   2.983 -0.1130  0.5828 -0.8243
17725THY    HA439204   1.680   5.879   3.078 -1.3975  0.8596 -1.5231
17725THY    CA539205   1.576   5.823   2.894  0.6574  0.7672 -0.2043
17725THY    CM139206   1.447   5.883   2.943 -0.5892  0.4330  0.0209
17725THY    HM139207   1.444   5.888   3.053  1.8301  0.5064  1.8191
17725THY    HM239208   1.358   5.831   2.905 -0.6397 -0.5845  0.8276
17725THY    HM339209   1.449   5.988   2.911 -3.5765 -0.8615 -0.2198
17725THY    CA639210   1.579   5.754   2.773  0.3240 -0.1855  0.5822
17725THY    HA639211   1.488   5.733   2.717  0.8722 -0.6022 -0.7855
17726THY      O39212   1.412   1.645   6.555  0.2098 -0.5464  0.0552
17726THY     HO39213   1.497   1.643   6.602 -0.1219  0.0590  0.0308
17726THY    CA139214   1.372   1.769   6.587 -0.1847  0.5552 -0.4893
17726THY    CA239215   1.272   1.840   6.533  0.2307  0.3829  0.1948
17726THY    CP139216   1.203   1.785   6.402 -0.0775  0.5061 -0.4689
17726THY    HP139217   1.221   1.677   6.410 -1.0797  0.8478 -0.6244
17726THY    CP239218   1.260   1.860   6.276 -0.1277  0.1129  0.0972
17726THY    HP239219   1.369   1.855   6.272 -0.1611  0.5613 -1.2237
17726THY    HP339220   1.231   1.963   6.250  1.3883 -2.1882 -0.0069
17726THY    HP439221   1.222   1.798   6.194 -0.3980  0.7732 -0.6280
17726THY    CP339222   1.048   1.801   6.398 -0.8672 -0.3039 -0.2539
17726THY    HP539223   1.006   1.777   6.299 -2.0651 -0.9780  3.8431
17726THY    HP639224   1.013   1.903   6.416 -1.4310 -0.2523 -0.4481
17726THY    HP739225   1.014   1.725   6.470 -1.6898 -0.5177 -0.0972
17726THY    CA339226   1.238   1.963   6.575  0.1928  0.2052 -0.6367
17726THY    HA339227   1.154   2.018   6.532 -2.2938  1.1476 -3.3922
17726THY    CA439228   1.309   2.023   6.679 -0.0634  0.0733 -0.3779
17726THY    HA439229   1.293   2.126   6.708 -0.0606 -1.3710  0.0530
17726THY    CA539230   1.410   1.952   6.743  0.6121 -0.4617  0.7218
17726THY    CM139231   1.470   1.997   6.864  0.1458 -0.4672  0.0446
17726THY    HM139232   1.569   1.955   6.883  1.5420 -1.4360  2.6119
17726THY    HM239233   1.416   1.978   6.957  1.1858  0.4257  1.2724
17726THY    HM339234   1.491   2.105   6.860  0.0115 -2.9970  0.0431
17726THY    CA639235   1.435   1.825   6.694 -0.4036  0.0482  0.6735
17726THY    HA639236   1.507   1.772   6.755  0.1930 -0.4757  0.8756
17727THY      O39237   4.786   1.159   6.588  0.2171  0.3826 -0.1830
17727THY     HO39238   4.769   1.170   6.493 -3.3296  0.7284 -1.5637
17727THY    CA139239   4.925   1.173   6.596 -0.2055  0.1412  0.0048
17727THY    CA239240   5.001   1.133   6.696  0.0185  0.1679  0.2569
17727THY    CP139241   4.939   1.043   6.808  0.2414 -0.3695 -0.3990
17727THY    HP139242   4.837   1.016   6.777  0.1160 -0.3356  0.0325
17727THY    CP239243   4.931   1.119   6.935  0.1262 -0.0610  0.2463
17727THY    HP239244   5.030   1.154   6.969  0.3840  0.4687 -0.9263
17727THY    HP339245   4.895   1.064   7.023  0.1553 -0.6225 -0.7041
17727THY    HP439246   4.858   1.200   6.928  0.3331 -2.8142  0.2976
17727THY    CP339247   5.006   0.909   6.811 -0.6121 -0.3796  0.0398
17727THY    HP539248   4.977   0.844   6.728  0.5869 -1.0606  0.3262
17727THY    HP639249   4.979   0.851   6.900  1.7208  0.6405  0.3796
17727THY    HP739250   5.116   0.917   6.810 -0.3991  2.1232 -1.5480
17727THY    CA339251   5.130   1.183   6.714 -0.3650  0.3347 -0.2703
17727THY    HA339252   5.183   1.155   6.804 -0.2586  0.0387 -1.0460
17727THY    CA439253   5.191   1.248   6.608 -0.4386 -0.0764 -0.6715
17727THY    HA439254   5.297   1.268   6.618 -0.1018 -1.5935 -1.5477
17727THY    CA539255   5.118   1.280   6.496  0.3111 -0.1629  0.6817
17727THY    CM139256   5.183   1.346   6.377  0.4035  0.3332  0.3366
17727THY    HM139257   5.292   1.354   6.374  0.4235  1.9186  1.0251
17727THY    HM239258   5.141   1.446   6.359  0.3909 -0.6255  0.1647
17727THY    HM339259   5.160   1.292   6.284 -0.6595  1.1286 -0.6262
17727THY    CA639260   4.985   1.241   6.488 -0.0383 -0.6262 -0.3494
17727THY    HA639261   4.926   1.278   6.404  2.6186 -2.7467 -0.5469
17728THY      O39262   0.369   4.906   2.965  0.5174  0.3615 -0.0517
17728THY     HO39263   0.334   4.860   2.887 -0.7264  1.4256 -0.9496
17728THY    CA139264   0.498   4.930   2.935 -0.0724  0.4451  0.7808
17728THY    CA239265   0.586   5.004   3.025  0.0347 -0.0934 -0.1923
17728THY    CP139266   0.526   5.074   3.147 -0.7652 -0.3342  0.8699
17728THY    HP139267   0.430   5.030   3.176  0.5493  1.8019 -0.8103
17728THY    CP239268   0.499   5.226   3.101 -0.4365 -0.3854  0.8017
17728THY    HP239269   0.423   5.236   3.023  0.1361 -1.1966 -0.8063
17728THY    HP339270   0.594   5.262   3.061  0.9615  0.8064 -1.3289
17728THY    HP439271   0.466   5.295   3.180  0.8969 -0.5597  1.6737
17728THY    CP339272   0.612   5.079   3.274  0.2706  0.2006 -0.2487
17728THY    HP539273   0.707   5.133   3.266 -1.0750 -0.8592  2.1444
17728THY    HP639274   0.624   4.973   3.300 -1.9007 -0.7050 -0.7830
17728THY    HP739275   0.556   5.131   3.353 -0.3780 -1.3371  1.4830
17728THY    CA339276   0.726   5.023   2.994  0.0747 -0.0439  0.4560
17728THY    HA339277   0.791   5.068   3.068 -0.3971  1.4868 -1.2557
17728THY    CA439278   0.772   4.953   2.881  0.3682  0.4232  0.0734
17728THY    HA439279   0.875   4.963   2.849  0.6459  0.4588 -2.0729
17728THY    CA539280   0.687   4.883   2.795 -0.5229 -0.0857 -0.0001
17728THY    CM139281   0.733   4.817   2.661  0.1115 -0.0303 -0.7226
17728THY    HM139282   0.824   4.757   2.673  0.2747 -0.6425 -0.6047
17728THY    HM239283   0.759   4.905   2.600  0.7166  0.4650 -0.5494
17728THY    HM339284   0.651   4.764   2.612 -2.7918  1.3382  2.1220
17728THY    CA639285   0.551   4.864   2.830 -0.3802 -0.6842  0.5245
17728THY    HA639286   0.495   4.783   2.785  0.6130  2.6459 -2.2404
17729THY      O39287   3.524   2.436   5.600 -0.2575 -0.3438 -0.2123
17729THY     HO39288   3.552   2.363   5.543 -0.9117  1.0587 -1.6063
17729THY    CA139289   3.548   2.551   5.535  0.5749  0.0998  0.1979
17729THY    CA239290   3.509   2.674   5.593 -0.1708  0.7222 -0.1587
17729THY    CP139291   3.441   2.673   5.729  0.6349 -0.7257 -0.4938
17729THY    HP139292   3.462   2.576   5.775 -2.1371 -0.7477 -1.2011
17729THY    CP239293   3.291   2.704   5.732 -0.7656 -0.2226  0.4057
17729THY    HP239294   3.252   2.694   5.835 -0.1340  0.0227  0.4087
17729THY    HP339295   3.230   2.630   5.679 -1.3257  2.8812 -1.5702
17729THY    HP439296   3.281   2.805   5.693  1.5542  1.2702  1.3041
17729THY    CP339297   3.512   2.778   5.821 -0.3108  0.0105  0.0830
17729THY    HP539298   3.621   2.762   5.814 -0.1645  2.0004 -0.0202
17729THY    HP639299   3.492   2.765   5.928 -0.4863  0.1519  1.3992
17729THY    HP739300   3.498   2.884   5.800 -0.2716  0.4752  0.1782
17729THY    CA339301   3.522   2.789   5.517  0.4106  0.1723 -0.1896
17729THY    HA339302   3.489   2.886   5.553 -1.0503 -2.0171  0.1934
17729THY    CA439303   3.574   2.780   5.387 -0.1752  0.3411 -0.2309
17729THY    HA439304   3.589   2.872   5.331  0.1721 -0.2143 -0.6223
17729THY    CA539305   3.624   2.658   5.332 -0.4553  0.5285 -0.0434
17729THY    CM139306   3.681   2.654   5.199  0.2013 -0.3411  0.1953
17729THY    HM139307   3.778   2.603   5.195 -0.2022 -3.5405 -0.5474
17729THY    HM239308   3.695   2.754   5.156 -1.9765 -0.3906  0.5311
17729THY    HM339309   3.617   2.598   5.130  1.0524 -2.4136  1.6468
17729THY    CA639310   3.602   2.543   5.405  0.1243 -1.3357 -0.0377
17729THY    HA639311   3.616   2.446   5.358 -0.9753 -1.4932 -0.1317
17730THY      O39312   5.673   0.622   6.480  0.1840 -0.0558 -0.5675
17730THY     HO39313   5.691   0.702   6.428 -0.6293 -0.7898 -0.8393
17730THY    CA139314   5.546   0.648   6.519 -0.3552 -0.2572  0.3075
17730THY    CA239315   5.477   0.552   6.599 -0.3775  0.1610  0.2007
17730THY    CP139316   5.546   0.417   6.633  0.2706  1.1845 -0.0036
17730THY    HP139317   5.594   0.387   6.539 -1.2045  0.6976 -0.9422
17730THY    CP239318   5.447   0.308   6.666 -0.4252 -0.0043 -0.3267
17730THY    HP239319   5.362   0.301   6.598 -0.0833 -0.3836 -0.9272
17730THY    HP339320   5.401   0.319   6.765  0.9061  0.6184 -0.1928
17730THY    HP439321   5.498   0.211   6.671  0.3411  0.5396  0.0903
17730THY    CP339322   5.649   0.440   6.746 -1.0170 -0.6437  0.0413
17730THY    HP539323   5.604   0.476   6.839  1.8264  0.7240  0.3439
17730THY    HP639324   5.734   0.506   6.724  0.1492 -0.4573 -1.3444
17730THY    HP739325   5.703   0.350   6.777  0.0295  0.0707  0.8908
17730THY    CA339326   5.346   0.575   6.639  0.0119  0.0553 -0.4068
17730THY    HA339327   5.285   0.507   6.697  1.0707  1.6070 -0.0826
17730THY    CA439328   5.292   0.702   6.615  0.3528 -0.1904 -0.4442
17730THY    HA439329   5.198   0.729   6.662  1.4957  0.8705  2.0334
17730THY    CA539330   5.357   0.786   6.528  0.2575 -0.2325 -0.3579
17730THY    CM139331   5.287   0.906   6.482  0.9096  0.5431  0.1436
17730THY    HM139332   5.302   0.920   6.375  0.7277  0.7396  2.1086
17730THY    HM239333   5.326   0.990   6.542 -1.7592  0.3792  1.6114
17730THY    HM339334   5.181   0.900   6.509  0.7869  0.3429  1.1510
17730THY    CA639335   5.487   0.760   6.480 -0.3359 -0.0977 -0.2099
17730THY    HA639336   5.536   0.840   6.425  0.2398  0.9212  0.1577
17731THY      O39337   4.819   2.388   3.998  0.1874  0.1145 -0.4280
17731THY     HO39338   4.804   2.443   4.077 -1.8267  1.0615 -2.2230
17731THY    CA139339   4.770   2.264   4.023 -0.0077  0.0632 -0.0515
17731THY    CA239340   4.734   2.165   3.929 -0.4147 -0.1755 -0.4224
17731THY    CP139341   4.738   2.209   3.783 -0.4907  0.0408  0.0289
17731THY    HP139342   4.821   2.274   3.755 -0.5648  0.3313  0.2496
17731THY    CP239343   4.616   2.302   3.749 -0.5237 -0.0135 -0.2697
17731THY    HP239344   4.626   2.397   3.803  0.3184 -0.6844  0.0419
17731THY    HP339345   4.528   2.262   3.799 -0.4753  0.6251  0.3873
17731THY    HP439346   4.599   2.332   3.645  1.3011 -0.1604  0.3910
17731THY    CP339347   4.748   2.095   3.678 -0.4655 -0.4654 -0.7101
17731THY    HP539348   4.759   2.144   3.581  1.5857 -1.9211 -3.7335
17731THY    HP639349   4.657   2.034   3.684  0.0887  0.9866 -1.4256
17731THY    HP739350   4.836   2.035   3.704 -0.4546  0.5586 -0.2584
17731THY    CA339351   4.700   2.036   3.970  0.1916 -0.4221  0.0223
17731THY    HA339352   4.674   1.963   3.894  2.2360 -1.0894 -0.0690
17731THY    CA439353   4.687   2.003   4.106  0.6017  0.3348  0.2139
17731THY    HA439354   4.648   1.904   4.129  1.8790 -1.5921 -0.7986
17731THY    CA539355   4.721   2.094   4.203 -0.9938  0.0705 -0.0234
17731THY    CM139356   4.699   2.062   4.342 -0.1403  0.1071  0.1553
17731THY    HM139357   4.670   1.958   4.360  2.6846  0.6308 -0.6269
17731THY    HM239358   4.619   2.132   4.370 -1.6479 -1.9679 -0.6385
17731THY    HM339359   4.790   2.078   4.400  1.1356 -1.5506 -0.7588
17731THY    CA639360   4.773   2.222   4.161  0.1557 -0.4807 -0.3458
17731THY    HA639361   4.802   2.296   4.235  0.1935 -2.5921  1.8774
17732THY      O39362   3.970   1.302   6.394 -0.1297  0.4895  0.0521
17732THY     HO39363   4.062   1.332   6.394 -0.5569 -0.2569  1.4323
17732THY    CA139364   3.960   1.203   6.492  0.0033 -0.3936 -0.2526
17732THY    CA239365   3.841   1.121   6.495  0.1295 -0.6847  0.3044
17732THY    CP139366   3.739   1.134   6.380 -0.1691 -0.1194  0.3224
17732THY    HP139367   3.768   1.217   6.315 -2.4475  1.0214  2.1149
17732THY    CP239368   3.593   1.164   6.427  0.0572 -0.3017 -0.1983
17732THY    HP239369   3.555   1.089   6.499 -3.2447 -2.4206 -0.7783
17732THY    HP339370   3.526   1.181   6.342  1.4040 -0.7975  3.2684
17732THY    HP439371   3.592   1.261   6.477  1.4135 -2.5693  1.0587
17732THY    CP339372   3.743   1.008   6.295  0.4091 -0.0346 -0.3081
17732THY    HP539373   3.711   1.022   6.191 -0.0765  0.2073  0.4569
17732THY    HP639374   3.680   0.926   6.331 -0.6482 -0.7878  0.1491
17732THY    HP739375   3.842   0.961   6.287  1.4673  1.6265  1.4858
17732THY    CA339376   3.824   1.033   6.603 -0.8137  0.0737 -0.1953
17732THY    HA339377   3.741   0.964   6.618  0.5366  0.2120 -1.8662
17732THY    CA439378   3.923   1.031   6.702 -0.5567 -0.6688  0.7878
17732THY    HA439379   3.908   0.969   6.789  1.4583  0.2117  1.4567
17732THY    CA539380   4.038   1.110   6.693 -0.1484 -0.1109 -0.6621
17732THY    CM139381   4.144   1.107   6.803 -0.4795  0.2012  0.0659
17732THY    HM139382   4.106   1.027   6.868 -0.2599 -0.0979 -0.2859
17732THY    HM239383   4.150   1.203   6.855  0.4659  0.1643  0.0384
17732THY    HM339384   4.241   1.067   6.769 -1.0941  0.4557 -1.7063
17732THY    CA639385   4.057   1.202   6.589 -0.7237  0.3626 -0.3986
17732THY    HA639386   4.146   1.264   6.584 -0.1303  1.0277 -1.1825
17733THY      O39387   7.768   8.355   3.814 -0.2256  0.4119  0.0858
17733THY     HO39388   7.726   8.427   3.864 -1.0893 -2.6964  1.9315
17733THY    CA139389   7.842   8.414   3.723  0.3236 -0.3197  0.7824
17733THY    CA239390   7.942   8.344   3.659  0.5523 -0.1498 -0.0316
17733THY    CP139391   7.966   8.203   3.692 -0.6830  0.2223 -0.2120
17733THY    HP139392   7.954   8.197   3.801 -1.7310  0.0759 -1.4394
17733THY    CP239393   8.113   8.153   3.650  0.5265 -0.2135  0.4813
17733THY    HP239394   8.194   8.215   3.691  0.0082 -0.7984  1.5798
17733THY    HP339395   8.128   8.125   3.545  0.2137  0.0888 -0.8732
17733THY    HP439396   8.135   8.055   3.695 -0.7411 -0.7442 -0.0706
17733THY    CP339397   7.868   8.114   3.617  0.3834 -0.2435 -0.4387
17733THY    HP539398   7.896   8.012   3.644 -1.7058 -1.0205 -1.2851
17733THY    HP639399   7.875   8.123   3.508 -1.1131 -0.3386 -0.0670
17733THY    HP739400   7.761   8.132   3.632  0.8645  1.7430  1.1809
17733THY    CA339401   8.018   8.408   3.561  0.0042  0.4326 -0.6243
17733THY    HA339402   8.102   8.357   3.515 -0.3813  0.3675 -1.2149
17733THY    CA439403   7.982   8.547   3.527 -0.3932  0.9926  0.6781
17733THY    HA439404   8.053   8.600   3.464 -1.1178  0.5695  1.1597
17733THY    CA539405   7.880   8.612   3.597 -0.3805  0.7301  0.5765
17733THY    CM139406   7.858   8.757   3.568  0.1582  0.3381 -0.0889
17733THY    HM139407   7.864   8.804   3.667 -0.1991 -0.1140  0.9520
17733THY    HM239408   7.760   8.777   3.524 -0.2599  0.7092 -1.2728
17733THY    HM339409   7.940   8.793   3.505 -0.5264  1.0889  3.0879
17733THY    CA639410   7.803   8.548   3.690  0.1028  0.1559  0.3872
17733THY    HA639411   7.721   8.596   3.744 -0.0023 -0.0584  0.4473
17734THY      O39412   1.819   6.746   7.591  0.5764 -0.0711 -0.0554
17734THY     HO39413   1.723   6.737   7.573  0.7843 -1.3534  0.1093
17734THY    CA139414   1.877   6.762   7.476  0.3041  0.2482  0.0612
17734THY    CA239415   2.012   6.741   7.459  0.0230  0.3127  0.5545
17734THY    CP139416   2.106   6.693   7.570 -0.6869 -0.1456  0.4750
17734THY    HP139417   2.065   6.735   7.662  0.6797 -0.0588  1.6989
17734THY    CP239418   2.244   6.748   7.550 -0.3605  0.2147 -0.0285
17734THY    HP239419   2.234   6.853   7.518  0.1407  0.4977  0.1109
17734THY    HP339420   2.298   6.688   7.476 -0.4466  1.8426 -2.2333
17734THY    HP439421   2.296   6.755   7.646 -0.7667  0.3250  2.2929
17734THY    CP339422   2.112   6.540   7.587 -0.3762 -0.2292  0.5637
17734THY    HP539423   2.188   6.525   7.664 -0.7524  0.4105  1.8430
17734THY    HP639424   2.149   6.493   7.495  0.8229  0.2208  0.6005
17734THY    HP739425   2.012   6.500   7.608  0.6261 -0.1113 -2.0667
17734THY    CA339426   2.064   6.779   7.330  0.1227  0.2546 -0.5954
17734THY    HA339427   2.168   6.771   7.303  0.1591 -0.3434  1.4517
17734THY    CA439428   1.977   6.827   7.231  0.0275  0.5462  0.0752
17734THY    HA439429   2.020   6.864   7.139 -1.0729  0.3162  0.8133
17734THY    CA539430   1.840   6.827   7.246 -0.0855 -0.7836  0.1118
17734THY    CM139431   1.760   6.887   7.134  0.3511 -0.2811 -0.5173
17734THY    HM139432   1.825   6.940   7.063  0.3111  0.5826  0.7378
17734THY    HM239433   1.676   6.952   7.161 -2.5001 -1.5452 -3.3775
17734THY    HM339434   1.701   6.807   7.089 -0.4882 -0.1702  0.0252
17734THY    CA639435   1.784   6.796   7.373 -0.6833 -0.2739 -0.2830
17734THY    HA639436   1.682   6.823   7.396 -1.4686 -1.5420 -1.9589
17735THY      O39437   7.239   3.524   6.855 -0.1253 -0.3731 -0.3461
17735THY     HO39438   7.227   3.589   6.784 -1.3763  0.2328  0.1200
17735THY    CA139439   7.291   3.416   6.804 -0.3436  0.4366  0.6059
17735THY    CA239440   7.357   3.319   6.883  0.7732  0.3745  0.2100
17735THY    CP139441   7.371   3.347   7.031  0.2721 -0.3116  0.0249
17735THY    HP139442   7.292   3.417   7.059 -1.1604 -1.8540 -0.8787
17735THY    CP239443   7.508   3.399   7.080 -0.7209  0.2586  0.2746
17735THY    HP239444   7.507   3.503   7.047 -0.4834  2.4906  1.0366
17735THY    HP339445   7.590   3.342   7.035  0.3218  2.3837  0.0215
17735THY    HP439446   7.523   3.406   7.188 -0.2850  0.1285  1.5261
17735THY    CP339447   7.332   3.218   7.109 -0.5739 -0.1229  0.5065
17735THY    HP539448   7.225   3.196   7.104 -0.7398 -1.9601  1.5148
17735THY    HP639449   7.357   3.213   7.215 -1.0204  0.3311  4.4888
17735THY    HP739450   7.397   3.138   7.073 -0.9560  0.5313 -0.1030
17735THY    CA339451   7.408   3.210   6.818 -0.4186  0.6953  0.2779
17735THY    HA339452   7.471   3.136   6.868 -0.1664  1.1961  0.8182
17735THY    CA439453   7.396   3.188   6.680 -0.4084 -0.3245  0.3222
17735THY    HA439454   7.432   3.094   6.639 -1.1209  0.2393 -0.1981
17735THY    CA539455   7.312   3.269   6.610 -0.6268 -0.1880 -0.1029
17735THY    CM139456   7.272   3.247   6.469 -0.3996 -0.3104  0.4611
17735THY    HM139457   7.215   3.156   6.448 -0.1037  0.3287  0.1240
17735THY    HM239458   7.363   3.237   6.408  1.6254  2.5349  0.2227
17735THY    HM339459   7.212   3.331   6.432 -1.4897 -0.3118 -0.2982
17735THY    CA639460   7.271   3.384   6.665  0.0452 -0.7740 -0.2635
17735THY    HA639461   7.208   3.456   6.615  1.5095  0.3960  1.9638
17736THY      O39462   6.885   6.356   3.272  0.4389 -0.4019 -0.1048
17736THY     HO39463   6.859   6.275   3.225 -1.3330  0.8429 -0.3270
17736THY    CA139464   6.776   6.437   3.262  0.9451  0.3584 -0.0653
17736THY    CA239465   6.790   6.568   3.221 -0.5422  0.1649 -0.1672
17736THY    CP139466   6.929   6.621   3.192  0.2550  0.3872 -0.6426
17736THY    HP139467   7.015   6.559   3.220  2.3959 -1.8799  1.1090
17736THY    CP239468   6.954   6.758   3.263 -0.0466  0.0673  0.2263
17736THY    HP239469   7.060   6.784   3.266  0.0687  1.7751 -0.2983
17736THY    HP339470   6.919   6.747   3.367 -1.5668 -0.3047  1.2110
17736THY    HP439471   6.893   6.830   3.208 -2.8820 -0.6595 -2.5062
17736THY    CP339472   6.951   6.628   3.040 -0.3869 -0.3199 -0.8654
17736THY    HP539473   6.885   6.703   2.995 -0.2534  0.7671 -0.0709
17736THY    HP639474   6.937   6.529   2.995  0.0240 -0.5427 -0.8256
17736THY    HP739475   7.051   6.666   3.018  0.0215  1.2819 -0.9468
17736THY    CA339476   6.680   6.644   3.197  0.3225 -0.4844  0.1664
17736THY    HA339477   6.700   6.743   3.156  1.6722 -0.5079 -0.1061
17736THY    CA439478   6.554   6.598   3.229  0.1097  0.9518  0.1716
17736THY    HA439479   6.475   6.667   3.198  1.1063 -3.3893 -0.3081
17736THY    CA539480   6.536   6.466   3.273 -0.0268 -0.0933  0.1942
17736THY    CM139481   6.400   6.412   3.305 -0.0437  0.3110  0.0234
17736THY    HM139482   6.345   6.491   3.356  1.1423 -1.4637  2.0871
17736THY    HM239483   6.398   6.315   3.357  1.1563 -1.3805 -0.9648
17736THY    HM339484   6.351   6.388   3.211 -0.1203  0.6695 -1.3074
17736THY    CA639485   6.648   6.392   3.293 -0.0320  0.0881 -0.0826
17736THY    HA639486   6.635   6.292   3.334  0.7107 -1.2731 -0.7606
17737THY      O39487   3.407   3.108   4.457  0.4073 -0.1161  0.8528
17737THY     HO39488   3.466   3.032   4.439 -3.3099 -2.5339 -1.7895
17737THY    CA139489   3.286   3.060   4.431  0.3932 -0.1941  0.0091
17737THY    CA239490   3.167   3.116   4.481 -0.4800  0.6523 -0.8215
17737THY    CP139491   3.174   3.236   4.580 -0.2451  0.6632  0.7462
17737THY    HP139492   3.262   3.225   4.645  0.1946 -0.1456 -0.6954
17737THY    CP239493   3.049   3.234   4.675 -0.0650  0.4148  0.4998
17737THY    HP239494   3.045   3.130   4.709 -0.5960 -0.4619  0.2244
17737THY    HP339495   2.951   3.260   4.633  0.1616 -0.3745  0.1040
17737THY    HP439496   3.083   3.296   4.759  4.5171 -0.1637 -0.8492
17737THY    CP339497   3.188   3.374   4.500 -0.0658  0.0224 -0.1906
17737THY    HP539498   3.195   3.451   4.578 -1.0965 -0.1308  0.0755
17737THY    HP639499   3.099   3.399   4.442 -0.6834  0.6932 -0.7466
17737THY    HP739500   3.277   3.362   4.438  0.4170  0.4145  1.2591
17737THY    CA339501   3.044   3.064   4.437  0.2674 -0.3587  0.1644
17737THY    HA339502   2.955   3.119   4.468  0.6739  0.1724  0.5311
17737THY    CA439503   3.040   2.949   4.351  0.1931 -0.5030 -0.0445
17737THY    HA439504   2.944   2.910   4.315 -1.7449  2.6352  1.4609
17737THY    CA539505   3.156   2.890   4.305  0.2687 -0.5260  0.4602
17737THY    CM139506   3.147   2.773   4.208  0.2787  0.4583 -0.6055
17737THY    HM139507   3.065   2.708   4.243 -1.6117  1.1389  1.9818
17737THY    HM239508   3.244   2.722   4.205  0.0598 -0.6896 -0.9932
17737THY    HM339509   3.131   2.805   4.105 -1.0768  1.1260  1.0128
17737THY    CA639510   3.280   2.950   4.339 -0.3729  0.0464  0.1396
17737THY    HA639511   3.370   2.916   4.291 -0.1382 -0.1191  0.9672
17738THY      O39512   0.900   6.123   4.752 -0.4253  0.5229  0.3984
17738THY     HO39513   0.907   6.124   4.655  0.0797  0.5649  0.7286
17738THY    CA139514   0.836   6.241   4.780 -0.1261 -0.0087  1.0323
17738THY    CA239515   0.778   6.266   4.911 -0.0444 -0.3572 -0.0772
17738THY    CP139516   0.808   6.179   5.034 -0.0713  0.3666  0.5664
17738THY    HP139517   0.847   6.082   5.000  2.2305  0.6041  1.3378
17738THY    CP239518   0.690   6.153   5.127  0.0944 -0.4246  0.3848
17738THY    HP239519   0.671   6.242   5.188  1.6870 -0.0776  0.5211
17738THY    HP339520   0.709   6.069   5.194  0.8761  0.2630  1.0849
17738THY    HP439521   0.606   6.127   5.062  1.3528 -1.0903 -2.3348
17738THY    CP339522   0.926   6.244   5.104  0.2164 -0.0667 -0.2917
17738THY    HP539523   1.003   6.259   5.028 -2.8604 -3.6267 -0.8802
17738THY    HP639524   0.951   6.176   5.186  0.3768  1.1151  1.1432
17738THY    HP739525   0.895   6.344   5.135  0.6830  0.2333 -0.2393
17738THY    CA339526   0.720   6.390   4.935 -0.4336 -0.0676  0.3663
17738THY    HA339527   0.663   6.428   5.019 -1.5086 -1.6019  2.4244
17738THY    CA439528   0.720   6.476   4.827 -0.2003 -0.0554  0.3099
17738THY    HA439529   0.677   6.574   4.842  0.0708 -1.9182  0.7452
17738THY    CA539530   0.765   6.444   4.703 -0.2898  0.0886 -0.2826
17738THY    CM139531   0.766   6.549   4.594 -0.0603 -0.7037 -0.3141
17738THY    HM139532   0.668   6.559   4.545 -0.0494 -0.3143  2.7336
17738THY    HM239533   0.834   6.539   4.509  0.3190 -0.3427 -0.8365
17738THY    HM339534   0.772   6.649   4.640  0.9644 -0.5970 -0.4220
17738THY    CA639535   0.824   6.327   4.679 -0.4309  0.1886  1.0233
17738THY    HA639536   0.866   6.302   4.581  2.2252  1.3105  0.7877
17739THY      O39537   7.872   4.608   4.849 -0.2904 -0.0288  0.2234
17739THY     HO39538   7.906   4.517   4.860  2.7321  2.8261  1.5076
17739THY    CA139539   7.776   4.600   4.760 -0.1643 -0.0369 -0.3863
17739THY    CA239540   7.702   4.715   4.731 -0.6014  0.2466 -0.2243
17739THY    CP139541   7.737   4.853   4.808 -0.1143  0.0187 -0.8687
17739THY    HP139542   7.839   4.856   4.848 -0.1932  0.1632  0.7085
17739THY    CP239543   7.657   4.871   4.930  0.1957 -0.5427  0.1373
17739THY    HP239544   7.696   4.952   4.994  1.0565 -0.3917 -0.3927
17739THY    HP339545   7.631   4.779   4.984 -0.0239 -2.7447 -1.1542
17739THY    HP439546   7.555   4.894   4.896  0.8064 -1.6703  1.3489
17739THY    CP339547   7.724   4.973   4.721  0.0281  0.4176 -0.2522
17739THY    HP539548   7.792   4.961   4.636  0.5990  1.0684 -2.1109
17739THY    HP639549   7.764   5.058   4.777 -0.4567 -0.3655  0.5012
17739THY    HP739550   7.621   4.998   4.694  0.0759 -0.1339 -0.6278
17739THY    CA339551   7.589   4.705   4.648  1.6273  0.0256  0.3193
17739THY    HA339552   7.530   4.795   4.634 -0.1168  1.7859 -0.4584
17739THY    CA439553   7.565   4.587   4.574 -0.1271 -0.5753  0.5021
17739THY    HA439554   7.482   4.584   4.504 -0.1581 -0.5065 -0.4415
17739THY    CA539555   7.636   4.469   4.606  0.1328 -0.4544  0.1632
17739THY    CM139556   7.609   4.342   4.528 -0.5055 -0.5678 -0.4242
17739THY    HM139557   7.515   4.295   4.561  0.4306  0.1508 -1.8697
17739THY    HM239558   7.692   4.274   4.550  0.6925 -0.0964  1.1251
17739THY    HM339559   7.614   4.347   4.419 -1.0693 -0.6424 -1.3237
17739THY    CA639560   7.746   4.472   4.694 -0.2939 -0.9197 -0.4449
17739THY    HA639561   7.814   4.387   4.690  0.8027 -1.0412  0.4030
17740THY      O39562   1.389   4.003   6.362  0.7912 -0.3307 -0.1280
17740THY     HO39563   1.343   4.047   6.435 -1.3886 -0.6128 -1.7477
17740THY    CA139564   1.493   3.952   6.429 -0.2343 -0.5853  0.8635
17740THY    CA239565   1.591   3.876   6.366 -0.0797  0.2444 -0.1861
17740THY    CP139566   1.599   3.867   6.214  0.1359  0.1497  1.1548
17740THY    HP139567   1.505   3.900   6.167  0.0198 -1.0970 -0.7778
17740THY    CP239568   1.627   3.716   6.168  0.7425  0.4612 -0.1062
17740THY    HP239569   1.733   3.693   6.152  0.1033 -1.1069 -2.3171
17740THY    HP339570   1.593   3.696   6.065  1.8503  0.0971 -0.1524
17740THY    HP439571   1.576   3.652   6.241 -1.0500  1.3215  2.1675
17740THY    CP339572   1.709   3.956   6.146 -1.1511 -0.5220  0.2039
17740THY    HP539573   1.694   3.949   6.038 -1.2882 -0.5347  0.6702
17740THY    HP639574   1.811   3.929   6.176 -1.9900  1.6112 -0.8563
17740THY    HP739575   1.695   4.059   6.181 -0.2188  3.1082 -0.7635
17740THY    CA339576   1.693   3.812   6.441 -0.6714  0.1419  0.1004
17740THY    HA339577   1.773   3.755   6.394 -1.8231  0.3796 -1.8078
17740THY    CA439578   1.698   3.826   6.577  0.5754 -0.1287  0.2355
17740THY    HA439579   1.776   3.780   6.637 -0.6803  0.6329 -0.9996
17740THY    CA539580   1.605   3.917   6.639  0.2644 -0.7830  0.4762
17740THY    CM139581   1.618   3.955   6.785  0.5465  0.0963  0.7882
17740THY    HM139582   1.599   3.860   6.835  1.0635 -2.0885 -0.5214
17740THY    HM239583   1.544   4.033   6.807  0.1450 -0.7632  0.6574
17740THY    HM339584   1.716   3.996   6.812  0.4017  0.5152  0.8712
17740THY    CA639585   1.504   3.974   6.564 -0.6502 -0.1170 -0.1213
17740THY    HA639586   1.428   4.036   6.612 -0.1502 -0.0042  0.4084
17741THY      O39587   3.001   0.692   5.982 -0.5091  0.0802  0.2100
17741THY     HO39588   3.042   0.644   5.907 -1.1021  0.5904 -1.1428
17741THY    CA139589   3.100   0.777   6.031  0.0707  0.7088 -0.5783
17741THY    CA239590   3.073   0.841   6.157 -0.3554 -0.1458 -0.9841
17741THY    CP139591   2.942   0.824   6.237  0.6194  0.0274 -0.0033
17741THY    HP139592   2.870   0.762   6.182  2.1995 -1.3814 -0.6644
17741THY    CP239593   2.877   0.961   6.279 -0.5625  0.2573  0.2673
17741THY    HP239594   2.860   1.023   6.190 -0.8687  0.2633  0.1920
17741THY    HP339595   2.950   1.007   6.347  1.2289 -2.0217  1.0365
17741THY    HP439596   2.789   0.962   6.343 -1.0158 -0.3613  0.8927
17741THY    CP339597   2.952   0.747   6.370 -0.3429 -0.4344  0.2506
17741THY    HP539598   2.979   0.818   6.450 -0.2196  0.3916 -0.7129
17741THY    HP639599   3.022   0.663   6.362  0.6516 -0.1761  1.0174
17741THY    HP739600   2.853   0.707   6.392 -0.4725 -0.8287  0.3548
17741THY    CA339601   3.174   0.923   6.205  0.1844  0.3356 -0.1017
17741THY    HA339602   3.166   0.954   6.309 -1.1393 -0.4091  2.2526
17741THY    CA439603   3.287   0.954   6.124  0.2626  0.8868 -0.5450
17741THY    HA439604   3.373   1.009   6.162  1.8631  0.1447 -2.4217
17741THY    CA539605   3.300   0.909   5.990 -0.0237  0.3361  0.6682
17741THY    CM139606   3.414   0.926   5.902 -0.4778  0.0700 -0.3658
17741THY    HM139607   3.458   0.833   5.863  0.9528  0.6896  0.0168
17741THY    HM239608   3.496   0.977   5.955 -2.9811  3.3354  0.6501
17741THY    HM339609   3.393   1.001   5.826 -0.4865  0.1380 -0.2990
17741THY    CA639610   3.205   0.815   5.946  0.6565  0.7598  0.2658
17741THY    HA639611   3.209   0.777   5.844 -1.4189  1.3180 -1.7248
17742THY      O39612   6.156   7.374   4.889  0.3625 -0.4963  0.4749
17742THY     HO39613   6.084   7.422   4.846 -1.9605  2.2568 -0.2684
17742THY    CA139614   6.257   7.458   4.887 -0.9432 -0.1816 -0.0616
17742THY    CA239615   6.376   7.435   4.961 -0.0986 -0.5676 -0.0638
17742THY    CP139616   6.409   7.297   5.019 -0.7507  0.3593 -0.0340
17742THY    HP139617   6.329   7.225   4.996  1.9807  1.4015 -3.7224
17742THY    CP239618   6.439   7.292   5.164 -0.0663  0.4739  0.1342
17742THY    HP239619   6.530   7.339   5.204 -0.4312 -0.1435  1.4057
17742THY    HP339620   6.433   7.186   5.190  0.6724  2.4506  0.5251
17742THY    HP439621   6.353   7.347   5.206  0.6045  1.0681  0.7519
17742THY    CP339622   6.535   7.238   4.958 -0.7968  0.1615 -0.0972
17742THY    HP539623   6.539   7.274   4.855  2.1132  0.2648  0.0999
17742THY    HP639624   6.530   7.129   4.964 -0.6281  0.3864 -0.0931
17742THY    HP739625   6.623   7.277   5.009 -1.0899 -0.1230  0.9797
17742THY    CA339626   6.476   7.531   4.958  0.6854 -0.0920  0.9684
17742THY    HA339627   6.574   7.515   5.001 -0.1338  1.0991 -1.3761
17742THY    CA439628   6.466   7.656   4.895 -0.6362 -0.1535  0.9487
17742THY    HA439629   6.545   7.730   4.895 -0.3058  0.7497  0.6121
17742THY    CA539630   6.350   7.678   4.819 -0.0635 -0.4164 -0.3052
17742THY    CM139631   6.335   7.800   4.731 -0.7787  0.1217 -0.1521
17742THY    HM139632   6.232   7.820   4.698  0.0726 -1.1217  2.7729
17742THY    HM239633   6.397   7.787   4.641 -0.3209 -0.1250  2.9559
17742THY    HM339634   6.370   7.897   4.768 -0.1367 -2.7841  0.8335
17742THY    CA639635   6.251   7.579   4.813  0.1627  0.0570 -0.1415
17742THY    HA639636   6.167   7.599   4.746  1.4045 -1.4245  0.3236
17743THY      O39637   6.850   2.743   5.328 -0.3755  0.2272 -0.4339
17743THY     HO39638   6.898   2.759   5.411  0.2056  0.0901 -1.3671
17743THY    CA139639   6.905   2.629   5.272 -0.6214 -0.1985 -0.2314
17743THY    CA239640   6.881   2.585   5.138  0.1618  0.3699 -0.5875
17743THY    CP139641   6.800   2.670   5.027  0.5395  0.0072 -0.0311
17743THY    HP139642   6.780   2.770   5.067  1.4901 -0.2963  0.2852
17743THY    CP239643   6.663   2.623   5.023 -0.2999 -0.4107  0.1584
17743THY    HP239644   6.665   2.519   4.988 -0.9872 -0.4818  0.1643
17743THY    HP339645   6.602   2.683   4.955 -0.5581 -1.2198 -0.9835
17743THY    HP439646   6.629   2.633   5.127  0.1946 -0.2029 -0.2452
17743THY    CP339647   6.864   2.696   4.893 -0.5291  0.2647 -0.3660
17743THY    HP539648   6.954   2.757   4.907  0.1223 -3.2180 -0.3236
17743THY    HP639649   6.799   2.762   4.835 -0.4773  2.5513  1.8455
17743THY    HP739650   6.895   2.607   4.836 -0.1078 -0.7189  0.4030
17743THY    CA339651   6.928   2.461   5.094 -0.4078 -0.1264  0.2256
17743THY    HA339652   6.912   2.426   4.993  2.5101 -0.4057 -0.5561
17743THY    CA439653   6.991   2.380   5.186  0.6520 -0.3060 -0.5155
17743THY    HA439654   7.042   2.290   5.154 -1.4598 -0.1479 -1.8364
17743THY    CA539655   7.017   2.421   5.318  0.1756 -0.3884  0.6476
17743THY    CM139656   7.079   2.342   5.429 -0.6481  0.2284  0.6091
17743THY    HM139657   7.004   2.346   5.509 -0.3079  0.5092  1.8080
17743THY    HM239658   7.167   2.385   5.479 -1.4192  1.0224  1.3095
17743THY    HM339659   7.093   2.240   5.392 -0.6834  1.7805  0.0080
17743THY    CA639660   6.967   2.542   5.359 -0.6436 -0.7518 -0.0263
17743THY    HA639661   6.985   2.573   5.462  0.1452 -1.3763  1.7030
17744THY      O39662   6.835   8.832   2.374 -0.0617 -0.1173 -0.2905
17744THY     HO39663   6.859   8.921   2.342 -0.6359 -1.6249 -0.6489
17744THY    CA139664   6.762   8.790   2.276  0.0221  0.3159  0.1366
17744THY    CA239665   6.774   8.655   2.240  0.7781  0.1864  0.2035
17744THY    CP139666   6.857   8.548   2.308  0.4112  0.4031  0.2966
17744THY    HP139667   6.904   8.589   2.398  1.9194  0.4138 -1.3000
17744THY    CP239668   6.977   8.507   2.219 -0.1599  0.2319  0.4316
17744THY    HP239669   6.948   8.469   2.121  1.0019  0.6170 -1.6500
17744THY    HP339670   7.039   8.432   2.271 -0.4636 -0.3242 -0.2155
17744THY    HP439671   7.031   8.598   2.192  0.2582 -1.9128 -0.3983
17744THY    CP339672   6.792   8.419   2.350  0.4327 -0.9673  0.4647
17744THY    HP539673   6.694   8.443   2.391 -0.3787 -2.9827  0.7686
17744THY    HP639674   6.848   8.375   2.434 -2.2139 -0.4917 -2.3135
17744THY    HP739675   6.778   8.341   2.274  0.1084 -0.5168  0.0737
17744THY    CA339676   6.708   8.613   2.126  0.3969 -0.8089  0.3427
17744THY    HA339677   6.703   8.507   2.102 -1.0852 -0.2954  0.2680
17744THY    CA439678   6.640   8.703   2.055  0.5535 -0.4579  0.0728
17744THY    HA439679   6.584   8.664   1.970  1.1875 -0.8930  0.0954
17744THY    CA539680   6.618   8.835   2.090  0.1698 -0.4693 -0.2659
17744THY    CM139681   6.514   8.915   2.026 -0.5525 -0.2446  0.9674
17744THY    HM139682   6.543   8.918   1.920 -1.5319 -0.6262 -1.1999
17744THY    HM239683   6.507   9.018   2.063 -0.0097  0.9737  0.5887
17744THY    HM339684   6.419   8.866   2.049 -0.2093  1.5386  1.0697
17744THY    CA639685   6.689   8.877   2.203  0.3612  0.7812  0.8925
17744THY    HA639686   6.679   8.979   2.239 -0.0447  2.4586  0.2960
17745THY      O39687   7.412   5.706   4.598  0.4225 -0.5380 -0.0617
17745THY     HO39688   7.406   5.694   4.695 -1.7998 -0.7516 -1.2174
17745THY    CA139689   7.543   5.707   4.562 -0.6026  0.0720 -0.9414
17745THY    CA239690   7.578   5.691   4.431 -0.6537  0.7582 -0.0458
17745THY    CP139691   7.471   5.680   4.320 -0.6488  0.0355  0.7762
17745THY    HP139692   7.369   5.678   4.362 -0.3791  1.0504 -3.8437
17745THY    CP239693   7.492   5.553   4.237  0.3639  1.0007 -0.7431
17745THY    HP239694   7.484   5.454   4.284 -4.2421 -0.7472 -1.4522
17745THY    HP339695   7.585   5.552   4.180  0.4491  0.8561  2.8119
17745THY    HP439696   7.423   5.542   4.153 -0.1828  1.4134 -0.5070
17745THY    CP339697   7.483   5.802   4.236  0.4384  0.2357 -0.1048
17745THY    HP539698   7.581   5.803   4.186  0.7786  0.7558 -2.3411
17745THY    HP639699   7.454   5.889   4.296 -0.6900  0.2696 -0.4851
17745THY    HP739700   7.402   5.793   4.163  0.2701  0.5274 -1.0656
17745THY    CA339701   7.718   5.671   4.403 -0.5795 -0.0309  0.0097
17745THY    HA339702   7.751   5.671   4.299  2.6743  0.8094  3.0111
17745THY    CA439703   7.812   5.671   4.506 -0.2306 -0.7113  0.2141
17745THY    HA439704   7.918   5.665   4.484 -0.2396 -0.9168  0.7561
17745THY    CA539705   7.771   5.695   4.639 -0.8175  0.2372  0.0824
17745THY    CM139706   7.872   5.704   4.749 -0.3226  0.1535  0.5808
17745THY    HM139707   7.831   5.777   4.820 -2.5178 -0.4197 -0.0233
17745THY    HM239708   7.968   5.730   4.702  0.0546 -0.5323 -1.8575
17745THY    HM339709   7.877   5.604   4.794  3.6320 -1.9794 -0.3873
17745THY    CA639710   7.633   5.703   4.664 -0.5616  0.9228 -0.0037
17745THY    HA639711   7.603   5.735   4.763 -1.0400  0.3731  1.3045
17746THY      O39712   3.064   6.601   6.827  0.3101 -0.0327  0.3440
17746THY     HO39713   3.102   6.645   6.749  0.7334 -0.9074 -1.4868
17746THY    CA139714   2.999   6.494   6.778 -0.0102  0.5659 -0.0439
17746THY    CA239715   2.877   6.453   6.817  0.4326 -0.5219  0.5390
17746THY    CP139716   2.799   6.531   6.929  0.3321 -0.2222 -0.8731
17746THY    HP139717   2.858   6.603   6.986 -1.8303  1.2728 -0.1989
17746THY    CP239718   2.767   6.434   7.037 -0.9406  0.3653  0.8042
17746THY    HP239719   2.682   6.367   7.018  1.5125 -1.1968 -2.0907
17746THY    HP339720   2.755   6.486   7.134 -0.3781  0.4365  0.8076
17746THY    HP439721   2.857   6.376   7.060 -1.3585 -0.3875 -0.1751
17746THY    CP339722   2.679   6.615   6.862  0.0672 -0.5896 -0.3232
17746THY    HP539723   2.710   6.644   6.761 -0.2230 -0.6957 -0.3762
17746THY    HP639724   2.641   6.700   6.919  2.5300  0.8244 -0.0830
17746THY    HP739725   2.587   6.556   6.862  0.9162  1.6414 -1.7875
17746THY    CA339726   2.823   6.328   6.769 -0.0746 -0.3971  0.0454
17746THY    HA339727   2.724   6.299   6.803 -1.0898 -4.5242 -2.1252
17746THY    CA439728   2.882   6.255   6.669  0.1601 -0.0581  0.5931
17746THY    HA439729   2.825   6.176   6.621 -0.6681 -1.4280  1.9571
17746THY    CA539730   3.004   6.308   6.625  0.4312 -0.1706  0.8382
17746THY    CM139731   3.064   6.243   6.510 -0.8769  0.5912 -0.7566
17746THY    HM139732   3.051   6.135   6.524 -0.7708 -0.1586 -0.8708
17746THY    HM239733   3.172   6.257   6.498 -0.9462 -2.1589 -1.9852
17746THY    HM339734   3.006   6.282   6.425 -0.6888  0.7238 -0.1698
17746THY    CA639735   3.063   6.424   6.679 -0.1848  0.0737 -0.0221
17746THY    HA639736   3.148   6.473   6.634 -1.5942  1.0970  3.7014
17747THY      O39737   2.892   2.649   6.074 -0.2740 -1.1283  0.7214
17747THY     HO39738   2.841   2.707   6.133  1.2605  0.4926  0.5005
17747THY    CA139739   2.814   2.543   6.027 -0.3940  0.3749 -0.3033
17747THY    CA239740   2.870   2.420   5.982 -0.3004  0.3559 -0.6214
17747THY    CP139741   3.016   2.401   5.995 -0.9361 -0.1349  0.3950
17747THY    HP139742   3.052   2.440   6.091  0.0277 -0.6948  0.9204
17747THY    CP239743   3.093   2.488   5.890  0.0359  0.1077 -0.9766
17747THY    HP239744   3.041   2.471   5.795  0.8056  0.0686 -3.4645
17747THY    HP339745   3.198   2.458   5.887  0.4874  2.2164  0.2101
17747THY    HP439746   3.088   2.594   5.918  1.4766 -1.5381 -0.4299
17747THY    CP339747   3.066   2.250   5.981 -0.1330  0.0167  0.0001
17747THY    HP539748   3.021   2.176   6.048  0.6412 -0.2485 -0.7278
17747THY    HP639749   3.171   2.241   6.011  0.1887 -0.7934  0.8774
17747THY    HP739750   3.048   2.217   5.878  1.0578  0.5096 -2.4185
17747THY    CA339751   2.786   2.323   5.921 -0.3591 -0.3437  0.0645
17747THY    HA339752   2.823   2.231   5.877 -0.9650 -0.3939 -0.1594
17747THY    CA439753   2.651   2.342   5.920  0.3587 -0.1965 -0.3559
17747THY    HA439754   2.579   2.269   5.884 -2.2890  2.2699  0.8770
17747THY    CA539755   2.597   2.461   5.963 -0.0107  0.0319 -0.8822
17747THY    CM139756   2.451   2.485   5.962 -0.2640  0.2130  0.1336
17747THY    HM139757   2.403   2.466   6.059 -0.6807 -0.2850 -1.5041
17747THY    HM239758   2.395   2.426   5.889 -0.6227  2.0068 -1.8546
17747THY    HM339759   2.440   2.582   5.913  0.7985 -1.8570 -0.7254
17747THY    CA639760   2.680   2.570   6.016  0.6419 -0.2530 -0.5258
17747THY    HA639761   2.642   2.668   6.040 -1.3419 -1.8502 -0.8300
17748THY      O39762   8.065   7.797   3.538  0.1287 -0.1880  0.5534
17748THY     HO39763   7.985   7.846   3.513 -1.2191 -0.6921 -1.7533
17748THY    CA139764   8.137   7.773   3.425 -0.4136  0.4765 -0.3717
17748THY    CA239765   8.216   7.657   3.416  1.3072 -0.2902  0.4233
17748THY    CP139766   8.227   7.560   3.529 -0.0383 -0.2518  0.5114
17748THY    HP139767   8.190   7.608   3.620 -1.5954 -0.2104 -0.6632
17748THY    CP239768   8.375   7.525   3.551  0.0975  0.4732  0.1944
17748THY    HP239769   8.428   7.621   3.556 -0.3471 -1.2341  0.5585
17748THY    HP339770   8.418   7.470   3.467 -2.2763 -1.1753  0.6862
17748THY    HP439771   8.391   7.471   3.645 -0.2993 -0.1908 -1.1167
17748THY    CP339772   8.150   7.429   3.507  0.3877 -0.8654  0.2637
17748THY    HP539773   8.048   7.455   3.479  0.9168 -3.4870 -0.1963
17748THY    HP639774   8.141   7.356   3.588  0.7107  0.2999  1.4743
17748THY    HP739775   8.178   7.371   3.418 -1.1931 -0.3036 -1.4609
17748THY    CA339776   8.281   7.628   3.288 -0.2109 -0.5406  0.4584
17748THY    HA339777   8.348   7.543   3.282  1.9047  2.8711  1.6490
17748THY    CA439778   8.254   7.714   3.177 -0.1642 -0.4649 -0.3516
17748THY    HA439779   8.299   7.686   3.082 -0.2546 -0.4180 -0.6584
17748THY    CA539780   8.181   7.831   3.198 -0.1431 -0.0621  0.2380
17748THY    CM139781   8.156   7.925   3.079  0.4438  0.8075 -0.2166
17748THY    HM139782   8.093   7.871   3.007  0.2973  0.7233  0.0660
17748THY    HM239783   8.247   7.962   3.030 -0.0159  0.2588  0.2136
17748THY    HM339784   8.104   8.014   3.114 -0.3990  2.5208 -1.3423
17748THY    CA639785   8.123   7.862   3.322  0.6443 -0.0678 -0.3574
17748THY    HA639786   8.064   7.951   3.341 -2.0691 -0.4028 -1.9690
17749THY      O39787   8.256   8.408   5.903 -0.4677  0.4359  0.4681
17749THY     HO39788   8.221   8.394   5.813  1.4040 -0.6608  2.1326
17749THY    CA139789   8.205   8.528   5.942  0.5245  0.1979  0.3105
17749THY    CA239790   8.277   8.601   6.040 -0.1737  0.4406 -0.7703
17749THY    CP139791   8.415   8.574   6.093  0.4106 -0.3290  0.5211
17749THY    HP139792   8.435   8.474   6.054 -2.4209 -1.0329  0.1675
17749THY    CP239793   8.424   8.553   6.247  0.6053 -0.0257 -0.7164
17749THY    HP239794   8.341   8.497   6.289  1.4523  2.1517 -0.4305
17749THY    HP339795   8.416   8.655   6.286  0.6707 -1.4073 -0.1604
17749THY    HP439796   8.516   8.505   6.282  1.8885  0.7478  2.0745
17749THY    CP339797   8.526   8.677   6.057  0.4364  0.1390  0.2601
17749THY    HP539798   8.622   8.641   6.096 -0.6156  2.5953 -0.1092
17749THY    HP639799   8.510   8.778   6.097 -2.3666 -3.8193  1.6341
17749THY    HP739800   8.548   8.676   5.950  0.7022  0.0979  3.2428
17749THY    CA339801   8.218   8.719   6.089 -1.1508  0.1216 -0.1196
17749THY    HA339802   8.260   8.778   6.169  1.4040 -1.2980  0.1282
17749THY    CA439803   8.093   8.754   6.043  0.1080 -0.1970  0.2227
17749THY    HA439804   8.048   8.843   6.087  0.7758  0.9285  0.0315
17749THY    CA539805   8.023   8.680   5.957  0.4135  0.3113 -0.4760
17749THY    CM139806   7.883   8.717   5.907  0.5231  0.0553 -0.1226
17749THY    HM139807   7.847   8.813   5.947  1.3245 -1.4110  0.8231
17749THY    HM239808   7.823   8.632   5.942  0.1514  0.1914  0.1917
17749THY    HM339809   7.874   8.715   5.798 -0.7437  0.1463 -2.3752
17749THY    CA639810   8.078   8.566   5.905 -0.5209 -0.0743 -0.7547
17749THY    HA639811   8.030   8.497   5.836  0.9131 -0.1581 -1.7205
17750THY      O39812   8.851   6.217   6.665  0.0592 -0.0815 -0.1550
17750THY     HO39813   8.900   6.134   6.680  0.3567  0.3548  0.0945
17750THY    CA139814   8.920   6.293   6.580  0.4167 -0.1533 -0.3090
17750THY    CA239815   8.862   6.409   6.522  0.2596 -0.2065  0.1434
17750THY    CP139816   8.716   6.444   6.560  0.2350  0.2500 -0.0866
17750THY    HP139817   8.671   6.367   6.625 -3.0334  0.4892  1.8261
17750THY    CP239818   8.619   6.462   6.435 -0.6079  0.0312  0.8849
17750THY    HP239819   8.616   6.367   6.380 -0.9164  1.2219  0.1956
17750THY    HP339820   8.647   6.538   6.361 -0.2322 -1.8246 -0.9779
17750THY    HP439821   8.515   6.470   6.469 -0.0383  1.5962  2.1255
17750THY    CP339822   8.710   6.579   6.647  1.0709 -0.0259 -0.4812
17750THY    HP539823   8.697   6.671   6.588  0.1696  3.5321  1.8814
17750THY    HP639824   8.799   6.585   6.710  0.4392  1.1747 -2.6169
17750THY    HP739825   8.622   6.570   6.712  1.6043  1.0089  1.2712
17750THY    CA339826   8.927   6.486   6.430  0.4001 -0.2266  0.0720
17750THY    HA339827   8.883   6.582   6.402  0.6803  0.6422  0.4614
17750THY    CA439828   9.054   6.439   6.387  0.2756  0.3200 -0.4320
17750THY    HA439829   9.110   6.501   6.319 -0.0864 -0.5142 -1.0007
17750THY    CA539830   9.105   6.323   6.437 -0.4377  0.8206 -0.3297
17750THY    CM139831   9.245   6.285   6.401 -0.3722  0.3947  0.6927
17750THY    HM139832   9.279   6.333   6.308  0.1928  0.1577 -0.1323
17750THY    HM239833   9.253   6.177   6.385 -0.2837  1.2131  0.5739
17750THY    HM339834   9.323   6.310   6.474 -0.7491  0.7414  0.8689
17750THY    CA639835   9.042   6.248   6.536  0.0541 -0.3133 -0.0306
17750THY    HA639836   9.086   6.168   6.594 -1.8692 -0.8568 -1.5486
17751THY      O39837   6.620   3.461   7.658  0.0090 -0.0594  0.0068
17751THY     HO39838   6.695   3.479   7.718 -0.8886  1.1807 -0.1979
17751THY    CA139839   6.511   3.494   7.730 -0.0114 -0.3881 -0.0324
17751THY    CA239840   6.388   3.533   7.665 -0.1486  0.2705 -0.3382
17751THY    CP139841   6.364   3.524   7.517  1.0349 -0.4615 -0.5133
17751THY    HP139842   6.443   3.472   7.463  0.3956 -0.4282 -1.5365
17751THY    CP239843   6.348   3.664   7.453 -0.4281 -0.3641 -0.2677
17751THY    HP239844   6.296   3.729   7.523  0.8016  0.3261  0.0090
17751THY    HP339845   6.306   3.653   7.352 -1.4169 -0.0579  0.5598
17751THY    HP439846   6.446   3.711   7.436  0.6727  0.9705 -1.9235
17751THY    CP339847   6.250   3.427   7.488 -0.4300 -0.4339  0.9053
17751THY    HP539848   6.266   3.342   7.555  1.7517 -1.2158  0.6250
17751THY    HP639849   6.254   3.382   7.388 -0.6645  0.2883 -0.7843
17751THY    HP739850   6.155   3.477   7.507  0.0033  1.6770  1.0102
17751THY    CA339851   6.284   3.576   7.756  0.0371  0.1677  0.6219
17751THY    HA339852   6.183   3.582   7.717 -0.5191  1.7373  2.3398
17751THY    CA439853   6.306   3.595   7.886  0.0102 -0.3313 -0.5696
17751THY    HA439854   6.228   3.629   7.954  0.8382 -1.0697  3.1962
17751THY    CA539855   6.417   3.548   7.943 -0.1325  0.4892 -0.0190
17751THY    CM139856   6.449   3.561   8.089  0.2837 -0.0714  0.3613
17751THY    HM139857   6.442   3.459   8.127 -0.6012  1.3837  0.9386
17751THY    HM239858   6.373   3.629   8.130 -1.2581 -1.9899 -0.0961
17751THY    HM339859   6.550   3.600   8.103 -0.1790  1.2816  1.1489
17751THY    CA639860   6.528   3.513   7.870  0.2196 -0.8025 -0.3277
17751THY    HA639861   6.627   3.501   7.914  0.9057 -1.0964  3.1556
17752THY      O39862   9.129   5.841   4.088 -0.8227 -0.4854  0.1092
17752THY     HO39863   9.209   5.893   4.110 -0.0693 -1.4908 -0.5897
17752THY    CA139864   9.103   5.884   3.965 -0.9183 -0.5362 -0.4824
17752THY    CA239865   9.051   5.789   3.862 -0.4799  0.0358 -0.6376
17752THY    CP139866   9.022   5.645   3.893 -0.4883 -0.2181 -0.3703
17752THY    HP139867   9.034   5.614   3.998 -1.5767 -0.5328 -1.9978
17752THY    CP239868   9.106   5.558   3.809 -0.0758  0.2380 -0.3764
17752THY    HP239869   9.087   5.595   3.708 -1.2609  0.2289 -0.9857
17752THY    HP339870   9.075   5.454   3.820 -0.1606 -0.6527 -0.4550
17752THY    HP439871   9.210   5.578   3.837 -0.2087 -1.0109  2.6629
17752THY    CP339872   8.872   5.612   3.868  0.1941 -0.4192 -0.2521
17752THY    HP539873   8.808   5.693   3.904  3.6082 -1.1562  3.0908
17752THY    HP639874   8.837   5.518   3.914  0.4620 -0.5347 -0.4112
17752THY    HP739875   8.850   5.597   3.762 -1.0736 -0.2710  0.4549
17752THY    CA339876   9.033   5.843   3.731  0.0820  0.3621  0.4096
17752THY    HA339877   8.981   5.784   3.656  0.3598  0.6794 -0.2346
17752THY    CA439878   9.058   5.987   3.704 -0.1332  0.3287 -0.0260
17752THY    HA439879   9.037   6.028   3.606  2.8571 -0.9013 -1.1743
17752THY    CA539880   9.098   6.067   3.808 -0.3713  0.0767  0.2125
17752THY    CM139881   9.109   6.215   3.780  0.5687  1.0076  0.6997
17752THY    HM139882   9.198   6.241   3.721 -0.4971 -0.1203  1.9031
17752THY    HM239883   9.110   6.273   3.873  1.1180  0.9959  0.7160
17752THY    HM339884   9.017   6.254   3.735  0.3990 -0.1413 -0.9145
17752THY    CA639885   9.122   6.015   3.939  0.0958  0.1889  0.4216
17752THY    HA639886   9.144   6.086   4.019 -0.9894 -1.3480  2.6048
17753THY      O39887   9.065   6.767   2.015  0.0289  0.2485 -0.0130
17753THY     HO39888   9.143   6.809   1.976 -1.8198 -3.0842  0.7354
17753THY    CA139889   9.081   6.759   2.150 -0.8298  0.4138 -0.3101
17753THY    CA239890   8.987   6.697   2.229  0.1966  0.1902 -0.3308
17753THY    CP139891   8.852   6.652   2.163 -0.4581  0.4315  0.0724
17753THY    HP139892   8.891   6.590   2.081 -0.1436  1.5460 -1.2415
17753THY    CP239893   8.757   6.763   2.120  0.0250 -0.0746  0.5550
17753THY    HP239894   8.723   6.834   2.196  0.7228 -0.7637  1.6580
17753THY    HP339895   8.672   6.711   2.076 -0.8315  0.6816  1.2798
17753THY    HP439896   8.801   6.824   2.041  0.2453  1.1326  2.0233
17753THY    CP339897   8.773   6.560   2.254 -0.1005 -0.0388 -0.5251
17753THY    HP539898   8.832   6.485   2.309  0.5627  0.0250  0.0248
17753THY    HP639899   8.693   6.505   2.204  0.6359 -0.4108 -1.2758
17753THY    HP739900   8.725   6.624   2.329  3.2111 -0.3330  2.6327
17753THY    CA339901   9.010   6.689   2.367 -0.1887 -0.2720  0.3033
17753THY    HA339902   8.928   6.655   2.430 -1.2959 -1.5656  0.4448
17753THY    CA439903   9.125   6.750   2.427  0.2407  0.1880  0.3428
17753THY    HA439904   9.135   6.745   2.535  0.0259  0.2128  0.4462
17753THY    CA539905   9.215   6.811   2.350  0.3510  0.4143 -0.2347
17753THY    CM139906   9.336   6.879   2.406  0.4663 -0.2472  0.7373
17753THY    HM139907   9.298   6.914   2.503  1.1871  0.5753 -0.6680
17753THY    HM239908   9.376   6.961   2.345 -0.7694 -1.4820  0.4484
17753THY    HM339909   9.411   6.801   2.427 -1.4825 -0.6950 -1.3699
17753THY    CA639910   9.204   6.801   2.212 -0.6371  0.2268 -0.5406
17753THY    HA639911   9.284   6.843   2.153  0.9057  2.6013  0.0137
17754THY      O39912   5.289   1.933   5.977  0.1172 -0.0827 -0.0203
17754THY     HO39913   5.266   1.843   5.950 -2.0217  2.3231 -0.2969
17754THY    CA139914   5.419   1.947   5.984 -0.2703  0.2358 -0.2429
17754THY    CA239915   5.487   2.052   6.052 -0.3859  0.4192 -0.2309
17754THY    CP139916   5.427   2.180   6.109 -0.1794  0.0508 -0.2658
17754THY    HP139917   5.320   2.176   6.090 -0.5745  1.9961 -0.0758
17754THY    CP239918   5.474   2.300   6.025  0.9601 -0.1359 -0.4649
17754THY    HP239919   5.580   2.315   6.048  1.3672 -0.1361 -2.9425
17754THY    HP339920   5.422   2.393   6.052  1.2562 -1.3913  0.0938
17754THY    HP439921   5.446   2.279   5.921  3.3657 -1.0834  0.5802
17754THY    CP339922   5.455   2.208   6.259 -0.3046 -0.1675 -0.1533
17754THY    HP539923   5.430   2.310   6.287  2.2773 -3.0889  1.4585
17754THY    HP639924   5.562   2.195   6.277 -0.6014  0.2722 -2.7031
17754THY    HP739925   5.392   2.136   6.313 -0.1676 -0.1875 -0.2874
17754THY    CA339926   5.631   2.036   6.045  0.1762  0.7874 -0.0401
17754THY    HA339927   5.693   2.118   6.080  1.0004  2.0835 -1.1642
17754THY    CA439928   5.692   1.919   5.995 -0.0167  0.3929  0.3019
17754THY    HA439929   5.801   1.924   5.988  0.1930 -1.0127 -3.1201
17754THY    CA539930   5.621   1.822   5.930  0.2449  0.2415 -0.1639
17754THY    CM139931   5.704   1.711   5.859  0.2646  0.0050 -0.0901
17754THY    HM139932   5.748   1.627   5.913  0.7005 -1.5566 -0.9200
17754THY    HM239933   5.786   1.760   5.806 -0.7616 -2.3629 -0.7576
17754THY    HM339934   5.642   1.662   5.782  0.3429 -0.2159  0.1537
17754THY    CA639935   5.485   1.832   5.929 -0.1839  0.3437  0.4535
17754THY    HA639936   5.430   1.761   5.868 -0.9478  0.1780  1.1665
17755THY      O39937   3.723   1.737   5.579 -0.7947 -0.3597  0.3120
17755THY     HO39938   3.793   1.780   5.631 -0.1589  0.0290 -1.1493
17755THY    CA139939   3.622   1.723   5.664  0.0005 -0.4360  0.1393
17755THY    CA239940   3.511   1.645   5.637  0.2882  0.3874 -0.3077
17755THY    CP139941   3.489   1.559   5.505  0.4896 -0.0538 -0.6456
17755THY    HP139942   3.585   1.569   5.453  0.7831  0.7590  1.1088
17755THY    CP239943   3.382   1.619   5.408 -0.4964  0.0757  0.3872
17755THY    HP239944   3.282   1.621   5.454 -0.5505  0.0089 -0.3516
17755THY    HP339945   3.370   1.551   5.323  0.2173 -1.5372  2.1948
17755THY    HP439946   3.417   1.717   5.375 -2.3687  1.5462  1.6259
17755THY    CP339947   3.458   1.415   5.523 -0.3471  0.3675 -0.3485
17755THY    HP539948   3.523   1.378   5.604 -1.2552  1.4124  0.2920
17755THY    HP639949   3.481   1.350   5.438 -0.7331  1.3780 -1.8600
17755THY    HP739950   3.354   1.407   5.555 -1.0624 -1.6530  0.3481
17755THY    CA339951   3.415   1.626   5.738  0.2261 -0.1276 -0.0828
17755THY    HA339952   3.330   1.562   5.719  0.3467 -1.2463  0.0756
17755THY    CA439953   3.416   1.694   5.855  0.6309 -0.5864  0.1174
17755THY    HA439954   3.336   1.686   5.929  2.3797  1.2122 -3.0202
17755THY    CA539955   3.530   1.769   5.882 -0.1514  0.0008  0.3161
17755THY    CM139956   3.540   1.831   6.015 -0.7280 -0.6598 -0.8766
17755THY    HM139957   3.467   1.911   6.029  0.3631 -1.3037  0.2630
17755THY    HM239958   3.641   1.873   6.010 -0.9225 -1.9663 -0.5170
17755THY    HM339959   3.541   1.752   6.091 -2.0692 -0.8245 -1.0653
17755THY    CA639960   3.633   1.788   5.789 -0.0371  0.5044  0.5096
17755THY    HA639961   3.722   1.849   5.796  0.9147 -3.7520 -0.0210
17756THY      O39962   7.796   8.118   4.892 -0.6310  0.1058  0.6774
17756THY     HO39963   7.706   8.148   4.912 -2.2481  0.8201 -3.8261
17756THY    CA139964   7.877   8.197   4.970 -0.5050 -0.2881  0.4135
17756THY    CA239965   8.014   8.174   4.995 -0.3294 -0.2686 -0.0910
17756THY    CP139966   8.084   8.052   4.920 -0.2874 -0.1909 -0.7194
17756THY    HP139967   8.016   7.967   4.907 -1.0712 -0.4318 -0.0689
17756THY    CP239968   8.200   7.994   5.016  0.1030  0.7479  0.2500
17756THY    HP239969   8.172   7.982   5.121 -0.9900  0.6357  1.5761
17756THY    HP339970   8.285   8.062   5.030 -0.4442  1.5848  0.7784
17756THY    HP439971   8.237   7.897   4.980  0.2655 -2.2481  1.3259
17756THY    CP339972   8.147   8.094   4.784  0.4937  0.5837 -0.0720
17756THY    HP539973   8.080   8.151   4.720  0.0741  2.7916  2.0969
17756THY    HP639974   8.183   8.007   4.728 -0.4265 -1.7438  0.9704
17756THY    HP739975   8.236   8.153   4.809  1.6800 -0.7234 -1.2487
17756THY    CA339976   8.088   8.280   5.055 -0.6530  0.1246 -0.0232
17756THY    HA339977   8.195   8.275   5.074 -0.5878  1.5162  3.6881
17756THY    CA439978   8.026   8.387   5.114  0.4931  0.3246  0.5212
17756THY    HA439979   8.086   8.456   5.173  0.6519  1.0447 -0.2085
17756THY    CA539980   7.888   8.399   5.093  0.0702 -0.1360  0.2489
17756THY    CM139981   7.811   8.521   5.144 -0.0404  0.0021 -0.6682
17756THY    HM139982   7.870   8.611   5.163 -0.3511  0.5659 -0.5760
17756THY    HM239983   7.763   8.507   5.242 -1.6654 -0.6392  0.2884
17756THY    HM339984   7.733   8.544   5.072 -0.7201  0.3582 -1.7933
17756THY    CA639985   7.814   8.310   5.018  0.5651 -0.3131  0.3061
17756THY    HA639986   7.706   8.319   5.009  0.1601  2.0451 -1.3716
17757THY      O39987   3.420   7.490   3.492  0.3143 -0.0333 -0.1413
17757THY     HO39988   3.515   7.497   3.475  0.0368 -1.0856  1.5042
17757THY    CA139989   3.349   7.561   3.394 -0.3926  0.2438  0.2693
17757THY    CA239990   3.213   7.572   3.414  0.3378  0.0033  0.4245
17757THY    CP139991   3.138   7.517   3.529  0.2090  0.0001 -0.4938
17757THY    HP139992   3.205   7.461   3.595 -2.8135  1.7901 -2.1947
17757THY    CP239993   3.030   7.420   3.478  0.8132 -0.6400 -0.0192
17757THY    HP239994   3.081   7.345   3.416 -1.8637 -0.2996 -2.2695
17757THY    HP339995   2.961   7.467   3.407 -0.5739  1.7927  1.8092
17757THY    HP439996   2.982   7.362   3.557  0.3367 -1.9411 -1.4666
17757THY    CP339997   3.071   7.622   3.616  0.6261  0.5332  0.0835
17757THY    HP539998   3.060   7.575   3.714 -0.1741 -0.3035 -1.5637
17757THY    HP639999   2.979   7.660   3.571 -0.9450  1.7260 -2.1284
17757THY    HP740000   3.153   7.694   3.631 -0.0079  0.8757  0.7403
17757THY    CA340001   3.146   7.644   3.310 -0.2495 -0.4522  0.5897
17757THY    HA340002   3.039   7.659   3.322 -0.3892 -1.7415  0.6866
17757THY    CA440003   3.208   7.675   3.186  0.2857 -0.1064 -0.4796
17757THY    HA440004   3.156   7.727   3.106 -1.9778  1.6505  0.1179
17757THY    CA540005   3.340   7.642   3.171 -0.7016  0.0204  0.3267
17757THY    CM140006   3.421   7.663   3.044  0.0200 -0.5208  0.1139
17757THY    HM140007   3.444   7.574   2.984 -2.1047  1.6297 -2.0204
17757THY    HM240008   3.511   7.718   3.075 -0.5290  0.9502  0.2317
17757THY    HM340009   3.371   7.735   2.978 -0.5266 -2.4037 -1.8826
17757THY    CA640010   3.415   7.592   3.277 -0.2512 -0.4171 -0.1184
17757THY    HA640011   3.522   7.580   3.266 -0.1412 -0.7883  1.0925
17758THY      O40012   9.013   0.264   4.588  0.5488 -0.3097  0.4474
17758THY     HO40013   8.957   0.186   4.599 -0.2705  1.2055  1.2026
17758THY    CA140014   9.083   0.264   4.701  0.0014 -0.2186 -0.5182
17758THY    CA240015   9.221   0.308   4.696  0.2341  0.1189  0.4062
17758THY    CP140016   9.279   0.362   4.561  0.4251 -0.1055  0.7724
17758THY    HP140017   9.220   0.328   4.475  0.1650  0.6057 -0.6658
17758THY    CP240018   9.433   0.324   4.536  0.4511  0.6183  0.0061
17758THY    HP240019   9.493   0.390   4.600 -0.6035  1.0751  0.5582
17758THY    HP340020   9.470   0.329   4.434 -0.0235  0.3833 -1.0265
17758THY    HP440021   9.452   0.224   4.575  1.5101 -0.8977 -0.4126
17758THY    CP340022   9.257   0.508   4.554 -0.3585 -0.0674 -0.1827
17758THY    HP540023   9.295   0.551   4.647  0.5176 -0.6469  0.3272
17758THY    HP640024   9.150   0.528   4.543 -0.0358 -3.3758  0.2853
17758THY    HP740025   9.317   0.550   4.472  0.7855  1.3502  1.1099
17758THY    CA340026   9.291   0.320   4.820 -0.9405 -0.2308 -0.1824
17758THY    HA340027   9.397   0.341   4.823 -0.2495  1.4010 -3.3239
17758THY    CA440028   9.227   0.278   4.939  0.5293 -0.4005 -0.6729
17758THY    HA440029   9.273   0.279   5.037 -2.8177  1.3439  0.2281
17758THY    CA540030   9.091   0.243   4.941 -0.6315 -0.2639 -0.7431
17758THY    CM140031   9.026   0.199   5.063  0.8440  0.3830 -0.2322
17758THY    HM140032   8.918   0.209   5.043  0.8614 -0.1882 -1.1007
17758THY    HM240033   9.047   0.277   5.138 -0.5844  0.0400  0.5186
17758THY    HM340034   9.039   0.094   5.090 -0.8954 -1.4633 -0.9821
17758THY    CA640035   9.024   0.236   4.821  0.3260 -0.6430  1.3295
17758THY    HA640036   8.919   0.206   4.817 -0.3057  2.1271  2.8361
17759THY      O40037   6.769   7.815   6.908  0.1795 -0.1490 -0.3518
17759THY     HO40038   6.789   7.768   6.990  1.8609 -0.4640 -0.2526
17759THY    CA140039   6.838   7.749   6.806  0.1576 -0.0225  0.1999
17759THY    CA240040   6.828   7.777   6.673 -0.7721 -0.5776 -0.3107
17759THY    CP140041   6.745   7.908   6.629 -0.4961  0.5044 -0.3565
17759THY    HP140042   6.730   7.979   6.711 -0.9115 -1.3122  1.7798
17759THY    CP240043   6.615   7.872   6.556 -0.2514 -0.2193 -0.2379
17759THY    HP240044   6.621   7.794   6.478 -0.2807 -0.4315 -0.0308
17759THY    HP340045   6.576   7.961   6.506 -1.2269  0.3723 -0.3223
17759THY    HP440046   6.541   7.846   6.632  1.4753  0.6154 -3.1902
17759THY    CP340047   6.844   7.980   6.529  0.4167 -0.6952  0.5163
17759THY    HP540048   6.813   8.085   6.526 -1.3549 -0.7773  0.0153
17759THY    HP640049   6.838   7.936   6.429  0.6153 -0.3609 -0.2765
17759THY    HP740050   6.947   7.978   6.568  0.0742  0.2053 -1.0507
17759THY    CA340051   6.900   7.701   6.580  0.1642  0.2217  0.1129
17759THY    HA340052   6.889   7.722   6.474 -1.8596  0.1200 -1.2579
17759THY    CA440053   6.981   7.595   6.623 -0.4195 -0.4507  0.0850
17759THY    HA440054   7.019   7.524   6.550 -0.3466  0.0222 -0.3709
17759THY    CA540055   6.995   7.572   6.761  0.7692  1.5350  0.7277
17759THY    CM140056   7.091   7.467   6.817  0.3294  0.0538 -0.8376
17759THY    HM140057   7.088   7.466   6.926  1.2523  0.1324  0.8116
17759THY    HM240058   7.196   7.476   6.787  0.3388 -1.0672 -3.7288
17759THY    HM340059   7.069   7.366   6.781 -0.3309 -1.0754 -0.3189
17759THY    CA640060   6.923   7.651   6.851  0.4506  0.3427  0.0249
17759THY    HA640061   6.932   7.652   6.959 -1.3671  0.5393  1.4171
17760THY      O40062   6.356   8.695   4.401 -0.2770 -0.2984  0.4164
17760THY     HO40063   6.428   8.642   4.439  1.3796 -3.0618  0.5032
17760THY    CA140064   6.403   8.819   4.437 -0.3498  0.0005  0.5240
17760THY    CA240065   6.320   8.925   4.440  0.1924  0.7213 -1.2920
17760THY    CP140066   6.169   8.910   4.410 -0.3325 -0.3864  0.2167
17760THY    HP140067   6.127   8.809   4.398 -3.8947  1.9629  1.2739
17760THY    CP240068   6.140   8.972   4.274  0.2734  0.6838 -0.2163
17760THY    HP240069   6.165   9.079   4.275  1.5630  0.3939 -0.4872
17760THY    HP340070   6.036   8.959   4.245 -0.2101  2.4708 -0.6044
17760THY    HP440071   6.202   8.938   4.190 -1.5551 -0.7911 -0.0001
17760THY    CP340072   6.094   8.968   4.527 -1.0756 -0.1058  0.2568
17760THY    HP540073   6.120   8.918   4.620  0.4188 -0.0426  1.0855
17760THY    HP640074   5.985   8.963   4.517 -1.2769  0.2234  2.6365
17760THY    HP740075   6.122   9.074   4.527 -0.1246 -2.4739  0.0892
17760THY    CA340076   6.370   9.057   4.469 -0.1291  1.0209  0.9446
17760THY    HA340077   6.301   9.141   4.465 -2.3220 -0.1718 -0.8150
17760THY    CA440078   6.511   9.073   4.501  0.1539 -0.3662 -0.2925
17760THY    HA440079   6.550   9.173   4.512  0.3553  0.1865 -0.4265
17760THY    CA540080   6.589   8.954   4.503  0.3018  0.1012 -0.7403
17760THY    CM140081   6.739   8.970   4.527 -0.0501 -0.5150  0.2570
17760THY    HM140082   6.786   9.025   4.445  0.6960 -0.0978  0.2440
17760THY    HM240083   6.792   8.875   4.540 -0.3498  1.2817  0.3097
17760THY    HM340084   6.766   9.023   4.619 -2.2163  0.5647 -0.3683
17760THY    CA640085   6.538   8.829   4.469  0.1179 -0.1220 -0.2806
17760THY    HA640086   6.606   8.745   4.476 -0.6052 -2.7048 -1.1869
17761THY      O40087   2.110   3.286   3.607 -0.0125 -0.1757  0.2109
17761THY     HO40088   2.154   3.372   3.596 -1.0583  1.1698  0.9687
17761THY    CA140089   2.205   3.189   3.592 -0.4021 -0.0628  0.3882
17761THY    CA240090   2.183   3.051   3.565  0.0132  0.2054 -0.7113
17761THY    CP140091   2.042   3.003   3.537  0.1261 -0.0987  0.3316
17761THY    HP140092   1.974   3.084   3.565  0.8174 -1.1446  1.3045
17761THY    CP240093   2.002   2.894   3.643 -0.2924  0.1901  0.0660
17761THY    HP240094   2.064   2.805   3.652 -0.9449 -0.4495 -0.4716
17761THY    HP340095   1.893   2.878   3.647 -0.3800 -1.4308  0.0976
17761THY    HP440096   2.033   2.927   3.742 -2.2320  0.7842  0.2286
17761THY    CP340097   2.020   2.971   3.390  0.4168 -0.0957 -0.1222
17761THY    HP540098   2.027   3.061   3.328 -3.1656 -3.0055 -1.6281
17761THY    HP640099   1.916   2.938   3.393  0.7981 -0.1149 -1.3451
17761THY    HP740100   2.088   2.896   3.350 -0.3250 -1.8769  0.1170
17761THY    CA340101   2.289   2.963   3.553 -0.3048  0.0604  0.5974
17761THY    HA340102   2.265   2.861   3.524 -0.1621 -1.6939  1.0318
17761THY    CA440103   2.421   3.002   3.584 -0.2978  0.1697  0.0645
17761THY    HA440104   2.497   2.927   3.567 -2.2351 -0.7730 -1.7900
17761THY    CA540105   2.444   3.136   3.622  0.7687  0.2248  0.5353
17761THY    CM140106   2.581   3.177   3.654  0.0250  0.2597  0.4420
17761THY    HM140107   2.597   3.285   3.662 -0.9049  0.8034  0.5433
17761THY    HM240108   2.648   3.122   3.587 -2.2497  0.2811 -2.6322
17761THY    HM340109   2.615   3.122   3.742 -0.5114 -0.3627 -0.9274
17761THY    CA640110   2.337   3.227   3.628 -0.2338  0.8232 -0.6258
17761THY    HA640111   2.358   3.325   3.670  0.5469 -0.1474 -0.3646
17762THY      O40112   5.608   2.172   4.957 -0.0995  0.4266 -0.4892
17762THY     HO40113   5.676   2.223   5.005  0.2577  0.3332 -0.8685
17762THY    CA140114   5.496   2.171   5.021  0.3236  0.3338 -0.0988
17762THY    CA240115   5.370   2.143   4.961  0.7323 -0.2653  0.1854
17762THY    CP140116   5.366   2.091   4.825 -0.2193 -0.6782  0.2333
17762THY    HP140117   5.447   2.135   4.765  0.5412  1.1108  1.3887
17762THY    CP240118   5.235   2.131   4.742  0.6024 -0.8537 -0.1081
17762THY    HP240119   5.201   2.233   4.759  0.6322 -2.0027  0.1022
17762THY    HP340120   5.150   2.070   4.773 -0.7194 -0.9901  1.6047
17762THY    HP440121   5.254   2.122   4.634 -0.8959 -1.3195  1.7496
17762THY    CP340122   5.383   1.944   4.809  0.9127 -1.0234 -0.0146
17762THY    HP540123   5.289   1.897   4.841 -0.6220 -3.0024  1.5462
17762THY    HP640124   5.480   1.907   4.846 -0.3800  0.4409 -2.1284
17762THY    HP740125   5.372   1.921   4.703 -4.2012 -0.6378 -0.3544
17762THY    CA340126   5.253   2.162   5.035 -1.3192 -0.2743  0.0060
17762THY    HA340127   5.151   2.135   5.013 -2.3071  2.6792  0.8791
17762THY    CA440128   5.260   2.197   5.166  0.6872 -0.8107 -0.8260
17762THY    HA440129   5.164   2.209   5.214  1.5602  0.3353  3.3751
17762THY    CA540130   5.385   2.228   5.224 -0.5698  0.6849  0.5008
17762THY    CM140131   5.393   2.256   5.368  1.0182 -0.3838  0.4534
17762THY    HM140132   5.302   2.311   5.397  0.4848 -0.5334 -0.3351
17762THY    HM240133   5.476   2.321   5.399 -0.6550  2.0107  1.6221
17762THY    HM340134   5.399   2.166   5.430 -0.0447 -0.0314  0.6047
17762THY    CA640135   5.501   2.205   5.155  0.1498  0.2587  0.6340
17762THY    HA640136   5.598   2.208   5.204  0.3687  0.0183 -1.2057
17763THY      O40137   7.285   2.497   3.986 -0.1017  0.1786 -0.1658
17763THY     HO40138   7.233   2.544   4.054 -0.2548 -0.6650  0.9315
17763THY    CA140139   7.298   2.380   4.052  0.1126 -0.0642  0.6693
17763THY    CA240140   7.271   2.260   3.983 -0.2036  0.2077  0.0285
17763THY    CP140141   7.218   2.267   3.842 -0.5892  0.8002  0.2946
17763THY    HP140142   7.250   2.361   3.795 -3.1847 -2.3251 -0.1974
17763THY    CP240143   7.065   2.275   3.851 -0.0229 -0.4921 -1.1390
17763THY    HP240144   7.027   2.373   3.878 -2.3263  3.0953 -2.8301
17763THY    HP340145   7.033   2.209   3.932  0.8540 -0.6600 -1.8081
17763THY    HP440146   7.018   2.243   3.757 -0.0379 -1.0977  0.5542
17763THY    CP340147   7.278   2.156   3.757  0.3099  0.0674 -0.3871
17763THY    HP540148   7.378   2.137   3.795  0.8520 -0.8482  0.5542
17763THY    HP640149   7.279   2.183   3.650  0.4573  0.5709  1.7670
17763THY    HP740150   7.226   2.061   3.777  0.3852 -0.5498 -0.5671
17763THY    CA340151   7.294   2.136   4.051 -0.0556  0.8081 -0.2412
17763THY    HA340152   7.278   2.040   4.002  1.6927  1.4632 -0.9051
17763THY    CA440153   7.335   2.141   4.185  0.6206  0.0750 -0.4839
17763THY    HA440154   7.345   2.048   4.242 -1.4657 -1.3431 -1.6534
17763THY    CA540155   7.344   2.263   4.257  0.3225  0.1075  0.8131
17763THY    CM140156   7.381   2.267   4.402  0.4696 -0.1996  0.1396
17763THY    HM140157   7.425   2.172   4.435 -1.9526 -0.4350 -1.1560
17763THY    HM240158   7.292   2.289   4.463 -0.7394 -1.8833  0.0607
17763THY    HM340159   7.456   2.343   4.425  0.7334  1.7421 -0.6324
17763THY    CA640160   7.328   2.379   4.184  0.0360  0.6150  0.4562
17763THY    HA640161   7.336   2.477   4.230  1.0158 -0.6798  1.0075
17764THY      O40162   4.331   2.694   6.218 -0.6307 -0.4462  0.7713
17764THY     HO40163   4.307   2.789   6.212 -2.1186 -1.5616  0.3629
17764THY    CA140164   4.220   2.620   6.198 -0.0745 -0.0884 -1.4915
17764THY    CA240165   4.217   2.479   6.198 -0.4005  0.1604  0.5479
17764THY    CP140166   4.352   2.402   6.222 -0.4450 -0.3735 -0.3358
17764THY    HP140167   4.441   2.459   6.191 -0.5476 -0.9148 -0.4621
17764THY    CP240168   4.362   2.276   6.134 -0.0472  0.2146 -0.8023
17764THY    HP240169   4.284   2.204   6.163 -1.7458 -1.8158  0.1127
17764THY    HP340170   4.466   2.246   6.151  1.8337 -0.9973  4.0125
17764THY    HP440171   4.357   2.316   6.032  2.7782  0.9418  1.8331
17764THY    CP340172   4.378   2.351   6.366 -0.5883  0.5827 -0.2873
17764THY    HP540173   4.302   2.277   6.393 -0.6825  0.3031 -0.2936
17764THY    HP640174   4.361   2.445   6.420 -2.3583 -0.2844 -0.0620
17764THY    HP740175   4.480   2.312   6.370 -0.6752 -0.9138 -0.7276
17764THY    CA340176   4.096   2.410   6.205  0.9671 -0.0533 -0.6647
17764THY    HA340177   4.090   2.302   6.216  0.6584 -0.0523 -0.6498
17764THY    CA440178   3.973   2.487   6.210  0.7993  0.1830 -0.4560
17764THY    HA440179   3.876   2.439   6.210 -0.0254  0.2855  1.1557
17764THY    CA540180   3.975   2.627   6.197  0.0854  0.3373 -0.1553
17764THY    CM140181   3.853   2.710   6.173  0.7562 -0.6247  0.8317
17764THY    HM140182   3.840   2.736   6.067 -1.4417 -0.9472 -1.1657
17764THY    HM240183   3.852   2.797   6.240  1.2858  2.6337 -1.4911
17764THY    HM340184   3.769   2.642   6.195  0.9884  1.3052  1.1277
17764THY    CA640185   4.100   2.692   6.192 -0.4084 -0.2695  0.0782
17764THY    HA640186   4.104   2.800   6.180  1.7815 -1.1957 -0.0540
17765THY      O40187   1.194   6.965   4.516  0.1069  0.3069  0.2466
17765THY     HO40188   1.174   7.043   4.570 -1.2122  0.5128 -0.1967
17765THY    CA140189   1.171   6.856   4.591  0.1354  0.4497  0.5908
17765THY    CA240190   1.136   6.731   4.525 -0.6437 -0.3286  0.0269
17765THY    CP140191   1.145   6.713   4.372 -0.1064 -0.1940 -0.1037
17765THY    HP140192   1.239   6.760   4.340  0.1575 -0.5791 -0.8896
17765THY    CP240193   1.032   6.791   4.283 -0.5122  0.6345  0.9108
17765THY    HP240194   0.999   6.890   4.315 -0.2361  2.7599  0.3689
17765THY    HP340195   0.941   6.730   4.289  0.3624 -0.1186 -0.5445
17765THY    HP440196   1.055   6.805   4.177 -2.8644  0.1117  1.2365
17765THY    CP340197   1.177   6.572   4.320 -0.2187 -1.1138 -0.1981
17765THY    HP540198   1.263   6.533   4.375 -2.1178  1.2806 -1.2608
17765THY    HP640199   1.183   6.577   4.210  0.1790 -1.1875 -1.6810
17765THY    HP740200   1.091   6.505   4.334 -0.2029 -1.3375 -0.2661
17765THY    CA340201   1.083   6.629   4.610  0.4690 -0.5856  0.2652
17765THY    HA340202   1.038   6.539   4.569 -0.6721  1.9558 -0.4262
17765THY    CA440203   1.083   6.643   4.754 -0.5735 -0.0056 -0.0255
17765THY    HA440204   1.045   6.564   4.818 -2.4668  0.0716  0.9118
17765THY    CA540205   1.112   6.769   4.808 -0.1451  0.5187 -0.0906
17765THY    CM140206   1.101   6.779   4.960 -0.0832 -0.4948 -0.8203
17765THY    HM140207   1.138   6.684   5.001 -1.4417  0.6919 -0.8632
17765THY    HM240208   1.000   6.784   5.002  0.1125  0.0226 -1.1101
17765THY    HM340209   1.151   6.866   5.004 -3.1718 -0.7013  1.2202
17765THY    CA640210   1.155   6.873   4.725  0.6837 -0.4866 -0.3569
17765THY    HA640211   1.170   6.971   4.768  1.5809  0.5980 -0.9441
17766THY      O40212   3.786   3.518   1.984  0.5287  0.5980  0.5153
17766THY     HO40213   3.824   3.463   2.054 -2.1103  0.3316 -1.8335
17766THY    CA140214   3.799   3.454   1.865 -0.2802 -0.3741  0.5864
17766THY    CA240215   3.746   3.507   1.748 -0.8221 -0.8802 -0.7973
17766THY    CP140216   3.681   3.648   1.748  0.3171 -0.1183  0.4142
17766THY    HP140217   3.632   3.661   1.845 -1.4711 -0.8638 -0.4393
17766THY    CP240218   3.571   3.665   1.640 -0.0625  0.5157 -0.0386
17766THY    HP240219   3.510   3.753   1.662 -1.8674 -2.1089 -0.5324
17766THY    HP340220   3.497   3.585   1.631 -0.6771  0.4084  0.5311
17766THY    HP440221   3.612   3.685   1.541  1.8988  1.4511  0.8232
17766THY    CP340222   3.791   3.757   1.730 -0.0876  0.8859 -0.2070
17766THY    HP540223   3.856   3.719   1.651 -0.1835  0.1010  1.1626
17766THY    HP640224   3.858   3.763   1.817  1.4569 -0.2663 -0.2650
17766THY    HP740225   3.746   3.854   1.703 -1.2035  1.5873 -0.4985
17766THY    CA340226   3.765   3.435   1.630  0.2306 -0.5928  0.2742
17766THY    HA340227   3.732   3.478   1.536 -1.6190 -0.0956  0.0361
17766THY    CA440228   3.828   3.309   1.635 -0.1865  0.0687  0.6334
17766THY    HA440229   3.840   3.249   1.546 -0.2112  2.1367 -2.6581
17766THY    CA540230   3.885   3.259   1.751  0.5698  0.2045 -0.7148
17766THY    CM140231   3.954   3.122   1.743  0.1492  0.1921  0.0985
17766THY    HM140232   4.046   3.135   1.802  0.7068 -0.7040  0.3422
17766THY    HM240233   3.988   3.087   1.645  0.0797  0.2777 -0.2032
17766THY    HM340234   3.890   3.042   1.782  1.1652 -0.5911 -1.1361
17766THY    CA640235   3.866   3.329   1.871  0.1263  0.2464  0.4074
17766THY    HA640236   3.906   3.291   1.964 -1.7331  0.1811 -2.0245
17767THY      O40237   3.813   6.078   3.244 -0.4796  0.1945  0.5730
17767THY     HO40238   3.870   6.143   3.200 -0.2595 -1.6066 -0.7437
17767THY    CA140239   3.692   6.082   3.181  0.5618 -0.4153  0.2019
17767THY    CA240240   3.640   5.965   3.125 -0.6562  0.4573  0.3288
17767THY    CP140241   3.722   5.827   3.135 -0.1093 -0.1814 -0.4916
17767THY    HP140242   3.817   5.840   3.188  0.8929 -1.6175 -1.6326
17767THY    CP240243   3.762   5.781   2.990  0.3855 -0.0013 -0.2209
17767THY    HP240244   3.675   5.781   2.923  0.4752 -0.1193 -0.7711
17767THY    HP340245   3.813   5.684   2.993 -0.3101 -1.7962 -0.6878
17767THY    HP440246   3.823   5.863   2.950  2.2750  0.7309 -1.2123
17767THY    CP340247   3.636   5.717   3.203  0.0067  0.8143  0.5865
17767THY    HP540248   3.544   5.683   3.155  0.1150 -0.0274  1.4377
17767THY    HP640249   3.628   5.737   3.311  0.0270  0.5736  2.0235
17767THY    HP740250   3.685   5.619   3.201  0.1030  2.9680  0.5447
17767THY    CA340251   3.513   5.966   3.072 -0.1749 -0.0758  0.5937
17767THY    HA340252   3.468   5.875   3.034  1.4658  0.3535 -0.4452
17767THY    CA440253   3.448   6.094   3.063  0.3687  0.2913  0.3082
17767THY    HA440254   3.349   6.101   3.019 -0.3787  1.8575  0.0622
17767THY    CA540255   3.509   6.210   3.112  0.2029  0.1931  0.5808
17767THY    CM140256   3.448   6.342   3.095 -0.6351  0.3394 -0.1428
17767THY    HM140257   3.387   6.367   3.182  1.1938  1.0428  2.2173
17767THY    HM240258   3.386   6.330   3.005 -2.1944  1.2719  0.5294
17767THY    HM340259   3.526   6.415   3.071 -0.2677  2.6738  0.3035
17767THY    CA640260   3.628   6.206   3.173 -0.0577  0.2360  0.1671
17767THY    HA640261   3.670   6.294   3.221  1.4896 -0.7489  0.0117
17768THY      O40262   7.902   1.223   3.291  0.0152 -0.4006  0.5031
17768THY     HO40263   7.990   1.246   3.256 -0.2066 -0.7752  0.7937
17768THY    CA140264   7.839   1.340   3.279  0.2234  0.6510 -0.2506
17768THY    CA240265   7.694   1.350   3.268 -0.2110 -0.3446 -1.2609
17768THY    CP140266   7.608   1.218   3.248 -0.0776 -0.5969 -0.3606
17768THY    HP140267   7.654   1.128   3.290 -1.1415  3.3643  0.7685
17768THY    CP240268   7.575   1.211   3.100  0.6685 -0.1567  0.4748
17768THY    HP240269   7.558   1.312   3.062  0.1414 -0.1420  0.3967
17768THY    HP340270   7.487   1.149   3.078  1.0030 -1.6692  0.4951
17768THY    HP440271   7.660   1.174   3.041  1.4348  0.9336  0.4430
17768THY    CP340272   7.476   1.216   3.330 -0.0138 -0.3355  0.6901
17768THY    HP540273   7.418   1.123   3.319  0.8988  0.9179 -0.0550
17768THY    HP640274   7.413   1.297   3.290 -0.0619  1.3423  1.5203
17768THY    HP740275   7.514   1.211   3.433  2.0990 -1.1092 -0.8363
17768THY    CA340276   7.633   1.481   3.258 -0.2000  0.0390 -0.2414
17768THY    HA340277   7.525   1.490   3.250 -0.0047 -1.0084  2.0008
17768THY    CA440278   7.724   1.590   3.245  0.3154  0.6493 -0.1990
17768THY    HA440279   7.670   1.684   3.250  1.6177  0.3165  0.5936
17768THY    CA540280   7.860   1.583   3.250 -0.1454 -0.0307 -0.4032
17768THY    CM140281   7.950   1.713   3.245  0.2861 -0.0282  0.4125
17768THY    HM140282   7.938   1.773   3.155  0.4886 -0.1718  0.2410
17768THY    HM240283   8.056   1.682   3.250 -0.5560  2.3514 -2.6522
17768THY    HM340284   7.933   1.772   3.336 -1.9623  1.1787 -1.8889
17768THY    CA640285   7.916   1.458   3.261  0.6801 -0.6312 -0.0734
17768THY    HA640286   8.024   1.452   3.265  0.8167 -1.2918  1.5141
17769THY      O40287   5.921   7.273   2.581 -0.2294 -0.4680 -0.8462
17769THY     HO40288   5.926   7.363   2.618  0.3727 -2.5959  0.0701
17769THY    CA140289   5.796   7.222   2.608  0.6507 -0.1285  1.0857
17769THY    CA240290   5.755   7.091   2.571  0.4862  0.2326 -0.0681
17769THY    CP140291   5.849   7.009   2.480 -0.3116  0.1030 -0.5923
17769THY    HP140292   5.948   7.055   2.473 -0.8464 -3.1770  0.3524
17769THY    CP240293   5.789   7.006   2.339 -0.1356  0.2840 -0.1803
17769THY    HP240294   5.684   6.974   2.343 -0.3698  0.3274  0.5742
17769THY    HP340295   5.853   6.943   2.277 -1.2395 -1.8730  0.7465
17769THY    HP440296   5.798   7.108   2.302  1.7061  0.1137 -0.3764
17769THY    CP340297   5.859   6.867   2.528 -0.2868 -0.0880 -0.8549
17769THY    HP540298   5.760   6.820   2.524 -0.1839  0.0247 -1.0838
17769THY    HP640299   5.890   6.857   2.632  0.8242 -0.5072 -2.0462
17769THY    HP740300   5.925   6.799   2.472 -0.1143 -0.2223 -0.5814
17769THY    CA340301   5.629   7.042   2.617 -0.3731 -0.0424 -0.2643
17769THY    HA340302   5.594   6.945   2.582  1.4004 -1.8470 -0.3268
17769THY    CA440303   5.546   7.130   2.690 -0.2484 -0.7294 -0.4261
17769THY    HA440304   5.447   7.095   2.718  0.1280  0.8233 -0.3317
17769THY    CA540305   5.587   7.256   2.730 -0.4364  0.4278  0.7614
17769THY    CM140306   5.493   7.341   2.799  0.2157  0.4416  1.0621
17769THY    HM140307   5.456   7.289   2.888 -1.7223 -0.5314  0.6632
17769THY    HM240308   5.418   7.367   2.724  0.1210  0.6292  1.3435
17769THY    HM340309   5.544   7.431   2.835  2.7739  0.0977 -0.1606
17769THY    CA640310   5.716   7.297   2.689 -0.2270 -0.1812 -0.4618
17769THY    HA640311   5.752   7.398   2.707 -2.8899  0.6444  0.4191
17770THY      O40312   1.970   5.930   3.256 -0.1599  0.3569  0.6975
17770THY     HO40313   2.009   6.014   3.224 -0.9099  0.2994  1.0347
17770THY    CA140314   1.843   5.955   3.289  0.8009 -0.5726  0.3618
17770THY    CA240315   1.762   5.857   3.348  0.7187  0.6531  0.1611
17770THY    CP140316   1.818   5.725   3.391  0.6401  0.7679  0.3166
17770THY    HP140317   1.927   5.719   3.380  0.6505  1.3337 -0.8267
17770THY    CP240318   1.753   5.610   3.305  0.2535  0.1019 -0.2468
17770THY    HP240319   1.741   5.645   3.202 -1.1703  1.0542  2.4145
17770THY    HP340320   1.650   5.590   3.337  0.7438  0.6083 -2.1204
17770THY    HP440321   1.817   5.525   3.328 -0.0835  1.3995 -0.1822
17770THY    CP340322   1.790   5.709   3.537  0.2961 -0.0087 -0.5097
17770THY    HP540323   1.683   5.703   3.563  0.5130  1.3847  0.9301
17770THY    HP640324   1.840   5.785   3.598  2.9141 -2.2016 -0.3369
17770THY    HP740325   1.829   5.612   3.572 -0.6326 -0.3425 -1.0126
17770THY    CA340326   1.628   5.886   3.367  0.3121  0.1831 -0.3413
17770THY    HA340327   1.563   5.810   3.409  1.1950 -1.2573 -1.9547
17770THY    CA440328   1.572   6.012   3.337 -0.7828 -0.9931  0.1642
17770THY    HA440329   1.468   6.034   3.362 -1.2098 -1.7278 -0.8975
17770THY    CA540330   1.649   6.104   3.282 -0.3834 -0.4597 -0.3589
17770THY    CM140331   1.599   6.237   3.244  0.9657 -0.0410 -0.3688
17770THY    HM140332   1.565   6.300   3.327 -0.9510 -1.0782  0.0486
17770THY    HM240333   1.516   6.228   3.173  0.4356  0.4344  0.5704
17770THY    HM340334   1.683   6.291   3.199 -0.1485 -1.0843  0.5629
17770THY    CA640335   1.784   6.076   3.249  0.0446 -0.1146  0.0143
17770THY    HA640336   1.845   6.157   3.209 -1.3367 -2.7698 -0.1383
17771THY      O40337   4.571   3.373   4.309 -0.1709  0.2001  0.1894
17771THY     HO40338   4.638   3.363   4.240 -0.1157  0.1111  1.1426
17771THY    CA140339   4.458   3.417   4.247  0.3421 -0.3783  0.5649
17771THY    CA240340   4.353   3.470   4.320  0.6261  0.1104 -0.8991
17771THY    CP140341   4.361   3.490   4.477  0.2298  0.0600  0.2446
17771THY    HP140342   4.461   3.465   4.514  0.2920 -0.8188 -0.8932
17771THY    CP240343   4.260   3.396   4.557 -0.2962 -0.2913  0.2115
17771THY    HP240344   4.159   3.433   4.535 -0.7296 -2.0275 -1.8466
17771THY    HP340345   4.285   3.391   4.663  1.9393 -0.8297 -1.3464
17771THY    HP440346   4.249   3.294   4.519 -2.5063 -0.9208  0.6297
17771THY    CP340347   4.333   3.633   4.517  0.2471  0.1978  0.4502
17771THY    HP540348   4.371   3.649   4.618  0.3296  0.4905 -1.4224
17771THY    HP640349   4.225   3.653   4.509  0.1328 -3.2980 -0.8670
17771THY    HP740350   4.393   3.701   4.455 -0.6470 -1.3280 -0.0860
17771THY    CA340351   4.249   3.528   4.243  0.1884  0.1214  0.2617
17771THY    HA340352   4.174   3.583   4.298 -0.9438 -2.3677  1.3599
17771THY    CA440353   4.244   3.498   4.106 -0.8416 -0.5369 -0.2287
17771THY    HA440354   4.173   3.543   4.038  0.3501 -0.8760  1.2053
17771THY    CA540355   4.342   3.430   4.044 -0.1064  0.5519  0.3301
17771THY    CM140356   4.344   3.422   3.894 -0.1293 -0.4076  0.0317
17771THY    HM140357   4.402   3.335   3.860  1.0015 -0.3641  0.7532
17771THY    HM240358   4.394   3.507   3.847 -1.0834 -3.9980 -1.2159
17771THY    HM340359   4.241   3.406   3.859 -0.2093  1.0591 -3.8235
17771THY    CA640360   4.452   3.383   4.115  0.1915 -0.0188 -0.3253
17771THY    HA640361   4.533   3.338   4.058 -2.1193 -1.4977 -2.9295
17772THY      O40362   7.247   6.094   5.602 -1.1813 -0.5245 -0.4100
17772THY     HO40363   7.221   6.181   5.567  1.3476  0.7606  0.9681
17772THY    CA140364   7.253   6.118   5.737  0.9290  0.4010 -0.3137
17772THY    CA240365   7.253   6.011   5.825 -0.4290 -0.3845  0.0418
17772THY    CP140366   7.297   5.878   5.773 -0.3875  0.5034 -0.1102
17772THY    HP140367   7.283   5.868   5.665  0.1942  0.1476  2.1670
17772THY    CP240368   7.230   5.755   5.827 -0.3242 -0.4033  0.2164
17772THY    HP240369   7.124   5.757   5.797 -0.5561  0.3486 -0.1979
17772THY    HP340370   7.231   5.735   5.935  1.0218 -0.9584 -3.4943
17772THY    HP440371   7.279   5.667   5.784 -0.1662 -0.1129  0.1595
17772THY    CP340372   7.457   5.868   5.783  0.0359  0.5168 -0.3899
17772THY    HP540373   7.498   5.794   5.713  0.6971  0.3633  0.1111
17772THY    HP640374   7.484   5.847   5.887 -1.8127  1.8603  3.0175
17772THY    HP740375   7.504   5.963   5.756 -0.4714 -0.9809 -0.5386
17772THY    CA340376   7.249   6.038   5.965 -0.3453 -0.3470  0.3197
17772THY    HA340377   7.249   5.955   6.035  0.0856  1.5159  1.8273
17772THY    CA440378   7.235   6.170   6.013 -0.7382  0.2764  0.2443
17772THY    HA440379   7.238   6.186   6.121 -1.1028  0.1714  1.0767
17772THY    CA540380   7.226   6.274   5.923 -0.1861 -0.5271 -0.1267
17772THY    CM140381   7.190   6.411   5.974  0.8519 -0.1305  0.1343
17772THY    HM140382   7.081   6.421   5.975  0.9613 -0.6937  1.5514
17772THY    HM240383   7.234   6.478   5.899  1.6266 -1.3810 -1.6771
17772THY    HM340384   7.236   6.442   6.068  1.3679 -0.5719  0.7425
17772THY    CA640385   7.245   6.250   5.784  0.5555  0.7286 -0.2592
17772THY    HA640386   7.247   6.326   5.707  1.5852 -1.2568 -2.1898
17773THY      O40387   8.099   0.897   6.170  0.1021 -0.4286  0.7720
17773THY     HO40388   8.178   0.902   6.113  1.0740  0.2583 -3.2963
17773THY    CA140389   8.135   0.956   6.283  0.3081  0.1349  0.5456
17773THY    CA240390   8.102   0.902   6.411  1.0426 -0.1831 -0.2231
17773THY    CP140391   8.035   0.768   6.419 -0.4512  0.6025 -0.3801
17773THY    HP140392   8.046   0.724   6.320 -0.0249 -1.0856  3.1463
17773THY    CP240393   7.884   0.764   6.433  0.0561  0.1019  0.0377
17773THY    HP240394   7.835   0.675   6.393  0.2824 -0.4940  0.1780
17773THY    HP340395   7.833   0.850   6.390 -1.5554  1.4979 -0.1610
17773THY    HP440396   7.846   0.783   6.535 -2.3017 -0.7337  0.1552
17773THY    CP340397   8.105   0.667   6.514 -0.2045 -0.5729  0.4297
17773THY    HP540398   8.098   0.563   6.482 -4.0090 -2.4421  1.1055
17773THY    HP640399   8.064   0.664   6.615  1.6083  0.2012  0.0817
17773THY    HP740400   8.214   0.675   6.521 -0.3730  1.5760  1.4560
17773THY    CA340401   8.135   0.976   6.530 -0.1053  0.0255 -0.7289
17773THY    HA340402   8.098   0.944   6.627  1.6849  0.6525 -0.9852
17773THY    CA440403   8.225   1.087   6.511  0.2046 -0.1776  0.1902
17773THY    HA440404   8.258   1.150   6.593 -1.6678 -0.7147  1.9873
17773THY    CA540405   8.252   1.140   6.384 -0.4827 -0.2017  0.4097
17773THY    CM140406   8.340   1.265   6.365 -0.4255  1.0177 -0.2746
17773THY    HM140407   8.266   1.332   6.319 -1.1919  0.7710 -1.2616
17773THY    HM240408   8.424   1.255   6.296  0.4832  2.1322 -0.5622
17773THY    HM340409   8.370   1.307   6.462  0.0827  0.5324  0.4900
17773THY    CA640410   8.214   1.065   6.276  0.3438  1.0851 -0.5558
17773THY    HA640411   8.249   1.101   6.179  0.2801  0.8963 -0.9977
17774THY      O40412   8.029   2.377   7.245 -0.1782 -0.2315  0.1770
17774THY     HO40413   8.099   2.405   7.183  2.1588  2.5993  1.0983
17774THY    CA140414   8.082   2.281   7.323 -0.4451 -0.1185  0.1296
17774THY    CA240415   8.018   2.230   7.440 -0.4612  0.7564 -0.9863
17774THY    CP140416   7.883   2.288   7.479  0.3282 -0.3636  0.0667
17774THY    HP140417   7.859   2.374   7.416  1.0234 -1.0397 -0.2288
17774THY    CP240418   7.889   2.355   7.622  0.1817 -0.1339 -0.1759
17774THY    HP240419   7.949   2.293   7.689  0.0661  1.2095  1.1160
17774THY    HP340420   7.789   2.366   7.666  0.9944  1.4893  1.1139
17774THY    HP440421   7.941   2.452   7.617 -0.7570 -1.4042  0.2994
17774THY    CP340422   7.761   2.182   7.469 -0.1770 -0.2646 -1.0974
17774THY    HP540423   7.661   2.222   7.489 -0.0516 -0.6393 -0.5948
17774THY    HP640424   7.776   2.109   7.550 -0.8985 -0.2117 -1.1923
17774THY    HP740425   7.749   2.145   7.366 -1.9824 -0.3020 -0.5194
17774THY    CA340426   8.090   2.127   7.518 -0.2856 -0.1239  0.1668
17774THY    HA340427   8.032   2.080   7.597  0.3072 -0.2606 -0.8070
17774THY    CA440428   8.220   2.086   7.487 -0.2320  0.2883  0.6460
17774THY    HA440429   8.271   2.013   7.549  1.4194 -0.0139  1.4903
17774THY    CA540430   8.283   2.151   7.382  0.5522  0.4627 -0.4755
17774THY    CM140431   8.428   2.121   7.340 -0.4719  0.2954 -0.5160
17774THY    HM140432   8.458   2.200   7.271 -2.8552 -0.1905  0.0609
17774THY    HM240433   8.435   2.030   7.280 -0.8528 -1.5497  0.6111
17774THY    HM340434   8.498   2.111   7.423 -0.6305  0.4212 -0.5978
17774THY    CA640435   8.215   2.245   7.295 -0.2160 -0.1261 -0.3326
17774THY    HA640436   8.271   2.296   7.217 -0.1977 -0.3536 -0.6958
17775THY      O40437   4.960   7.106   4.547  0.2951  0.1191  0.1934
17775THY     HO40438   4.875   7.153   4.551 -0.1913  2.0063 -0.7816
17775THY    CA140439   5.012   7.155   4.428  0.7053 -0.7790  0.2075
17775THY    CA240440   5.144   7.139   4.399 -0.7758 -0.1911  0.0505
17775THY    CP140441   5.245   7.067   4.484 -0.0593 -0.2466  0.0726
17775THY    HP140442   5.197   7.021   4.571 -3.6174 -1.1728  1.7014
17775THY    CP240443   5.355   7.179   4.512  0.0003  0.4727  0.9717
17775THY    HP240444   5.309   7.278   4.515 -2.0812  0.7794  0.0594
17775THY    HP340445   5.442   7.183   4.446  0.4107  1.0858  4.2252
17775THY    HP440446   5.397   7.148   4.609 -1.3890  0.4035 -1.4121
17775THY    CP340447   5.294   6.946   4.397 -0.2551 -0.2686 -0.3213
17775THY    HP540448   5.374   6.905   4.459 -0.0974 -1.1046 -1.3245
17775THY    HP640449   5.330   6.974   4.297 -0.5485 -0.2443  0.1616
17775THY    HP740450   5.206   6.881   4.397 -1.6381 -0.4902  1.4460
17775THY    CA340451   5.202   7.202   4.282  0.2402  0.1423  0.3556
17775THY    HA340452   5.307   7.201   4.252  0.3528  0.2238 -2.9780
17775THY    CA440453   5.114   7.269   4.191  0.0972 -0.4926 -0.8120
17775THY    HA440454   5.148   7.321   4.102 -2.7469 -0.0771  2.1457
17775THY    CA540455   4.976   7.283   4.224  0.0098 -0.8193 -0.1614
17775THY    CM140456   4.887   7.369   4.144 -0.2861 -0.7553  0.4169
17775THY    HM140457   4.781   7.359   4.172 -0.3208 -1.1007 -0.2287
17775THY    HM240458   4.910   7.348   4.039 -0.0308 -0.6578  0.2044
17775THY    HM340459   4.916   7.473   4.162 -3.2747  1.0895  1.0625
17775THY    CA640460   4.925   7.220   4.338 -0.0399  0.4349 -0.1320
17775THY    HA640461   4.819   7.224   4.361  0.3908  2.4962  1.6651
17776THY      O40462   1.893   8.418   2.396 -0.1800  0.5019 -0.6676
17776THY     HO40463   1.975   8.458   2.363 -0.4979 -0.1791 -0.5656
17776THY    CA140464   1.800   8.438   2.314  0.7218  0.1921 -0.1520
17776THY    CA240465   1.667   8.460   2.357 -0.2901 -0.2219 -0.1731
17776THY    CP140466   1.631   8.424   2.497  0.5097 -1.0423  0.0026
17776THY    HP140467   1.701   8.349   2.536 -0.5361  0.6411 -0.1524
17776THY    CP240468   1.506   8.342   2.503  0.6173 -0.2564  0.2143
17776THY    HP240469   1.423   8.413   2.502  2.0110  0.6466  1.9354
17776THY    HP340470   1.502   8.295   2.602  2.1579  0.0908  0.7835
17776THY    HP440471   1.487   8.269   2.423 -0.3546  0.2496 -0.1127
17776THY    CP340472   1.616   8.548   2.581  0.4006  0.4222 -0.5684
17776THY    HP540473   1.700   8.617   2.569 -0.9586 -0.4344  1.0182
17776THY    HP640474   1.590   8.529   2.686 -1.6063 -0.0701 -0.7988
17776THY    HP740475   1.532   8.607   2.543  0.5459 -0.6380 -1.0314
17776THY    CA340476   1.572   8.512   2.264  0.9619 -0.0294  0.5205
17776THY    HA340477   1.470   8.533   2.294  1.0724  2.2080 -1.6516
17776THY    CA440478   1.605   8.527   2.131 -1.2964  0.6639  0.1503
17776THY    HA440479   1.528   8.558   2.061 -3.2172  1.5647 -2.2705
17776THY    CA540480   1.737   8.504   2.086  0.2237  0.0560  1.1209
17776THY    CM140481   1.787   8.531   1.939  0.0309 -0.1557  0.4527
17776THY    HM140482   1.710   8.487   1.875  2.3569 -2.3805 -0.6040
17776THY    HM240483   1.884   8.488   1.915 -0.2330 -1.9954  0.7962
17776THY    HM340484   1.786   8.639   1.922 -1.8799 -1.2808  0.2992
17776THY    CA640485   1.833   8.461   2.183 -0.9686  0.4892  0.3521
17776THY    HA640486   1.932   8.435   2.145 -1.2438  0.2860 -0.4323
17777THY      O40487   3.242   4.062   6.954 -0.0765  0.2837  0.5208
17777THY     HO40488   3.210   4.094   6.868  1.2874  0.0319  1.2996
17777THY    CA140489   3.291   4.170   7.005  0.6537 -0.0534  0.0572
17777THY    CA240490   3.299   4.180   7.152  0.5892 -0.0542 -0.1296
17777THY    CP140491   3.270   4.063   7.239  0.7064  0.1050  0.0759
17777THY    HP140492   3.208   3.990   7.186 -0.0213  0.3513  0.5034
17777THY    CP240493   3.196   4.092   7.372  0.4508  0.9222  0.2199
17777THY    HP240494   3.239   4.179   7.424  0.7076 -2.0514  1.9950
17777THY    HP340495   3.200   4.014   7.449 -0.9287 -0.4314 -1.2602
17777THY    HP440496   3.092   4.120   7.351  1.4335  0.4010  4.0851
17777THY    CP340497   3.397   3.984   7.273 -0.0326 -0.0307 -0.1510
17777THY    HP540498   3.447   4.024   7.362 -1.6026  1.8661 -2.1599
17777THY    HP640499   3.456   3.994   7.181 -0.7194 -0.3922  0.7249
17777THY    HP740500   3.361   3.882   7.289 -0.8099 -2.1073 -0.2529
17777THY    CA340501   3.328   4.313   7.209  0.5219  0.1897  0.0900
17777THY    HA340502   3.321   4.329   7.317 -1.4815  0.5336 -2.4709
17777THY    CA440503   3.340   4.425   7.125 -0.0808  0.0235  0.6350
17777THY    HA440504   3.358   4.525   7.165  1.7476  1.0573 -0.0737
17777THY    CA540505   3.338   4.411   6.982 -0.1285 -1.0149 -0.6439
17777THY    CM140506   3.344   4.540   6.900  0.3865  0.3130 -0.1481
17777THY    HM140507   3.446   4.578   6.903  0.5951  2.1574 -0.7493
17777THY    HM240508   3.291   4.617   6.956  1.9934  1.2863  0.2903
17777THY    HM340509   3.296   4.521   6.803 -1.4763  0.9766  0.8964
17777THY    CA640510   3.307   4.289   6.926  0.2622 -0.5919  0.8599
17777THY    HA640511   3.293   4.286   6.818  2.6089 -1.1203  3.5094
17778THY      O40512   7.870   2.497   5.774 -0.7712  0.0435  0.0242
17778THY     HO40513   7.800   2.564   5.772  1.7168  2.4692  2.9337
17778THY    CA140514   7.826   2.388   5.706  0.1580 -0.6465 -0.6374
17778THY    CA240515   7.923   2.293   5.671 -0.0157 -0.2595  0.0298
17778THY    CP140516   8.066   2.303   5.720 -0.6167 -0.0446 -0.3692
17778THY    HP140517   8.074   2.351   5.817 -2.0106 -0.2629  0.3345
17778THY    CP240518   8.145   2.365   5.601 -0.3920  0.5325  0.0898
17778THY    HP240519   8.098   2.457   5.563 -1.9704  1.7552 -0.1586
17778THY    HP340520   8.142   2.287   5.524  1.0283  1.3147 -0.7585
17778THY    HP440521   8.249   2.388   5.627  0.0547 -0.4048 -0.8099
17778THY    CP340522   8.129   2.163   5.740  1.1579 -0.5745 -0.5078
17778THY    HP540523   8.057   2.110   5.803 -0.0026 -1.0813  0.4095
17778THY    HP640524   8.217   2.172   5.805  1.3810 -1.0101  0.6778
17778THY    HP740525   8.149   2.108   5.647  0.3279 -2.2759  1.8803
17778THY    CA340526   7.876   2.183   5.597  0.5749  0.0396  1.3838
17778THY    HA340527   7.944   2.109   5.557  0.6004  0.4675  1.1690
17778THY    CA440528   7.739   2.185   5.556 -0.0725  0.0431  0.4687
17778THY    HA440529   7.718   2.096   5.496 -0.1696  0.1826  0.3964
17778THY    CA540530   7.651   2.279   5.593  1.0512 -0.0308 -0.2856
17778THY    CM140531   7.502   2.268   5.549  0.8751 -0.8931  0.2185
17778THY    HM140532   7.476   2.167   5.517  1.1264 -0.2670 -0.0516
17778THY    HM240533   7.490   2.346   5.473  0.1207  0.7839  1.8278
17778THY    HM340534   7.445   2.302   5.636 -1.5997 -2.5125  0.4403
17778THY    CA640535   7.694   2.383   5.678 -0.0813 -0.3531  0.1113
17778THY    HA640536   7.617   2.456   5.701 -1.7425  0.5570 -1.8496
17779THY      O40537   6.866   1.315   4.116  0.3820  0.7541  0.6860
17779THY     HO40538   6.885   1.259   4.039 -0.8099  1.0229 -0.1249
17779THY    CA140539   6.760   1.260   4.163 -0.2119 -0.3371  0.5843
17779THY    CA240540   6.690   1.308   4.275 -0.1468  0.2421 -0.0762
17779THY    CP140541   6.733   1.441   4.340  0.7296 -0.1743  0.2737
17779THY    HP140542   6.793   1.499   4.269 -0.4921 -1.6205 -0.1618
17779THY    CP240543   6.812   1.416   4.471  0.1945  0.2462  0.1590
17779THY    HP240544   6.828   1.514   4.516  0.1608 -0.7431  0.6291
17779THY    HP340545   6.909   1.368   4.451 -0.2427  0.6458 -0.9310
17779THY    HP440546   6.748   1.357   4.537 -0.5550 -1.5176 -1.0866
17779THY    CP340547   6.611   1.532   4.359 -0.0173  1.1064  0.2765
17779THY    HP540548   6.536   1.511   4.282  2.5897 -0.8826 -2.5450
17779THY    HP640549   6.647   1.634   4.376  2.3696  3.1877 -0.7992
17779THY    HP740550   6.570   1.493   4.453 -2.1459 -0.3059 -1.0641
17779THY    CA340551   6.581   1.240   4.329  0.5635  0.0655  0.0817
17779THY    HA340552   6.514   1.283   4.402  0.5873  1.0673 -1.4968
17779THY    CA440553   6.546   1.119   4.267  0.3050  0.1329  0.6217
17779THY    HA440554   6.455   1.071   4.301  0.3324 -1.3735 -0.5850
17779THY    CA540555   6.617   1.065   4.153 -0.7709 -0.2756 -0.5110
17779THY    CM140556   6.581   0.936   4.102  0.5147 -0.0208 -0.5615
17779THY    HM140557   6.603   0.848   4.165  1.1554 -1.9432 -1.8352
17779THY    HM240558   6.629   0.921   4.005  0.9396  0.2718 -1.1593
17779THY    HM340559   6.472   0.934   4.089  0.5204 -0.0932 -0.3972
17779THY    CA640560   6.719   1.146   4.099 -0.4524 -1.1518  0.3550
17779THY    HA640561   6.776   1.101   4.018  0.7857 -0.2793  0.3240
17780THY      O40562   3.697   1.899   5.353  0.0937 -0.5221 -0.4972
17780THY     HO40563   3.685   1.848   5.434  0.2035 -1.8075 -2.7119
17780THY    CA140564   3.597   1.993   5.346  0.0734 -0.8418 -0.2148
17780THY    CA240565   3.596   2.105   5.259  0.0333  0.0078 -0.3327
17780THY    CP140566   3.701   2.128   5.154  0.1021 -0.0767  0.0399
17780THY    HP140567   3.789   2.067   5.182 -0.3661  0.2112 -0.5170
17780THY    CP240568   3.759   2.274   5.146  0.4639  0.3091 -0.0408
17780THY    HP240569   3.696   2.343   5.087 -0.0874 -0.8377 -1.4735
17780THY    HP340570   3.847   2.261   5.082 -0.1998 -0.5921 -0.1753
17780THY    HP440571   3.787   2.322   5.240 -0.8633  0.4339  0.5551
17780THY    CP340572   3.644   2.068   5.020  0.1445 -0.7885 -0.0681
17780THY    HP540573   3.556   2.127   4.993  1.6601 -1.4248  2.0260
17780THY    HP640574   3.625   1.960   5.021  3.5202 -2.3495 -0.8073
17780THY    HP740575   3.724   2.089   4.948  2.5177  1.1437 -1.8782
17780THY    CA340576   3.495   2.206   5.269  0.2412 -0.5090  0.2836
17780THY    HA340577   3.488   2.275   5.186 -1.0100 -0.6251  0.0461
17780THY    CA440578   3.403   2.202   5.377  0.0527  0.2096 -0.5021
17780THY    HA440579   3.340   2.288   5.397  0.4065  0.2629 -0.2537
17780THY    CA540580   3.402   2.093   5.467 -0.3062  1.0386  0.0729
17780THY    CM140581   3.309   2.094   5.581 -0.3242 -0.5354  0.3722
17780THY    HM140582   3.291   1.998   5.632  2.3013  2.8624  1.5022
17780THY    HM240583   3.213   2.137   5.550 -0.1392  1.7467  2.6519
17780THY    HM340584   3.343   2.175   5.646 -0.9788 -1.0572  1.0853
17780THY    CA640585   3.500   1.990   5.449  0.2304 -0.1237  0.4677
17780THY    HA640586   3.503   1.914   5.526 -1.6380 -0.5670 -0.1121
17781THY      O40587   3.825   1.552   7.472  0.3011 -0.0609  0.1975
17781THY     HO40588   3.918   1.545   7.502  0.1451  0.2594 -0.7280
17781THY    CA140589   3.830   1.495   7.354  0.4154  0.5601  0.7278
17781THY    CA240590   3.726   1.508   7.263  0.9799 -0.2917  0.5713
17781THY    CP140591   3.597   1.582   7.294 -0.0300  0.1332 -0.3981
17781THY    HP140592   3.605   1.607   7.401 -0.7273 -0.3399  2.1745
17781THY    CP240593   3.473   1.497   7.268  0.6219  0.6109  0.7328
17781THY    HP240594   3.445   1.497   7.162  0.3184  0.6814 -0.2803
17781THY    HP340595   3.384   1.526   7.326 -0.9095 -0.7641 -0.9865
17781THY    HP440596   3.489   1.390   7.283 -3.1545 -1.2927 -0.2501
17781THY    CP340597   3.577   1.718   7.235 -0.1532 -0.2193  0.2726
17781THY    HP540598   3.655   1.788   7.267 -1.4360  0.2547  1.5377
17781THY    HP640599   3.480   1.760   7.263  0.8928  1.8321  1.5114
17781THY    HP740600   3.574   1.721   7.126  3.4899 -0.4510 -0.3103
17781THY    CA340601   3.732   1.442   7.135  0.2233 -0.2196  0.2620
17781THY    HA340602   3.648   1.439   7.066 -0.9237  1.1749 -0.4182
17781THY    CA440603   3.853   1.378   7.106  0.1351  0.0451  0.6551
17781THY    HA440604   3.864   1.322   7.013  0.4917  0.7245 -0.4411
17781THY    CA540605   3.962   1.374   7.196 -0.2106  0.0991  0.1861
17781THY    CM140606   4.087   1.292   7.162 -0.0150 -0.0253  0.4804
17781THY    HM140607   4.111   1.210   7.232  0.3281 -0.4289  0.2284
17781THY    HM240608   4.175   1.352   7.137  1.8649  0.5711 -1.8319
17781THY    HM340609   4.060   1.233   7.074 -1.4985  1.2541 -0.8379
17781THY    CA640610   3.950   1.428   7.319  0.0121 -0.0420 -0.2004
17781THY    HA640611   4.033   1.439   7.389  0.1141 -0.2091  0.0984
17782THY      O40612   3.139   6.758   7.035  0.2308  0.1196  0.7240
17782THY     HO40613   3.104   6.681   6.988 -4.0834  3.1974  0.4547
17782THY    CA140614   3.247   6.714   7.102 -0.1149  0.5478  0.6629
17782THY    CA240615   3.340   6.796   7.168  0.2672 -0.3056 -0.5882
17782THY    CP140616   3.327   6.947   7.185  0.2801  0.4946  0.0054
17782THY    HP140617   3.232   6.988   7.147  1.6619 -2.4354  0.7291
17782THY    CP240618   3.447   7.021   7.115 -0.1764  0.3334  0.3516
17782THY    HP240619   3.475   6.973   7.021  0.0584 -0.7187  2.4274
17782THY    HP340620   3.538   7.023   7.177 -0.7254  1.2177 -0.8064
17782THY    HP440621   3.413   7.122   7.089 -1.2579 -0.4686 -0.2047
17782THY    CP340622   3.328   6.977   7.336 -0.2626 -1.1918 -0.1124
17782THY    HP540623   3.320   7.085   7.356 -0.5075  1.0328 -0.5100
17782THY    HP640624   3.412   6.937   7.393 -3.4440  2.5553 -2.1481
17782THY    HP740625   3.243   6.936   7.392  1.0069  0.0498 -1.1355
17782THY    CA340626   3.455   6.731   7.218 -0.5332 -0.3224 -0.2830
17782THY    HA340627   3.535   6.782   7.272 -1.3485 -0.7578  1.5470
17782THY    CA440628   3.461   6.599   7.221  0.7621 -0.1688  0.1117
17782THY    HA440629   3.549   6.552   7.265  0.4679 -0.7316 -1.0034
17782THY    CA540630   3.367   6.517   7.166  0.1392  0.2631  0.3162
17782THY    CM140631   3.397   6.368   7.151  0.2716  0.1401  0.7185
17782THY    HM140632   3.501   6.339   7.171 -0.4069  1.4465 -0.9790
17782THY    HM240633   3.375   6.335   7.049  0.7903  0.1458  0.3571
17782THY    HM340634   3.340   6.299   7.214  0.2903 -2.0518 -1.4453
17782THY    CA640635   3.258   6.573   7.099  0.5945  0.1428  0.2515
17782THY    HA640636   3.178   6.514   7.054 -0.0189  2.1568 -0.5615
17783THY      O40637   2.539   1.464   4.295  0.0810  0.2755 -0.2050
17783THY     HO40638   2.481   1.542   4.292  1.0951 -2.5857  0.5894
17783THY    CA140639   2.473   1.370   4.369  0.3356 -0.1849  0.4163
17783THY    CA240640   2.535   1.249   4.416  0.2261 -0.8196  0.1337
17783THY    CP140641   2.678   1.191   4.367  0.2802 -0.2769 -0.1551
17783THY    HP140642   2.752   1.270   4.349  0.6887 -0.7495 -0.6381
17783THY    CP240643   2.657   1.126   4.231 -0.0500 -0.2314 -0.2321
17783THY    HP240644   2.629   1.208   4.163 -0.3961  2.1417  1.7590
17783THY    HP340645   2.573   1.056   4.232  0.2766 -0.4550 -0.6251
17783THY    HP440646   2.746   1.077   4.191 -0.8349  0.1525 -2.0518
17783THY    CP340647   2.738   1.080   4.450  0.0261 -0.2153  0.5469
17783THY    HP540648   2.774   1.113   4.549 -1.9455  0.6792  0.1544
17783THY    HP640649   2.832   1.043   4.407  2.1494  4.6043 -0.4748
17783THY    HP740650   2.676   0.990   4.462 -0.1227 -0.9875  0.5447
17783THY    CA340651   2.460   1.172   4.507 -0.0935  0.0446  0.5204
17783THY    HA340652   2.503   1.078   4.542 -2.1535  2.8165  0.4850
17783THY    CA440653   2.332   1.199   4.545 -0.7918 -0.3719  0.3701
17783THY    HA440654   2.281   1.129   4.609 -1.8153  0.6497  1.9971
17783THY    CA540655   2.269   1.308   4.487 -0.0549  0.3141 -0.3895
17783THY    CM140656   2.128   1.334   4.524 -0.6670 -0.7596 -0.4812
17783THY    HM140657   2.105   1.305   4.627  0.5250 -0.7714 -1.5312
17783THY    HM240658   2.065   1.267   4.463 -0.0213 -2.2228  0.2042
17783THY    HM340659   2.100   1.440   4.521  4.6430 -0.5960  1.1960
17783THY    CA640660   2.341   1.396   4.398  0.1751  0.0297 -0.1517
17783THY    HA640661   2.290   1.475   4.344 -0.0310 -0.0527 -0.3398
17784THY      O40662   6.143   5.971   7.729 -0.2435 -0.5400  0.1734
17784THY     HO40663   6.172   5.900   7.668  2.1980  1.0447 -0.3151
17784THY    CA140664   6.166   6.082   7.651 -0.1023  0.7567  0.6690
17784THY    CA240665   6.118   6.211   7.687  0.2196 -0.8324 -0.4908
17784THY    CP140666   6.046   6.221   7.827  0.6887 -0.8209 -0.3775
17784THY    HP140667   6.028   6.128   7.882 -2.0983  1.7053  1.4570
17784THY    CP240668   5.901   6.265   7.816 -0.4356  0.1256 -0.6054
17784THY    HP240669   5.852   6.206   7.737  2.5174 -1.9461 -0.5072
17784THY    HP340670   5.896   6.372   7.792  0.9131  1.5254 -0.2018
17784THY    HP440671   5.848   6.249   7.911  0.2796  0.9512  1.5128
17784THY    CP340672   6.124   6.312   7.928 -0.2991  0.7138  0.4569
17784THY    HP540673   6.202   6.257   7.981 -0.2300 -0.7325 -0.9071
17784THY    HP640674   6.057   6.348   8.007 -0.8593  0.0471  0.9083
17784THY    HP740675   6.187   6.390   7.885  0.8760  0.1855 -0.7520
17784THY    CA340676   6.132   6.317   7.602  0.3230 -0.7980 -0.6732
17784THY    HA340677   6.076   6.408   7.622  0.1918  2.0133 -1.2776
17784THY    CA440678   6.206   6.298   7.485 -0.3107 -0.0464  0.0551
17784THY    HA440679   6.216   6.374   7.408  0.0852 -2.2979 -2.1358
17784THY    CA540680   6.251   6.171   7.444 -0.2653 -0.7005 -0.1701
17784THY    CM140681   6.305   6.144   7.305  0.0325  0.2274  0.3145
17784THY    HM140682   6.315   6.234   7.243 -0.7694  0.5506  0.6372
17784THY    HM240683   6.233   6.076   7.257  1.6324 -1.5254 -0.2141
17784THY    HM340684   6.402   6.094   7.308 -0.1924 -0.2683 -0.1617
17784THY    CA640685   6.228   6.063   7.528  0.1081 -0.2797  0.4832
17784THY    HA640686   6.243   5.963   7.488  0.5004 -3.7396  1.7620
17785THY      O40687   1.382   0.431   2.131 -0.4891  0.0786 -0.3738
17785THY     HO40688   1.436   0.351   2.117  1.7939  0.8782  0.9255
17785THY    CA140689   1.481   0.528   2.141  0.5157  0.4310  0.7151
17785THY    CA240690   1.453   0.651   2.207 -0.7242  0.3253  0.6514
17785THY    CP140691   1.317   0.675   2.264  0.4039  0.6396 -0.4483
17785THY    HP140692   1.235   0.626   2.210  0.2026 -0.3956  0.9327
17785THY    CP240693   1.280   0.826   2.269 -0.3535 -0.4397  0.1325
17785THY    HP240694   1.311   0.884   2.181  1.8300  1.2304  1.6741
17785THY    HP340695   1.324   0.889   2.347  1.1067 -1.2435  0.1690
17785THY    HP440696   1.171   0.828   2.278 -0.4591 -1.0566 -1.4001
17785THY    CP340697   1.301   0.620   2.405  0.1882 -0.8361 -0.2830
17785THY    HP540698   1.238   0.531   2.409 -1.9292 -1.2763  1.1062
17785THY    HP640699   1.235   0.687   2.462 -0.1781 -2.8898  1.2194
17785THY    HP740700   1.398   0.598   2.450 -0.8161  0.5026 -2.2089
17785THY    CA340701   1.570   0.743   2.213  0.2222  0.7281 -0.1876
17785THY    HA340702   1.558   0.839   2.262 -1.2630  0.5591 -0.2638
17785THY    CA440703   1.692   0.711   2.150  0.2708  0.3211  0.2168
17785THY    HA440704   1.773   0.782   2.135  1.2022 -1.8030 -1.1831
17785THY    CA540705   1.712   0.585   2.097 -0.5258 -0.4392  0.3885
17785THY    CM140706   1.847   0.558   2.029  0.2942 -0.2142 -0.2759
17785THY    HM140707   1.872   0.660   1.998  1.8353 -0.4629 -0.7050
17785THY    HM240708   1.833   0.498   1.938  1.0293 -1.7110  1.6968
17785THY    HM340709   1.919   0.508   2.094  0.8834 -0.7308 -0.1183
17785THY    CA640710   1.612   0.491   2.097 -0.7437  0.5899 -0.2751
17785THY    HA640711   1.642   0.390   2.070  2.8920 -1.1617  1.0737
17786THY      O40712   4.790   7.154   7.705  0.3962  0.0845 -0.0233
17786THY     HO40713   4.815   7.105   7.786 -1.5689  0.8876  0.2009
17786THY    CA140714   4.877   7.254   7.692  0.0010 -0.7034 -0.3929
17786THY    CA240715   4.877   7.345   7.583  0.0951 -0.4144 -0.1300
17786THY    CP140716   4.768   7.325   7.476 -0.1906  0.9677 -0.1500
17786THY    HP140717   4.712   7.233   7.498  1.8125  1.2731 -1.3669
17786THY    CP240718   4.821   7.315   7.332  0.0356  0.2592  0.7609
17786THY    HP240719   4.884   7.225   7.332 -0.4815 -2.8621  0.2728
17786THY    HP340720   4.869   7.407   7.299  0.1507 -0.5006  0.4367
17786THY    HP440721   4.738   7.289   7.265  1.4080 -0.9501 -0.7230
17786THY    CP340722   4.674   7.444   7.483  0.5781 -0.5075 -0.3696
17786THY    HP540723   4.588   7.427   7.416  0.5928 -0.6841  0.2260
17786THY    HP640724   4.716   7.541   7.455 -3.0739  1.4426  2.0071
17786THY    HP740725   4.646   7.448   7.589  0.3013 -0.5829 -0.2577
17786THY    CA340726   4.967   7.452   7.587 -0.0700  0.3241  0.4023
17786THY    HA340727   4.964   7.521   7.503 -0.5527  0.0597  0.0715
17786THY    CA440728   5.070   7.453   7.678 -0.3520  0.9840 -0.2198
17786THY    HA440729   5.151   7.524   7.666 -0.3077 -1.0714 -0.5565
17786THY    CA540730   5.078   7.351   7.775 -0.7278 -0.1819 -0.1537
17786THY    CM140731   5.191   7.371   7.880 -0.0058 -0.1778  0.0488
17786THY    HM140732   5.178   7.314   7.973  1.0627 -0.4957 -0.7496
17786THY    HM240733   5.203   7.473   7.917 -1.1062 -0.9387  0.4737
17786THY    HM340734   5.284   7.328   7.840 -0.5844  0.2968 -1.7502
17786THY    CA640735   4.972   7.260   7.796  0.4834 -0.4828 -0.0074
17786THY    HA640736   4.977   7.195   7.883 -1.8153  0.7943  1.3689
17787THY      O40737   3.349   5.716   6.165 -0.0582  0.4522  0.2077
17787THY     HO40738   3.442   5.688   6.168 -0.0907 -0.6374 -0.0840
17787THY    CA140739   3.354   5.843   6.113 -0.4243 -0.0122  0.3360
17787THY    CA240740   3.247   5.936   6.116 -0.1522  0.4138  0.0836
17787THY    CP140741   3.110   5.892   6.160 -0.4330 -0.0981 -0.3810
17787THY    HP140742   3.087   5.789   6.130 -0.5826 -1.6589  0.0795
17787THY    CP240743   3.005   5.966   6.088 -0.2705  0.3144 -0.2590
17787THY    HP240744   2.909   5.917   6.109 -0.2567  0.4787 -0.2182
17787THY    HP340745   3.020   5.949   5.981 -1.5855  0.1714 -0.6624
17787THY    HP440746   2.993   6.072   6.111  0.3043  2.7131 -0.6588
17787THY    CP340747   3.080   5.902   6.306  0.2823 -0.5330 -0.0875
17787THY    HP540748   3.053   6.005   6.332 -0.8008 -0.2088 -0.4403
17787THY    HP640749   3.158   5.871   6.377  0.9079 -1.2708 -0.2212
17787THY    HP740750   2.990   5.842   6.326 -1.5243 -0.8776  2.3656
17787THY    CA340751   3.277   6.069   6.072 -0.2567  0.0017  0.0614
17787THY    HA340752   3.203   6.149   6.079  0.4702 -1.3088  0.8700
17787THY    CA440753   3.409   6.105   6.042  0.4091 -0.2239 -0.6294
17787THY    HA440754   3.442   6.206   6.017  1.5235 -0.0900 -0.9397
17787THY    CA540755   3.512   6.011   6.036  0.1358 -0.4971  0.7416
17787THY    CM140756   3.649   6.045   5.993  0.0178 -0.6563  0.1161
17787THY    HM140757   3.709   5.954   5.985 -0.6986  2.3028 -0.7316
17787THY    HM240758   3.687   6.117   6.066 -1.2342  0.5033 -0.3516
17787THY    HM340759   3.637   6.089   5.893 -0.3316  0.5606  2.9939
17787THY    CA640760   3.483   5.878   6.075 -1.1077  0.1712  0.0846
17787THY    HA640761   3.556   5.799   6.067 -1.7870  0.8331 -0.6250
17788THY      O40762   5.651   3.783   4.040 -0.1726  0.2931 -0.2636
17788THY     HO40763   5.738   3.824   4.051  0.7290 -2.9594 -0.9488
17788THY    CA140764   5.669   3.659   4.083 -0.5525 -0.0996  0.4869
17788THY    CA240765   5.564   3.567   4.109 -0.5575  0.9907  0.2930
17788THY    CP140766   5.419   3.625   4.099 -0.4544 -0.2120  0.1874
17788THY    HP140767   5.411   3.722   4.049 -2.6813 -1.3557 -0.5178
17788THY    CP240768   5.372   3.635   4.245 -0.4988 -0.0216  0.6457
17788THY    HP240769   5.399   3.736   4.277  1.7759 -1.4011  0.5533
17788THY    HP340770   5.414   3.554   4.305 -1.5471  0.3414  0.3605
17788THY    HP440771   5.264   3.618   4.243 -0.2575 -0.5777 -1.0723
17788THY    CP340772   5.331   3.532   4.011  1.0057 -0.4067  0.1202
17788THY    HP540773   5.394   3.505   3.926  1.8086 -0.0635  0.8343
17788THY    HP640774   5.238   3.578   3.975  0.8620 -0.8752 -0.5367
17788THY    HP740775   5.305   3.437   4.060 -0.6605 -0.3953  0.5404
17788THY    CA340776   5.590   3.437   4.139 -0.9971 -0.0517  0.1093
17788THY    HA340777   5.509   3.370   4.164  0.3632 -0.5932 -1.8044
17788THY    CA440778   5.723   3.393   4.149 -0.2418 -0.2419  0.2099
17788THY    HA440779   5.737   3.288   4.174 -0.7706  1.2192  0.4566
17788THY    CA540780   5.831   3.485   4.129  0.3270 -0.0347  0.2765
17788THY    CM140781   5.968   3.437   4.139 -1.1294 -0.2227  0.1944
17788THY    HM140782   6.028   3.519   4.180 -0.8691 -0.0422 -0.0854
17788THY    HM240783   6.017   3.416   4.043  2.2508  1.5833 -0.9175
17788THY    HM340784   5.985   3.358   4.212 -1.3291 -0.8106 -0.3997
17788THY    CA640785   5.809   3.618   4.098  0.5348  0.8830  0.0341
17788THY    HA640786   5.892   3.685   4.079  0.6412  1.2870  0.0172
17789THY      O40787   7.038   4.921   4.625 -0.3142  0.7719  0.3358
17789THY     HO40788   7.101   4.867   4.676 -0.8294 -2.0619 -3.3945
17789THY    CA140789   6.950   4.837   4.573  0.0604  0.0215  0.0721
17789THY    CA240790   6.844   4.884   4.490 -0.2587  0.3343  0.3463
17789THY    CP140791   6.825   5.033   4.468 -0.1042 -0.4529 -0.5670
17789THY    HP140792   6.880   5.095   4.539  1.8210 -0.5787 -2.0481
17789THY    CP240793   6.672   5.073   4.462  0.3648  0.1430 -0.0133
17789THY    HP240794   6.617   5.028   4.546 -3.4412 -1.3602  1.3957
17789THY    HP340795   6.618   5.041   4.372  0.9050 -0.0671 -0.3411
17789THY    HP440796   6.655   5.180   4.480  2.9151  1.3320  0.2550
17789THY    CP340797   6.889   5.070   4.333 -0.1874 -0.1077 -0.0390
17789THY    HP540798   6.997   5.049   4.328  0.5585  1.4395  2.8024
17789THY    HP640799   6.874   5.176   4.307 -1.8746 -1.4443 -0.5694
17789THY    HP740800   6.846   5.008   4.254  1.5149 -0.6315 -0.6259
17789THY    CA340801   6.759   4.777   4.436 -0.8638 -0.6998 -0.0480
17789THY    HA340802   6.683   4.816   4.369  0.8305 -2.3870  0.5140
17789THY    CA440803   6.783   4.643   4.456  0.4745  0.0561  0.6727
17789THY    HA440804   6.722   4.569   4.405 -0.0016 -0.4797  1.4191
17789THY    CA540805   6.886   4.605   4.545 -0.5162  0.1690  0.1346
17789THY    CM140806   6.908   4.454   4.575  1.0202 -0.0395  0.2819
17789THY    HM140807   7.004   4.414   4.540  0.6280 -0.4346 -0.3275
17789THY    HM240808   6.823   4.404   4.527  1.0254 -0.5532  0.7494
17789THY    HM340809   6.899   4.432   4.681  0.5409 -0.2822 -0.7220
17789THY    CA640810   6.968   4.702   4.600 -0.8565 -0.3797  0.6670
17789THY    HA640811   7.051   4.667   4.661 -2.5358 -0.0047 -3.1106
17790THY      O40812   2.025   3.312   3.892  0.6132  0.4850  0.0871
17790THY     HO40813   2.043   3.291   3.799 -2.1150 -0.5139  1.7467
17790THY    CA140814   1.929   3.221   3.920  0.0228 -0.1068 -0.3272
17790THY    CA240815   1.907   3.181   4.053  0.8970 -0.3226  0.7269
17790THY    CP140816   1.991   3.239   4.173  0.6710  0.1056  0.4933
17790THY    HP140817   2.073   3.297   4.129  0.8889 -1.7256 -1.1030
17790THY    CP240818   2.054   3.137   4.267 -0.0761 -0.7990  0.0194
17790THY    HP240819   2.108   3.067   4.203  0.5785 -1.8302  1.4110
17790THY    HP340820   1.983   3.076   4.324  1.3911 -0.7179 -1.7010
17790THY    HP440821   2.130   3.191   4.325  1.3239 -0.8436 -1.8047
17790THY    CP340822   1.897   3.334   4.263  0.4721  0.3849 -0.3319
17790THY    HP540823   1.859   3.414   4.197  1.4037  0.5461  0.2549
17790THY    HP640824   1.952   3.379   4.346 -1.3311  1.1438  0.6005
17790THY    HP740825   1.799   3.304   4.301 -0.4467  0.6008  2.5981
17790THY    CA340826   1.807   3.086   4.073 -0.2332  0.0734  0.1088
17790THY    HA340827   1.803   3.034   4.168 -0.1049  0.0231  0.0069
17790THY    CA440828   1.721   3.044   3.968 -0.1872 -0.3271  0.3659
17790THY    HA440829   1.638   2.976   3.987  0.8882  1.3056 -0.5698
17790THY    CA540830   1.751   3.084   3.837 -0.3204 -0.3698  0.4491
17790THY    CM140831   1.656   3.049   3.717 -0.3805 -0.3495  0.1807
17790THY    HM140832   1.599   2.956   3.735 -2.4252  0.2913  1.4850
17790THY    HM240833   1.719   3.027   3.630  0.6623  0.2858  0.6075
17790THY    HM340834   1.593   3.136   3.696 -1.8224  2.4853 -0.0648
17790THY    CA640835   1.854   3.178   3.816  0.2038 -0.5976  0.0318
17790THY    HA640836   1.875   3.218   3.717 -1.7222 -0.2653  2.0986
17791THY      O40837   8.102   0.816   3.568  0.2586 -0.4448  0.0987
17791THY     HO40838   8.028   0.876   3.546  0.4910 -2.8614 -0.4135
17791THY    CA140839   8.051   0.768   3.687  0.9245  0.1521  0.5885
17791THY    CA240840   8.111   0.661   3.756 -0.0345 -0.3919 -0.4338
17791THY    CP140841   8.240   0.592   3.697  1.1990 -0.2044 -0.5404
17791THY    HP140842   8.253   0.606   3.589  2.5492  0.1531  1.2632
17791THY    CP240843   8.225   0.444   3.709 -0.5403  0.2871  0.4777
17791THY    HP240844   8.298   0.397   3.641 -2.7789 -0.2241 -2.5961
17791THY    HP340845   8.129   0.398   3.680  0.5173  1.3588 -2.6970
17791THY    HP440846   8.248   0.414   3.812 -0.5929  0.4914  1.1158
17791THY    CP340847   8.360   0.656   3.764  0.0598 -0.2610 -0.1240
17791THY    HP540848   8.364   0.626   3.870  1.7309 -0.6677 -1.5517
17791THY    HP640849   8.361   0.764   3.748  1.7384 -1.4429 -0.2726
17791THY    HP740850   8.455   0.625   3.718  0.2007 -0.4972  0.6503
17791THY    CA340851   8.056   0.613   3.876 -0.2188  0.0058  0.4847
17791THY    HA340852   8.111   0.537   3.931 -1.7316  0.8019 -0.0617
17791THY    CA440853   7.938   0.675   3.919  0.1480  0.7041 -0.4585
17791THY    HA440854   7.891   0.636   4.008 -1.4887  0.7568  1.4954
17791THY    CA540855   7.875   0.778   3.847 -0.2415 -0.1157 -0.2548
17791THY    CM140856   7.750   0.848   3.902  0.5990 -0.6185  0.3112
17791THY    HM140857   7.683   0.771   3.942 -0.7929  1.0033  2.2545
17791THY    HM240858   7.708   0.911   3.823 -0.4101  0.8353  1.5611
17791THY    HM340859   7.793   0.921   3.971 -0.0276 -0.0936  0.1965
17791THY    CA640860   7.934   0.825   3.728  0.0090 -0.3395 -0.5082
17791THY    HA640861   7.885   0.894   3.659 -0.5564  0.9464  0.4040
17792THY      O40862   4.796   3.946   2.301  0.2161 -0.0438 -0.4801
17792THY     HO40863   4.890   3.949   2.327  0.5431 -1.2320  1.7729
17792THY    CA140864   4.729   3.861   2.374  0.0437 -0.3963  1.1137
17792THY    CA240865   4.596   3.813   2.352 -0.8053 -0.1238 -0.2008
17792THY    CP140866   4.537   3.864   2.216  1.1797  0.4741  0.4304
17792THY    HP140867   4.615   3.903   2.150 -0.8369 -0.7133  2.6963
17792THY    CP240868   4.438   3.976   2.240 -0.3620 -0.3582 -0.4817
17792THY    HP240869   4.339   3.940   2.271  0.0694 -0.3801 -1.7276
17792THY    HP340870   4.439   4.037   2.149  0.2945  0.3044  0.5216
17792THY    HP440871   4.468   4.026   2.332 -0.7299 -0.6512  0.2983
17792THY    CP340872   4.471   3.752   2.134 -0.5184 -0.1050  0.1505
17792THY    HP540873   4.380   3.708   2.176  0.0004 -0.0956 -0.9602
17792THY    HP640874   4.541   3.668   2.127 -0.0508 -1.1595  0.6113
17792THY    HP740875   4.451   3.790   2.033 -2.4112  0.9880  2.3260
17792THY    CA340876   4.537   3.722   2.437  0.2087  0.1613 -0.3181
17792THY    HA340877   4.431   3.702   2.419 -1.3591  2.8894  4.0830
17792THY    CA440878   4.606   3.691   2.561 -0.0014 -0.1813 -0.2722
17792THY    HA440879   4.558   3.630   2.636 -1.8230 -1.1996 -0.1705
17792THY    CA540880   4.733   3.737   2.586  0.7884 -0.8154 -0.5548
17792THY    CM140881   4.811   3.696   2.710 -0.4231  0.3223  0.3294
17792THY    HM140882   4.771   3.755   2.794  3.3490  0.9246  2.3532
17792THY    HM240883   4.914   3.733   2.705 -0.0914  1.1982 -0.4290
17792THY    HM340884   4.795   3.592   2.740 -2.6638  0.8179  0.7647
17792THY    CA640885   4.791   3.822   2.493  0.3128  0.0727 -0.1563
17792THY    HA640886   4.888   3.862   2.522 -0.5200  0.5933  1.6220
17793THY      O40887   3.946   1.870   5.698  0.8478 -0.9292  0.1995
17793THY     HO40888   3.990   1.810   5.760  0.7527 -0.8017  0.2591
17793THY    CA140889   4.013   1.989   5.703  0.0635  0.8024 -0.3367
17793THY    CA240890   3.943   2.106   5.691 -0.4188  0.1290 -0.1844
17793THY    CP140891   3.799   2.109   5.653 -0.2636 -0.3690 -0.5078
17793THY    HP140892   3.767   2.008   5.625  0.2430 -3.5061  0.0881
17793THY    CP240893   3.761   2.202   5.532 -0.2386 -0.6040 -0.2748
17793THY    HP240894   3.817   2.295   5.545 -0.4157 -3.4608  0.3104
17793THY    HP340895   3.652   2.220   5.533 -0.1797  1.2267  0.1735
17793THY    HP440896   3.791   2.148   5.442 -1.6260 -1.0639 -0.3420
17793THY    CP340897   3.698   2.150   5.759 -0.6197 -0.3193  0.0397
17793THY    HP540898   3.713   2.086   5.847 -1.0919  0.6358  1.1823
17793THY    HP640899   3.594   2.138   5.728 -0.4351 -1.2325  0.7291
17793THY    HP740900   3.705   2.251   5.801 -2.3738  1.1952 -0.4082
17793THY    CA340901   4.010   2.226   5.719  0.1431 -0.3905  0.1392
17793THY    HA340902   3.955   2.319   5.709  0.0178 -0.4745  0.0573
17793THY    CA440903   4.140   2.225   5.750 -0.5808 -0.0528 -0.0036
17793THY    HA440904   4.200   2.313   5.774  0.0592  1.1241 -0.7237
17793THY    CA540905   4.217   2.104   5.745 -0.0638  0.5594  0.2832
17793THY    CM140906   4.366   2.109   5.759 -0.7740 -0.3674  1.1164
17793THY    HM140907   4.404   2.038   5.834 -3.4296  1.5627  1.5929
17793THY    HM240908   4.392   2.209   5.795 -1.2189 -1.8643  1.8015
17793THY    HM340909   4.415   2.099   5.661  0.6397  0.4615 -0.7481
17793THY    CA640910   4.151   1.982   5.731  1.4713 -0.1048  0.0976
17793THY    HA640911   4.202   1.886   5.734  0.6252 -0.8181 -0.3908
17794THY      O40912   1.981   1.361   2.525 -0.2741  0.3150  0.2295
17794THY     HO40913   2.000   1.396   2.436  0.8792 -0.1566 -1.4240
17794THY    CA140914   1.940   1.237   2.505  0.0615 -0.0697 -0.8566
17794THY    CA240915   1.828   1.185   2.574  0.0619 -0.0957 -0.3545
17794THY    CP140916   1.764   1.259   2.694  0.1581 -0.2524 -0.4181
17794THY    HP140917   1.763   1.367   2.675  3.2389 -0.3187 -0.3138
17794THY    CP240918   1.857   1.237   2.816  0.1562 -0.1820 -0.1309
17794THY    HP240919   1.864   1.133   2.850  0.3439 -1.7361 -0.6500
17794THY    HP340920   1.833   1.301   2.902 -1.3245 -0.2445 -0.5751
17794THY    HP440921   1.956   1.268   2.782 -0.5296 -1.3563  0.8795
17794THY    CP340922   1.618   1.217   2.739 -0.1955 -0.1104  0.7216
17794THY    HP540923   1.613   1.113   2.774 -0.8993 -0.7764  0.5246
17794THY    HP640924   1.542   1.227   2.661 -3.4156  1.9409 -3.8619
17794THY    HP740925   1.582   1.274   2.826  0.1167  0.5615 -0.0786
17794THY    CA340926   1.767   1.073   2.530 -0.5845  0.0977  0.1968
17794THY    HA340927   1.677   1.036   2.578 -1.8757 -1.9786  0.5067
17794THY    CA440928   1.819   1.012   2.421 -0.6822  0.0952  0.6613
17794THY    HA440929   1.780   0.919   2.381 -0.7622  1.4094  0.1146
17794THY    CA540930   1.941   1.046   2.357 -0.2965  0.0673 -0.8651
17794THY    CM140931   1.998   0.974   2.233  0.6882 -0.0797  0.1212
17794THY    HM140932   1.979   0.866   2.241 -0.5649  0.4988  0.3644
17794THY    HM240933   2.103   1.005   2.226  0.3820 -0.4445  1.1268
17794THY    HM340934   1.967   1.010   2.134  1.2564  0.5963  2.7056
17794THY    CA640935   1.992   1.170   2.401 -0.3210  0.3660 -0.6459
17794THY    HA640936   2.082   1.200   2.349  0.0409  1.4906  0.2673
17795THY      O40937   4.651   6.342   5.091 -0.8317 -0.4376 -0.7087
17795THY     HO40938   4.607   6.421   5.127  0.7223 -0.2520  0.1142
17795THY    CA140939   4.772   6.331   5.149 -0.5832  1.0331 -0.1689
17795THY    CA240940   4.855   6.226   5.102 -0.1475  0.3611  0.3698
17795THY    CP140941   4.805   6.132   4.995 -0.3935  1.1184 -0.0177
17795THY    HP140942   4.704   6.152   4.960 -0.0347 -1.3583 -1.9800
17795THY    CP240943   4.808   5.989   5.041  1.0939 -0.9511 -0.1774
17795THY    HP240944   4.728   5.959   5.110  0.9983 -1.7399 -1.8676
17795THY    HP340945   4.910   5.966   5.075  0.5221  0.1312 -1.2162
17795THY    HP440946   4.793   5.920   4.956 -2.3568 -2.0483  1.6793
17795THY    CP340947   4.898   6.162   4.872 -0.0246  0.2247  0.3125
17795THY    HP540948   4.859   6.113   4.782 -0.0563  0.3394  0.1265
17795THY    HP640949   4.997   6.117   4.883  1.0050 -1.9771  1.8550
17795THY    HP740950   4.901   6.267   4.839  0.2960 -0.2968  0.1449
17795THY    CA340951   4.992   6.219   5.151  0.4376  0.2024  0.0986
17795THY    HA340952   5.057   6.139   5.117  0.8110 -1.1232  0.9342
17795THY    CA440953   5.036   6.319   5.237 -0.0208  0.5825  0.6591
17795THY    HA440954   5.137   6.318   5.278 -0.5705  2.0874 -1.6183
17795THY    CA540955   4.952   6.425   5.277  0.0551 -0.2540  0.0779
17795THY    CM140956   4.996   6.527   5.373 -0.5275 -0.3280  0.0311
17795THY    HM140957   4.946   6.517   5.470 -0.9947 -0.5352  0.2869
17795THY    HM240958   4.968   6.624   5.329 -3.4804 -1.2545 -1.1379
17795THY    HM340959   5.104   6.531   5.390 -0.4649 -0.2118 -1.6651
17795THY    CA640960   4.818   6.426   5.241  0.0969  1.0639  0.8096
17795THY    HA640961   4.743   6.493   5.283 -0.7367  0.5825  0.1889
17796THY      O40962   7.395   5.367   4.767 -0.8911  0.2345 -0.3943
17796THY     HO40963   7.346   5.429   4.709  1.3544 -1.2079  0.1361
17796THY    CA140964   7.367   5.404   4.891  1.6701 -1.2929  1.3066
17796THY    CA240965   7.463   5.374   4.992  0.0892 -0.3538  0.1601
17796THY    CP140966   7.601   5.299   4.966  0.0613 -0.7950 -0.5868
17796THY    HP140967   7.570   5.219   4.898  0.5068 -0.0492 -1.4111
17796THY    CP240968   7.669   5.237   5.090 -0.5929 -0.2215  0.1421
17796THY    HP240969   7.677   5.304   5.177  3.0429 -0.2501 -0.0641
17796THY    HP340970   7.774   5.216   5.068 -0.0208  0.8775  1.6185
17796THY    HP440971   7.617   5.146   5.122 -0.9275  1.1341  0.7843
17796THY    CP340972   7.709   5.397   4.904  0.3247  0.0166 -0.0160
17796THY    HP540973   7.753   5.453   4.987 -0.7121 -0.7674  2.0448
17796THY    HP640974   7.668   5.457   4.823 -0.5050  1.4217  1.3766
17796THY    HP740975   7.782   5.327   4.862 -0.7734 -0.9359 -0.6390
17796THY    CA340976   7.429   5.429   5.120  0.1915  0.4007  0.3331
17796THY    HA340977   7.500   5.425   5.202 -1.6415  2.2004  2.1918
17796THY    CA440978   7.311   5.499   5.134  0.5048 -0.6680  0.1432
17796THY    HA440979   7.289   5.550   5.227  0.1661  0.0686 -1.2824
17796THY    CA540980   7.218   5.510   5.032 -0.1254 -0.4245  0.6627
17796THY    CM140981   7.086   5.591   5.039  0.2886 -0.0532  0.4614
17796THY    HM140982   7.028   5.555   4.954 -2.5775  1.4884  1.1374
17796THY    HM240983   7.100   5.700   5.046 -0.1542  1.6664  0.4334
17796THY    HM340984   7.029   5.563   5.129 -0.2838 -0.6163 -0.2226
17796THY    CA640985   7.247   5.466   4.904  0.0526 -0.0349 -0.8706
17796THY    HA640986   7.174   5.478   4.824 -0.3280  0.4966  0.4950
17797THY      O40987   4.369   8.352   5.034 -0.1220  0.1884  0.4279
17797THY     HO40988   4.413   8.437   5.018 -0.3436 -1.5312  0.2586
17797THY    CA140989   4.267   8.353   4.944  0.1106 -0.0897 -0.4616
17797THY    CA240990   4.143   8.301   4.978  0.2359 -0.2414  0.6852
17797THY    CP140991   4.112   8.228   5.116 -0.7564 -0.0182 -0.1693
17797THY    HP140992   4.199   8.250   5.178 -1.5924  0.5637  1.7076
17797THY    CP240993   4.101   8.071   5.106 -1.1634  0.5201 -0.1325
17797THY    HP240994   4.043   8.042   5.194  0.3611  1.1082 -1.5152
17797THY    HP340995   4.193   8.014   5.117 -1.2403  0.8161 -0.2007
17797THY    HP440996   4.046   8.034   5.019 -0.4751  0.6212 -1.4464
17797THY    CP340997   3.983   8.285   5.182  0.1711 -1.0600 -0.5415
17797THY    HP540998   3.888   8.262   5.133 -0.2244 -0.0386 -1.1553
17797THY    HP640999   3.983   8.393   5.197  0.5641 -1.2203 -0.5223
17797THY    HP741000   3.975   8.235   5.280 -1.8543 -1.0828 -0.3677
17797THY    CA341001   4.044   8.305   4.883 -0.2004 -0.0362  0.7645
17797THY    HA341002   3.949   8.254   4.897  0.3712 -0.9414 -0.5884
17797THY    CA441003   4.078   8.352   4.757 -0.7670  0.0888  0.1604
17797THY    HA441004   4.013   8.349   4.670 -2.1631  0.9810  2.0792
17797THY    CA541005   4.195   8.414   4.724  0.2042 -0.1306 -0.0738
17797THY    CM141006   4.216   8.480   4.586  0.2198  0.5470  0.5562
17797THY    HM141007   4.248   8.583   4.602 -2.5256  0.0368  1.5831
17797THY    HM241008   4.127   8.480   4.521  0.0477  0.7733  1.3510
17797THY    HM341009   4.300   8.427   4.540  2.2318  1.3856  2.8722
17797THY    CA641010   4.288   8.424   4.822 -0.2396 -0.6066  0.5440
17797THY    HA641011   4.379   8.481   4.804  1.0078  1.0714 -0.8064
17798THY      O41012   0.538   2.400   3.863 -0.3484 -0.1550  0.0680
17798THY     HO41013   0.628   2.387   3.828  0.0374 -0.0645  2.1865
17798THY    CA141014   0.456   2.427   3.762 -0.1050 -0.4180  0.0178
17798THY    CA241015   0.312   2.417   3.771  0.0364 -0.8285 -0.2510
17798THY    CP141016   0.255   2.364   3.896  1.1193  0.8259  0.5405
17798THY    HP141017   0.317   2.280   3.928  1.1548  0.9448  0.6114
17798THY    CP241018   0.116   2.302   3.893  0.1212 -0.1885 -0.2572
17798THY    HP241019   0.114   2.226   3.972 -3.4257 -0.0683 -0.1936
17798THY    HP341020   0.102   2.243   3.801  0.6380  0.7797 -1.9631
17798THY    HP441021   0.038   2.374   3.919 -0.3450  0.4666 -0.9809
17798THY    CP341022   0.264   2.458   4.010 -0.4751  0.2538  0.0881
17798THY    HP541023   0.355   2.519   4.013  0.4494 -0.3736 -1.2058
17798THY    HP641024   0.257   2.399   4.102 -1.1424  0.9107  1.1422
17798THY    HP741025   0.178   2.526   4.018 -0.5493 -0.8053  0.1398
17798THY    CA341026   0.238   2.457   3.664  0.5204  0.1140 -0.4042
17798THY    HA341027   0.131   2.450   3.679  0.2769 -1.4307 -0.3264
17798THY    CA441028   0.293   2.511   3.550  0.4492  0.7032 -0.0261
17798THY    HA441029   0.238   2.567   3.474  0.4032  0.9455  0.2576
17798THY    CA541030   0.432   2.508   3.541 -0.1270  0.2701 -0.2000
17798THY    CM141031   0.490   2.558   3.408  0.5551 -1.0108  0.1413
17798THY    HM141032   0.426   2.556   3.319  0.2915 -0.8560  1.0456
17798THY    HM241033   0.581   2.499   3.391 -0.0775 -0.4765 -1.0236
17798THY    HM341034   0.532   2.657   3.431  0.6948 -0.3451 -0.0645
17798THY    CA641035   0.515   2.474   3.648  0.2516 -0.1743  0.2578
17798THY    HA641036   0.620   2.493   3.628  1.0676  1.1231 -2.3923
17799THY      O41037   7.812   6.429   4.940  0.1703  0.1188  0.1796
17799THY     HO41038   7.821   6.487   4.863  0.1877 -0.0787 -0.0822
17799THY    CA141039   7.792   6.306   4.888 -0.3671 -0.9325  0.3258
17799THY    CA241040   7.856   6.187   4.939  0.2835 -0.7203  0.2788
17799THY    CP141041   7.942   6.187   5.072  0.2681  0.7169 -0.6644
17799THY    HP141042   7.920   6.278   5.128 -0.4056 -0.3642 -0.1407
17799THY    CP241043   8.092   6.192   5.046 -0.4388  0.2953 -0.4994
17799THY    HP241044   8.153   6.194   5.137 -2.7864  1.9666  0.7508
17799THY    HP341045   8.114   6.287   4.994 -1.7178 -0.8211 -0.7709
17799THY    HP441046   8.129   6.113   4.980  0.5998 -0.5433  0.6460
17799THY    CP341047   7.909   6.066   5.166  0.2410 -0.5554 -0.2489
17799THY    HP541048   7.949   5.977   5.116 -0.5042  1.5810 -1.8724
17799THY    HP641049   7.799   6.066   5.168  0.2555  0.2312 -0.1869
17799THY    HP741050   7.946   6.079   5.268 -0.2403 -0.3358 -0.5708
17799THY    CA341051   7.836   6.060   4.869 -0.2489 -1.3873  0.3970
17799THY    HA341052   7.899   5.976   4.896  2.1438 -1.1561  2.1702
17799THY    CA441053   7.752   6.055   4.755  0.9373  0.1732  0.6647
17799THY    HA441054   7.736   5.961   4.702  1.6637 -0.2470  0.7793
17799THY    CA541055   7.690   6.173   4.713  0.7081 -0.5624  0.4012
17799THY    CM141056   7.610   6.161   4.585 -0.3227 -0.8502  0.7436
17799THY    HM141057   7.507   6.194   4.599 -0.6755 -2.8330  0.5934
17799THY    HM241058   7.582   6.058   4.560 -0.9010 -2.0946  1.1784
17799THY    HM341059   7.645   6.225   4.503 -0.8700 -1.8220 -0.1793
17799THY    CA641060   7.708   6.292   4.778 -0.4824  0.0264 -1.0300
17799THY    HA641061   7.648   6.378   4.752  0.3313 -1.0123 -0.7560
17800THY      O41062   5.640   4.578   4.895  0.4786 -0.0920  0.0345
17800THY     HO41063   5.615   4.669   4.873  1.4229  1.7714  0.7931
17800THY    CA141064   5.639   4.589   5.032 -0.0978 -0.1403  0.5978
17800THY    CA241065   5.643   4.477   5.116  0.6996  0.0567  0.4827
17800THY    CP141066   5.610   4.334   5.054  0.0995  0.4573 -0.0127
17800THY    HP141067   5.664   4.331   4.958 -0.7122 -0.1377  2.3269
17800THY    CP241068   5.465   4.317   5.016  0.3758 -0.3993  0.7517
17800THY    HP241069   5.436   4.395   4.944  0.3381  0.3826  1.4688
17800THY    HP341070   5.409   4.335   5.108 -0.3341 -0.4201 -1.0919
17800THY    HP441071   5.451   4.218   4.969  0.9133 -1.1699  1.0273
17800THY    CP341072   5.660   4.219   5.141  0.1661 -0.0541  0.4210
17800THY    HP541073   5.596   4.225   5.229  1.8219  1.1645  1.1223
17800THY    HP641074   5.760   4.233   5.184 -0.3006  0.8339  1.0813
17800THY    HP741075   5.643   4.118   5.102  0.4776 -0.5524  0.5556
17800THY    CA341076   5.660   4.500   5.256 -0.3337  0.0832  0.0528
17800THY    HA341077   5.661   4.415   5.324 -0.8517 -1.3267 -1.1325
17800THY    CA441078   5.661   4.630   5.308  0.3152 -0.3635 -0.2967
17800THY    HA441079   5.671   4.652   5.414 -0.9407 -0.1131 -0.8059
17800THY    CA541080   5.655   4.740   5.217 -0.1028 -0.5149 -0.5688
17800THY    CM141081   5.656   4.883   5.272 -0.3240  0.5885  0.3394
17800THY    HM141082   5.635   4.955   5.192  2.3455 -1.6818 -1.1818
17800THY    HM241083   5.752   4.894   5.324 -0.5711  1.0772  0.2169
17800THY    HM341084   5.572   4.881   5.342 -1.3640 -0.6132  0.4433
17800THY    CA641085   5.646   4.716   5.081  0.6571  0.4272  0.1053
17800THY    HA641086   5.634   4.801   5.014 -3.5044  0.0622 -0.5614
17801THY      O41087   7.707   2.702   6.012 -0.5264  0.5336 -1.0655
17801THY     HO41088   7.680   2.642   6.084 -0.1154  0.8039 -0.9323
17801THY    CA141089   7.733   2.804   6.086 -0.2201 -0.1066 -0.1273
17801THY    CA241090   7.839   2.892   6.061  0.0298 -0.1097  0.4552
17801THY    CP141091   7.937   2.879   5.945  0.1754  0.2749  0.5123
17801THY    HP141092   7.917   2.791   5.884  0.7774  1.1094 -0.2212
17801THY    CP241093   8.089   2.872   5.982 -1.1436  0.4585  0.5645
17801THY    HP241094   8.110   2.788   6.050 -3.5013 -0.0136 -0.4765
17801THY    HP341095   8.127   2.966   6.024 -0.2906 -0.8733  0.8462
17801THY    HP441096   8.148   2.845   5.894  0.6766  1.2283  1.8609
17801THY    CP341097   7.917   2.995   5.843  0.2283 -0.4058  0.6683
17801THY    HP541098   7.973   3.079   5.884  3.1154  1.1961 -1.8276
17801THY    HP641099   7.814   3.032   5.833  0.9537 -2.8769  2.2804
17801THY    HP741100   7.938   2.968   5.739  0.6856 -0.1801  0.1395
17801THY    CA341101   7.860   2.995   6.161 -0.0358 -0.2682  0.0256
17801THY    HA341102   7.953   3.052   6.163  0.4020  2.2805 -0.6435
17801THY    CA441103   7.763   3.009   6.266 -0.1675 -0.7295  0.6534
17801THY    HA441104   7.788   3.087   6.337  2.2976  1.9076 -2.2493
17801THY    CA541105   7.660   2.922   6.290  1.0335 -0.2556 -0.0736
17801THY    CM141106   7.566   2.948   6.404 -0.5740  1.0163  0.3092
17801THY    HM141107   7.627   2.943   6.494  0.4963  0.2803 -0.4519
17801THY    HM241108   7.488   2.873   6.420 -1.4805  2.1487  1.4486
17801THY    HM341109   7.536   3.053   6.397  1.6695  0.2831  0.9580
17801THY    CA641110   7.642   2.821   6.194 -0.5021 -0.1457 -0.1643
17801THY    HA641111   7.558   2.752   6.205 -0.8515 -1.2406  0.0631
17802THY      O41112   1.284   1.440   6.440  0.2089 -0.2004 -0.3748
17802THY     HO41113   1.344   1.499   6.489  1.2590 -0.9503 -0.7863
17802THY    CA141114   1.354   1.355   6.367 -0.2911  0.2344  0.3654
17802THY    CA241115   1.301   1.310   6.251  0.5187  0.3699  0.6737
17802THY    CP141116   1.163   1.354   6.190 -0.5137 -0.1455  0.0282
17802THY    HP141117   1.108   1.416   6.261  2.5751  2.6034 -0.1202
17802THY    CP241118   1.076   1.235   6.141  0.5397 -0.6585  0.4854
17802THY    HP241119   1.048   1.170   6.225  1.1143  0.0718  1.1718
17802THY    HP341120   1.121   1.175   6.060  0.8954 -0.9322  1.1087
17802THY    HP441121   0.979   1.267   6.104 -0.4547 -0.7960 -2.3767
17802THY    CP341122   1.180   1.466   6.072 -0.1767  0.6071 -0.0235
17802THY    HP541123   1.225   1.562   6.099 -1.5011  2.5647  0.1098
17802THY    HP641124   1.083   1.499   6.032  0.0027 -0.2045 -0.4581
17802THY    HP741125   1.237   1.424   5.988 -0.4670  0.6456 -0.5035
17802THY    CA341126   1.379   1.220   6.173  0.1822  0.0741 -0.4485
17802THY    HA341127   1.332   1.175   6.086 -2.0073  1.2556 -0.5776
17802THY    CA441128   1.507   1.179   6.215 -0.1687  0.6200  0.4771
17802THY    HA441129   1.565   1.106   6.160  1.9052  2.5653  0.5553
17802THY    CA541130   1.562   1.228   6.326  0.2468  0.1539  0.1396
17802THY    CM141131   1.693   1.171   6.373  0.0005 -0.2014  0.0284
17802THY    HM141132   1.739   1.114   6.291  2.0540 -0.0189  1.3264
17802THY    HM241133   1.675   1.106   6.459  0.4039 -1.1404 -1.3746
17802THY    HM341134   1.771   1.245   6.391  0.3215 -1.0261 -0.0913
17802THY    CA641135   1.476   1.299   6.415  0.4053  0.2091  0.0459
17802THY    HA641136   1.514   1.335   6.510  0.3777 -0.8747  3.2430
17803THY      O41137   8.187   8.992   5.449 -0.2254  0.4495  0.0937
17803THY     HO41138   8.136   8.926   5.499 -1.0390 -0.5499 -0.0608
17803THY    CA141139   8.295   9.029   5.528  0.2582 -1.0060 -0.4391
17803THY    CA241140   8.388   9.129   5.482  0.0323 -0.0776  0.9962
17803THY    CP141141   8.385   9.173   5.339 -0.8304 -0.1457  0.3813
17803THY    HP141142   8.283   9.156   5.302 -0.8615 -0.1999  0.6721
17803THY    CP241143   8.476   9.090   5.254 -0.1546 -0.2062 -0.4345
17803THY    HP241144   8.573   9.106   5.303  0.2313 -1.1024  0.0711
17803THY    HP341145   8.477   9.139   5.156  1.5705  1.2279  2.6984
17803THY    HP441146   8.435   8.988   5.262  1.1055  0.0158 -0.9490
17803THY    CP341147   8.408   9.324   5.318 -0.4680 -0.3208  0.1841
17803THY    HP541148   8.510   9.352   5.348 -1.1341  1.6122  0.6561
17803THY    HP641149   8.336   9.385   5.373 -0.8538  1.0870 -1.4877
17803THY    HP741150   8.403   9.355   5.212 -1.1545 -0.4691 -0.4159
17803THY    CA341151   8.493   9.165   5.565 -0.4614  0.1595 -0.2502
17803THY    HA341152   8.571   9.226   5.520 -0.3643 -0.6211 -0.9297
17803THY    CA441153   8.503   9.125   5.703  0.0664  0.7942  0.6368
17803THY    HA441154   8.588   9.154   5.765  0.4843 -0.5267  2.4718
17803THY    CA541155   8.401   9.042   5.750 -0.0651  0.0793 -0.2959
17803THY    CM141156   8.410   8.994   5.893  0.2956  0.6284 -0.8502
17803THY    HM141157   8.470   8.903   5.893  0.6684 -0.9361 -0.6314
17803THY    HM241158   8.311   8.991   5.940  1.8560  4.2453 -0.4587
17803THY    HM341159   8.463   9.067   5.956 -2.2786  1.1140  0.7484
17803THY    CA641160   8.299   8.992   5.668  0.1173 -0.2776 -0.6132
17803THY    HA641161   8.223   8.924   5.706 -1.1795  2.8833  2.3105
17804THY      O41162   2.897   7.778   3.067 -0.1483  0.0551  0.2082
17804THY     HO41163   2.858   7.689   3.070 -0.7894  1.7098  0.4949
17804THY    CA141164   2.859   7.830   3.187  0.5359 -0.1244  0.4226
17804THY    CA241165   2.884   7.967   3.213 -0.5398 -0.2905 -0.0238
17804THY    CP141166   2.972   8.052   3.119 -0.1411  0.6242 -0.4467
17804THY    HP141167   2.966   8.009   3.018 -0.9353  0.4258  0.0948
17804THY    CP241168   3.122   8.054   3.160 -0.3575 -0.2733 -0.1854
17804THY    HP241169   3.185   8.104   3.085  1.8527 -0.1709 -2.6180
17804THY    HP341170   3.170   7.961   3.193 -0.5933  0.3303 -0.0986
17804THY    HP441171   3.132   8.118   3.249  0.3878 -0.8771  0.5649
17804THY    CP341172   2.921   8.198   3.102  0.3839  0.0602 -0.7215
17804THY    HP541173   2.820   8.195   3.058 -0.2995  1.5970 -1.7042
17804THY    HP641174   2.988   8.244   3.029 -0.6694 -0.2885  0.3110
17804THY    HP741175   2.920   8.248   3.200 -0.5984 -0.3884  0.1734
17804THY    CA341176   2.847   8.008   3.336  0.4153 -0.0959 -0.1236
17804THY    HA341177   2.846   8.114   3.363 -1.1240 -2.2219  0.4662
17804THY    CA441178   2.777   7.922   3.427  0.0944 -0.0681 -0.3036
17804THY    HA441179   2.739   7.969   3.518 -0.3777 -0.7901  0.7506
17804THY    CA541180   2.759   7.792   3.400  0.5317  0.3423  0.7268
17804THY    CM141181   2.678   7.707   3.499  1.1613 -0.1431 -0.7900
17804THY    HM141182   2.584   7.761   3.515  2.7144  2.5680  1.3424
17804THY    HM241183   2.735   7.692   3.592  2.0304 -0.9625 -2.9535
17804THY    HM341184   2.656   7.603   3.473  0.4222  1.8959 -1.1875
17804THY    CA641185   2.801   7.745   3.282  0.8120  0.6140  0.7015
17804THY    HA641186   2.790   7.638   3.265  1.7681 -2.0471  0.9454
17805THY      O41187   7.508   8.119   5.028 -0.3813  0.0621 -0.5641
17805THY     HO41188   7.430   8.177   5.027  0.6124  0.2218  0.8011
17805THY    CA141189   7.525   8.074   5.154 -0.1290  0.4932  0.3690
17805THY    CA241190   7.583   7.947   5.180  0.6665  0.7059  0.2530
17805THY    CP141191   7.646   7.868   5.065  0.4572 -0.0745 -0.5077
17805THY    HP141192   7.663   7.926   4.973  0.9923 -1.0019 -2.0606
17805THY    CP241193   7.560   7.743   5.031  0.0461 -0.2616  0.5582
17805THY    HP241194   7.542   7.677   5.116 -2.4477 -2.1654 -1.4506
17805THY    HP341195   7.605   7.696   4.942 -1.0232 -1.5909  1.9215
17805THY    HP441196   7.458   7.780   5.016  0.7624 -2.0930  1.9455
17805THY    CP341197   7.784   7.820   5.103  1.0738 -0.6457  0.3665
17805THY    HP541198   7.823   7.753   5.026  0.6616  0.5851 -1.3787
17805THY    HP641199   7.778   7.756   5.192 -0.8925 -3.3135 -3.5762
17805THY    HP741200   7.855   7.901   5.122 -0.0556  0.1398  1.2102
17805THY    CA341201   7.592   7.893   5.309  0.5276  0.3335  0.3013
17805THY    HA341202   7.639   7.798   5.332  0.8948 -0.6887  0.2253
17805THY    CA441203   7.524   7.968   5.410 -0.4028 -1.0022 -0.9621
17805THY    HA441204   7.514   7.940   5.515 -2.2745 -0.3529  1.6602
17805THY    CA541205   7.466   8.095   5.384 -0.1364 -0.3335 -0.1484
17805THY    CM141206   7.395   8.169   5.494  0.2226 -0.5466 -0.9071
17805THY    HM141207   7.451   8.263   5.492 -0.3712 -0.9819 -0.5565
17805THY    HM241208   7.406   8.116   5.590 -0.7147 -0.7764 -1.5529
17805THY    HM341209   7.290   8.191   5.470 -0.1051  2.1271  0.9466
17805THY    CA641210   7.464   8.142   5.257  0.1150 -0.5261 -0.5885
17805THY    HA641211   7.429   8.241   5.228 -0.8359 -1.7386 -1.2660
17806THY      O41212   8.296   8.033   6.036 -0.3082  0.2870 -0.1583
17806THY     HO41213   8.322   8.126   6.021  0.2033  0.0698 -0.3329
17806THY    CA141214   8.261   8.032   6.170  0.1666 -0.0140 -0.9636
17806THY    CA241215   8.212   7.912   6.234 -0.2535  0.2997  0.0825
17806THY    CP141216   8.216   7.782   6.159  0.0409  0.4180  0.2840
17806THY    HP141217   8.225   7.796   6.050  0.5885  0.3848 -0.2980
17806THY    CP241218   8.067   7.727   6.160 -0.0356  0.1397  0.6918
17806THY    HP241219   8.060   7.625   6.120  1.6518 -0.4704  0.7884
17806THY    HP341220   7.993   7.795   6.117 -0.5120  0.1891  0.2191
17806THY    HP441221   8.046   7.726   6.267  0.3384  0.2141  0.0777
17806THY    CP341222   8.307   7.675   6.214  0.1936  0.8334  0.1067
17806THY    HP541223   8.395   7.731   6.249 -0.1306  0.0330  1.1492
17806THY    HP641224   8.342   7.613   6.130  1.4688  0.4881  1.2491
17806THY    HP741225   8.256   7.619   6.293 -0.7038 -0.5253 -1.0818
17806THY    CA341226   8.192   7.916   6.376  0.7985  0.1872  0.8124
17806THY    HA341227   8.166   7.825   6.429 -0.2948  0.6614  1.3731
17806THY    CA441228   8.201   8.039   6.438  0.2648 -0.8618  0.6464
17806THY    HA441229   8.192   8.043   6.546 -1.4435 -0.9727  0.4417
17806THY    CA541230   8.249   8.156   6.379 -0.0542 -0.0755  0.2598
17806THY    CM141231   8.272   8.276   6.465 -0.6862  1.5477  0.0099
17806THY    HM141232   8.219   8.273   6.561  1.7017  2.9378 -0.3119
17806THY    HM241233   8.229   8.365   6.419 -3.3604  1.3768 -1.2476
17806THY    HM341234   8.377   8.296   6.485 -0.0314 -0.1244 -1.4491
17806THY    CA641235   8.285   8.147   6.243  0.2763  0.0866 -0.0274
17806THY    HA641236   8.321   8.241   6.203  2.1961 -0.8234 -1.1019
17807THY      O41237   2.632   9.035   7.203  0.9539  0.0754 -0.0139
17807THY     HO41238   2.594   8.946   7.213  0.3070 -1.1835  0.0951
17807THY    CA141239   2.689   9.073   7.315 -0.5488  0.1701  0.4524
17807THY    CA241240   2.684   9.202   7.356  0.7625 -0.5095  0.1740
17807THY    CP141241   2.593   9.308   7.297  0.3576  0.7966 -0.7517
17807THY    HP141242   2.535   9.252   7.222  0.9212 -2.7351  2.9633
17807THY    CP241243   2.679   9.407   7.226 -0.1331 -1.1603 -0.0637
17807THY    HP241244   2.749   9.340   7.175  0.0475  0.1447 -0.8972
17807THY    HP341245   2.743   9.473   7.285  1.4598 -3.8540  0.9455
17807THY    HP441246   2.616   9.469   7.161 -2.7154  0.2578 -0.9988
17807THY    CP341247   2.506   9.363   7.405  0.7159 -0.6301 -0.8631
17807THY    HP541248   2.420   9.414   7.360  0.9827 -0.0056  0.1753
17807THY    HP641249   2.551   9.448   7.458  0.4895 -1.4024 -0.2413
17807THY    HP741250   2.470   9.290   7.479  0.1244 -0.0478 -0.0041
17807THY    CA341251   2.761   9.236   7.475  0.1841  0.0182 -0.3157
17807THY    HA341252   2.739   9.332   7.519  2.0760  0.5187 -0.0773
17807THY    CA441253   2.856   9.140   7.515  0.0239  0.2831  0.3573
17807THY    HA441254   2.921   9.159   7.600 -0.5054  0.6342  0.6174
17807THY    CA541255   2.870   9.013   7.461 -0.2351 -0.2416  0.0081
17807THY    CM141256   2.951   8.907   7.525 -0.2285 -0.1355  0.0895
17807THY    HM141257   3.016   8.869   7.445  0.4012  0.3396  0.1388
17807THY    HM241258   2.886   8.823   7.552 -1.9577  0.4893  1.5665
17807THY    HM341259   3.004   8.952   7.610  0.6389  0.1638 -1.4273
17807THY    CA641260   2.775   8.981   7.369  1.0602 -0.5555  0.0629
17807THY    HA641261   2.782   8.885   7.318 -1.6803 -0.8554 -0.0793
17808THY      O41262   2.972   7.508   7.592 -0.2618 -0.0373 -0.1061
17808THY     HO41263   2.929   7.513   7.679  1.6486  1.0570 -1.4584
17808THY    CA141264   2.971   7.380   7.566  0.5864  0.4858  0.3443
17808THY    CA241265   3.040   7.323   7.451  0.4677 -0.3382  0.1622
17808THY    CP141266   3.101   7.409   7.337  0.3151 -0.1640 -0.1579
17808THY    HP141267   3.156   7.489   7.388  1.5936  1.1482 -1.7956
17808THY    CP241268   2.979   7.457   7.253  0.3185  0.6770 -0.3965
17808THY    HP241269   2.886   7.400   7.265  0.1542  1.1272 -0.0474
17808THY    HP341270   2.992   7.463   7.145  1.4720  0.8521  0.6996
17808THY    HP441271   2.956   7.562   7.274  0.2990 -2.3400  0.2783
17808THY    CP341272   3.189   7.331   7.240  0.0519 -0.1980  0.0140
17808THY    HP541273   3.136   7.249   7.190 -0.6524 -0.9386  0.8948
17808THY    HP641274   3.284   7.298   7.284  1.5411 -2.5922  0.8393
17808THY    HP741275   3.225   7.396   7.160  2.0342 -0.8466 -1.7690
17808THY    CA341276   3.047   7.181   7.441 -0.0144  0.4194  0.4917
17808THY    HA341277   3.105   7.132   7.364  1.9800  1.9388  0.3446
17808THY    CA441278   2.979   7.096   7.529 -0.1322  0.2228 -0.0637
17808THY    HA441279   2.975   6.988   7.520 -3.4858 -2.4041  0.1138
17808THY    CA541280   2.920   7.155   7.636  0.8036 -0.8730  0.3165
17808THY    CM141281   2.866   7.071   7.748  0.1636  0.8262 -0.1273
17808THY    HM141282   2.822   7.135   7.825  0.2523  0.2501  0.6336
17808THY    HM241283   2.946   7.015   7.800  1.0806  2.2757  2.3800
17808THY    HM341284   2.792   6.997   7.716 -1.2563  1.3191  1.0492
17808THY    CA641285   2.903   7.297   7.651  0.4456 -0.4394  0.1396
17808THY    HA641286   2.849   7.332   7.739  1.5317  0.3975 -0.2041
17809THY      O41287   0.630   7.587   2.923  0.4037  0.2238 -0.0891
17809THY     HO41288   0.689   7.598   2.847 -0.2636 -0.2210  0.5199
17809THY    CA141289   0.697   7.643   3.034 -0.0610  0.0460  0.5570
17809THY    CA241290   0.636   7.735   3.119 -0.6263 -0.3648 -0.1663
17809THY    CP141291   0.494   7.776   3.101  0.5654  1.0066  0.0259
17809THY    HP141292   0.447   7.681   3.072  1.1960 -0.7075  0.1917
17809THY    CP241293   0.493   7.872   2.980 -0.2976  0.4170  0.1786
17809THY    HP241294   0.532   7.971   3.009 -0.7467 -0.2356  0.5615
17809THY    HP341295   0.392   7.901   2.951 -0.4994  0.9049 -0.0285
17809THY    HP441296   0.553   7.832   2.897  0.0937  0.6889  0.1957
17809THY    CP341297   0.413   7.823   3.216 -0.0315 -0.4540  0.1851
17809THY    HP541298   0.315   7.851   3.174 -0.2298  0.7611  1.4437
17809THY    HP641299   0.461   7.906   3.271  1.4753  0.7854 -1.4429
17809THY    HP741300   0.394   7.735   3.278 -0.8255 -1.7066 -0.5462
17809THY    CA341301   0.711   7.778   3.230 -0.0001 -0.0843 -0.8095
17809THY    HA341302   0.672   7.850   3.301  3.6785  1.2352  0.1150
17809THY    CA441303   0.849   7.742   3.239 -0.0003 -0.4906 -0.0629
17809THY    HA441304   0.902   7.782   3.326 -1.8138  0.7517 -0.2288
17809THY    CA541305   0.909   7.649   3.150  0.4364 -0.8229 -0.8412
17809THY    CM141306   1.038   7.608   3.175 -0.4216 -0.0459  0.5570
17809THY    HM141307   1.051   7.502   3.150 -1.0033  0.4865  0.3520
17809THY    HM241308   1.066   7.612   3.281 -0.0965  0.0417 -2.1312
17809THY    HM341309   1.108   7.662   3.109 -0.9548  0.6209  2.1095
17809THY    CA641310   0.828   7.595   3.047  1.2954 -0.2722 -0.2336
17809THY    HA641311   0.866   7.517   2.982 -0.4078 -1.0373 -0.4908
17810THY      O41312   4.582   5.590   2.072 -0.5762  0.1810 -0.0093
17810THY     HO41313   4.533   5.531   2.012  0.0836 -1.3063  0.8918
17810THY    CA141314   4.688   5.517   2.113 -0.2969 -0.2851  0.2734
17810THY    CA241315   4.746   5.537   2.240 -0.4357 -0.0776  0.8768
17810THY    CP141316   4.680   5.629   2.336  0.3524 -0.6138 -0.6002
17810THY    HP141317   4.587   5.674   2.298 -0.1794  0.7476 -0.5194
17810THY    CP241318   4.778   5.749   2.361 -0.4692  0.6817 -0.2448
17810THY    HP241319   4.871   5.705   2.399 -1.1449  1.6326 -0.8825
17810THY    HP341320   4.736   5.822   2.431  0.5800 -0.3088  1.3633
17810THY    HP441321   4.812   5.799   2.270  0.9860  0.4620 -1.5638
17810THY    CP341322   4.654   5.560   2.471  1.1176 -0.0365  0.3549
17810THY    HP541323   4.574   5.616   2.521 -1.1253 -2.8026 -0.1473
17810THY    HP641324   4.748   5.548   2.526  0.6602  0.6024 -0.4379
17810THY    HP741325   4.619   5.459   2.446  0.5369 -2.7876  1.1627
17810THY    CA341326   4.864   5.460   2.265 -0.3301 -0.3793  0.0683
17810THY    HA341327   4.904   5.477   2.365  3.4873 -1.7172 -0.0689
17810THY    CA441328   4.910   5.360   2.171 -0.5636 -0.4189 -0.0255
17810THY    HA441329   4.995   5.293   2.182 -1.1691 -1.5952 -1.0218
17810THY    CA541330   4.839   5.344   2.053  0.7095  0.0058  0.5319
17810THY    CM141331   4.883   5.250   1.952  0.4583 -0.3558  0.2839
17810THY    HM141332   4.821   5.242   1.862  0.3046 -0.3514  1.2574
17810THY    HM241333   4.896   5.150   1.993 -2.2945 -1.6554 -0.7177
17810THY    HM341334   4.981   5.286   1.919  0.1018 -0.7925  0.8733
17810THY    CA641335   4.726   5.416   2.023  0.4073  0.2790  0.2427
17810THY    HA641336   4.677   5.398   1.928  0.8796  0.3686 -1.7429
17811THY      O41337   1.203   2.390   6.205  0.5740 -0.9401 -0.4030
17811THY     HO41338   1.217   2.429   6.292  1.1278 -2.1093  2.2057
17811THY    CA141339   1.297   2.458   6.131  0.2191 -0.0362 -1.0999
17811THY    CA241340   1.366   2.387   6.031  0.1174  0.1688 -0.0809
17811THY    CP141341   1.312   2.250   5.975 -0.4326 -0.1384  0.4978
17811THY    HP141342   1.206   2.246   6.003 -0.1433  0.8795 -0.6931
17811THY    CP241343   1.401   2.145   6.048  0.3878  0.0517  0.6582
17811THY    HP241344   1.506   2.171   6.031  0.1213 -2.5373  0.3579
17811THY    HP341345   1.379   2.049   5.999  0.8018 -0.1306  0.6543
17811THY    HP441346   1.370   2.135   6.152  0.7095  0.0085 -1.1835
17811THY    CP341347   1.330   2.239   5.818 -0.0935 -0.2118  0.8129
17811THY    HP541348   1.278   2.154   5.773 -0.4472  1.5294  0.0564
17811THY    HP641349   1.437   2.243   5.794  0.3294  1.1713 -0.9629
17811THY    HP741350   1.279   2.328   5.778  0.5178 -0.1238  1.2102
17811THY    CA341351   1.482   2.447   5.979 -0.1162  0.7680 -0.7270
17811THY    HA341352   1.542   2.395   5.905 -0.0112  0.4777 -0.1996
17811THY    CA441353   1.522   2.571   6.026 -0.1277  0.4114 -0.3927
17811THY    HA441354   1.603   2.624   5.977 -0.6803 -0.2193 -0.1249
17811THY    CA541355   1.450   2.637   6.120 -0.6402 -0.3149  0.7482
17811THY    CM141356   1.502   2.769   6.169  0.3885  0.3555  0.7271
17811THY    HM141357   1.610   2.770   6.187  0.7161 -1.4142  1.4503
17811THY    HM241358   1.463   2.804   6.265 -0.4500  1.2024 -2.2254
17811THY    HM341359   1.478   2.845   6.094  2.5218 -1.1098  0.0592
17811THY    CA641360   1.342   2.582   6.178  0.5295  0.3083  0.7577
17811THY    HA641361   1.285   2.628   6.257  0.5965 -0.0265  1.4234
17812THY      O41362   8.597   3.054   1.964 -0.4706  0.0995  0.1352
17812THY     HO41363   8.651   3.096   1.896 -2.8961 -1.3460  1.1415
17812THY    CA141364   8.648   3.099   2.081 -0.2504 -0.3119  0.5413
17812THY    CA241365   8.583   3.097   2.210 -0.2926  0.4092 -0.0887
17812THY    CP141366   8.449   3.040   2.227 -0.1256 -0.1374  0.4865
17812THY    HP141367   8.418   3.009   2.126  3.3006 -1.7137  1.6575
17812THY    CP241368   8.344   3.140   2.271  0.8707 -0.2215 -0.0052
17812THY    HP241369   8.342   3.233   2.213 -2.2917 -0.2218  0.0088
17812THY    HP341370   8.372   3.182   2.369  1.7072 -0.4887  0.0807
17812THY    HP441371   8.245   3.095   2.270 -0.8242 -1.2536  3.3932
17812THY    CP341372   8.443   2.918   2.319 -0.3572 -1.1654 -0.1530
17812THY    HP541373   8.505   2.836   2.280  0.4709  0.5657 -0.3799
17812THY    HP641374   8.343   2.879   2.340 -0.1564  0.5690  0.2034
17812THY    HP741375   8.484   2.948   2.416 -0.6849 -1.3664  0.9751
17812THY    CA341376   8.648   3.160   2.322  0.1061 -0.5411 -0.4846
17812THY    HA341377   8.596   3.164   2.418 -2.6324 -1.9613  1.5842
17812THY    CA441378   8.763   3.228   2.304 -0.1363  0.2032 -0.2358
17812THY    HA441379   8.800   3.284   2.389 -0.7345  0.0631  0.3732
17812THY    CA541380   8.819   3.236   2.178 -0.6299 -0.2364  0.0149
17812THY    CM141381   8.945   3.312   2.164  0.4358 -0.0910  0.0718
17812THY    HM141382   9.018   3.257   2.103 -0.1950 -0.3775 -0.4565
17812THY    HM241383   8.992   3.334   2.261  0.8910  0.3040 -2.3235
17812THY    HM341384   8.925   3.405   2.109 -0.7150  0.1470 -0.0301
17812THY    CA641385   8.769   3.168   2.070 -0.5403  0.5572 -0.1587
17812THY    HA641386   8.828   3.175   1.980 -1.5257 -0.0100  1.0206
17813THY      O41387   8.263   8.269   5.641  0.1661 -0.1200  0.1163
17813THY     HO41388   8.253   8.173   5.645 -0.9297  0.6262  0.2459
17813THY    CA141389   8.374   8.298   5.573 -0.5173 -0.5233 -0.0407
17813THY    CA241390   8.396   8.428   5.521 -0.5729  0.2726 -0.1682
17813THY    CP141391   8.300   8.538   5.553  0.2341 -0.2094  0.0312
17813THY    HP141392   8.220   8.502   5.619  0.6197  0.4540  0.3750
17813THY    CP241393   8.230   8.585   5.434 -0.0981 -0.2773  0.1251
17813THY    HP241394   8.182   8.682   5.452  0.2412 -0.4655  0.3299
17813THY    HP341395   8.149   8.514   5.413 -0.8794  3.0596 -0.1533
17813THY    HP441396   8.302   8.600   5.353 -0.2379 -0.4639 -0.1965
17813THY    CP341397   8.369   8.649   5.629  0.4276 -0.3164  0.4367
17813THY    HP541398   8.472   8.615   5.647  0.6137 -0.1932  1.0498
17813THY    HP641399   8.325   8.670   5.727 -0.5104 -0.4574 -0.7765
17813THY    HP741400   8.381   8.737   5.565  0.7182 -1.4661 -0.4089
17813THY    CA341401   8.512   8.449   5.442 -0.5425  0.2959 -0.8052
17813THY    HA341402   8.527   8.547   5.397  0.9269  1.0120 -0.6692
17813THY    CA441403   8.610   8.344   5.430  0.5350  0.0217  0.0770
17813THY    HA441404   8.697   8.350   5.365  0.5438 -0.3493 -2.6260
17813THY    CA541405   8.586   8.220   5.485 -0.3823 -0.5223  0.5437
17813THY    CM141406   8.691   8.117   5.478 -0.9290 -0.0286 -0.5051
17813THY    HM141407   8.699   8.062   5.572  1.2185 -1.7281 -3.4267
17813THY    HM241408   8.790   8.158   5.458 -1.4251 -2.6436 -0.3614
17813THY    HM341409   8.663   8.029   5.419  0.4439 -0.8871 -0.3919
17813THY    CA641410   8.458   8.191   5.552 -0.8904  0.6980  0.6106
17813THY    HA641411   8.446   8.099   5.609 -1.7797 -2.1531 -1.1557
17814THY      O41412   8.273   1.567   5.958 -0.2137  0.2167  0.7390
17814THY     HO41413   8.338   1.537   5.893 -0.5982  0.7769 -1.5078
17814THY    CA141414   8.328   1.574   6.089 -0.0096  0.6529  0.4271
17814THY    CA241415   8.255   1.615   6.199 -0.0759  0.0356 -0.5058
17814THY    CP141416   8.107   1.672   6.187 -0.4310  0.3488  0.3981
17814THY    HP141417   8.065   1.663   6.086  1.6814 -0.5781  0.3867
17814THY    CP241418   8.102   1.816   6.234  0.3614 -0.1919 -0.8620
17814THY    HP241419   8.154   1.829   6.330  0.8739 -0.4703 -0.8238
17814THY    HP341420   7.999   1.848   6.253  0.4714 -0.1094 -0.5574
17814THY    HP441421   8.153   1.876   6.158 -0.8636  0.0586  0.5233
17814THY    CP341422   8.005   1.587   6.264  0.0534  1.0465 -0.0507
17814THY    HP541423   7.907   1.634   6.275 -0.9033 -0.0460 -1.6974
17814THY    HP641424   8.036   1.561   6.365  0.1114  1.9848  3.1521
17814THY    HP741425   7.991   1.495   6.207 -1.7216  1.0202  0.2104
17814THY    CA341426   8.324   1.614   6.323 -0.6380  0.0997  0.1515
17814THY    HA341427   8.271   1.641   6.414  0.4424  0.9775 -0.6113
17814THY    CA441428   8.467   1.583   6.331 -0.0274 -0.6211  0.0289
17814THY    HA441429   8.510   1.574   6.430 -1.0607 -0.3204 -2.3292
17814THY    CA541430   8.536   1.545   6.218  0.5951  0.1417 -0.7467
17814THY    CM141431   8.682   1.514   6.229 -0.3377  0.0763  0.5009
17814THY    HM141432   8.732   1.593   6.286 -0.5427  0.5372  0.3011
17814THY    HM241433   8.734   1.511   6.132  0.0766  0.3145 -0.3223
17814THY    HM341434   8.698   1.416   6.274  0.1215 -0.0360  0.5227
17814THY    CA641435   8.466   1.539   6.098  0.5968  0.0135  0.0158
17814THY    HA641436   8.520   1.513   6.007 -0.5090 -0.3690 -1.0213
17815THY      O41437   1.277   7.035   4.258 -0.2659  0.4298 -0.1857
17815THY     HO41438   1.283   6.987   4.343 -3.0685  0.0735 -1.3596
17815THY    CA141439   1.353   6.976   4.168 -1.2255 -0.0806  0.1300
17815THY    CA241440   1.308   6.963   4.040  0.4137 -0.2381  0.8398
17815THY    CP141441   1.176   7.021   3.998 -0.2098 -0.0281  0.7062
17815THY    HP141442   1.112   7.022   4.088 -0.4765 -0.2180  1.7391
17815THY    CP241443   1.099   6.942   3.888 -0.0259 -0.0441  0.2048
17815THY    HP241444   0.998   6.985   3.883  0.5604 -0.9693  1.5514
17815THY    HP341445   1.074   6.836   3.902 -1.9299  1.1318  0.7423
17815THY    HP441446   1.135   6.960   3.786 -0.7118 -0.2037  0.7426
17815THY    CP341447   1.200   7.161   3.948 -0.0797 -0.1826 -0.1630
17815THY    HP541448   1.105   7.206   3.919  0.8014 -1.4715  0.9733
17815THY    HP641449   1.272   7.156   3.865  0.3394 -0.0586  2.3705
17815THY    HP741450   1.251   7.225   4.021  2.2490 -2.5498  0.8963
17815THY    CA341451   1.389   6.891   3.953 -0.2027  0.5105 -0.0658
17815THY    HA341452   1.355   6.883   3.851  0.9477 -0.2450  3.2432
17815THY    CA441453   1.509   6.834   3.992  0.2880 -0.8235 -0.4795
17815THY    HA441454   1.559   6.781   3.911  0.4972 -1.4996  0.7319
17815THY    CA541455   1.568   6.872   4.112 -0.5078 -0.3043 -0.6710
17815THY    CM141456   1.703   6.833   4.162 -0.0880 -0.1629 -0.3363
17815THY    HM141457   1.687   6.779   4.255 -0.4501 -0.4338 -0.6962
17815THY    HM241458   1.760   6.923   4.190 -1.0886  0.5137  0.1034
17815THY    HM341459   1.759   6.773   4.089 -0.7067  0.1391 -1.2855
17815THY    CA641460   1.488   6.952   4.195  0.6292 -0.0322  0.0306
17815THY    HA641461   1.533   6.989   4.287  0.2725  0.7872 -1.4857
17816THY      O41462   5.576   2.784   2.975 -0.0001 -0.6715 -0.4473
17816THY     HO41463   5.500   2.799   2.916 -0.3478 -0.1330 -0.0536
17816THY    CA141464   5.589   2.900   3.045 -0.1276 -0.8830  0.9686
17816THY    CA241465   5.677   2.907   3.159 -0.0650 -0.6360 -0.1277
17816THY    CP141466   5.738   2.787   3.224 -0.1054 -0.1455  0.6040
17816THY    HP141467   5.713   2.692   3.176 -2.3017  0.6463  0.7119
17816THY    CP241468   5.690   2.769   3.363 -0.0143  0.5208  0.5642
17816THY    HP241469   5.743   2.685   3.410 -0.8373  1.1864  0.4045
17816THY    HP341470   5.583   2.747   3.356  0.2076 -3.3643  0.0673
17816THY    HP441471   5.704   2.855   3.429  0.8575 -0.1184  0.9344
17816THY    CP341472   5.894   2.799   3.219 -0.3129 -0.3287 -0.0252
17816THY    HP541473   5.924   2.816   3.115  0.4924 -0.2908 -1.1143
17816THY    HP641474   5.940   2.703   3.246 -0.6575  0.8732  0.1288
17816THY    HP741475   5.935   2.869   3.293 -1.2747  0.6215 -0.4298
17816THY    CA341476   5.697   3.026   3.223  0.0451  0.9360 -0.5023
17816THY    HA341477   5.767   3.032   3.306  2.4960 -1.1269  0.9868
17816THY    CA441478   5.634   3.147   3.166 -0.1494 -0.1105 -0.1334
17816THY    HA441479   5.657   3.243   3.211 -1.3646 -1.0820  0.6357
17816THY    CA541480   5.566   3.140   3.045  0.0319  0.7912 -0.2887
17816THY    CM141481   5.515   3.259   2.973 -0.2925  0.5371  0.4704
17816THY    HM141482   5.546   3.265   2.868 -0.0215  0.5534 -0.4473
17816THY    HM241483   5.544   3.356   3.015 -0.5076 -0.0632  0.8005
17816THY    HM341484   5.405   3.266   2.971 -0.3776 -0.8796 -0.6348
17816THY    CA641485   5.538   3.013   2.993 -0.1635  0.3973 -0.3064
17816THY    HA641486   5.480   2.993   2.904  0.0209  0.4211 -0.9786
17817THY      O41487   7.282   0.344   2.970 -0.2952 -0.3004  0.3060
17817THY     HO41488   7.214   0.288   3.010  0.8332 -0.8581 -1.5327
17817THY    CA141489   7.373   0.357   3.073 -0.2325 -0.5487  0.2976
17817THY    CA241490   7.511   0.337   3.046 -0.6968 -0.3620  0.0502
17817THY    CP141491   7.564   0.318   2.902  0.1180 -0.5257 -0.3816
17817THY    HP141492   7.483   0.308   2.828 -0.0019 -0.1004 -3.8193
17817THY    CP241493   7.637   0.186   2.884 -0.1106  0.1809  0.6535
17817THY    HP241494   7.736   0.185   2.930  0.9176 -1.8930 -1.5100
17817THY    HP341495   7.654   0.159   2.779 -0.9188  0.5287 -1.3778
17817THY    HP441496   7.573   0.108   2.926  1.2447  0.0952 -0.5267
17817THY    CP341497   7.652   0.437   2.862 -0.1997 -0.1589  0.0672
17817THY    HP541498   7.684   0.423   2.758 -0.0798  0.1472 -2.3540
17817THY    HP641499   7.739   0.431   2.927 -0.2110 -0.2875 -2.0619
17817THY    HP741500   7.601   0.533   2.876 -0.1229  0.4314  0.0244
17817THY    CA341501   7.600   0.356   3.154  1.1498 -0.4048 -0.0749
17817THY    HA341502   7.706   0.334   3.138  1.4287  1.8129 -0.5988
17817THY    CA441503   7.550   0.384   3.282 -0.5552  0.3244 -0.1601
17817THY    HA441504   7.621   0.377   3.364 -1.0615  0.7186 -0.9336
17817THY    CA541505   7.415   0.405   3.305 -0.4062  0.3295  0.3875
17817THY    CM141506   7.371   0.434   3.447 -0.6887  0.6842  0.0863
17817THY    HM141507   7.408   0.526   3.493 -0.0541  0.4019 -0.0189
17817THY    HM241508   7.417   0.357   3.510  2.2034  1.2953  2.1527
17817THY    HM341509   7.262   0.429   3.458 -0.4789  2.6602 -3.3171
17817THY    CA641510   7.324   0.382   3.200  0.4133 -0.3367  0.0175
17817THY    HA641511   7.218   0.399   3.216  0.9781  1.6995  2.2017
17818THY      O41512   5.383   7.190   7.567 -0.2845  0.1599 -0.5537
17818THY     HO41513   5.295   7.223   7.542 -0.4338  3.1837  1.7763
17818THY    CA141514   5.451   7.303   7.595 -0.3115  0.2164  0.3233
17818THY    CA241515   5.579   7.302   7.657 -1.0048  0.6441  1.0816
17818THY    CP141516   5.635   7.169   7.692  0.1146  0.6317 -0.4601
17818THY    HP141517   5.559   7.091   7.683 -1.1369 -0.4830  0.8419
17818THY    CP241518   5.669   7.159   7.837  0.2193 -0.4941  0.5539
17818THY    HP241519   5.585   7.175   7.905  0.1424  0.1116 -2.0030
17818THY    HP341520   5.743   7.234   7.869 -1.0794  1.3914  1.1020
17818THY    HP441521   5.705   7.058   7.858 -1.2870 -0.3245  0.0293
17818THY    CP341522   5.760   7.139   7.605 -0.4426 -0.3529 -0.1947
17818THY    HP541523   5.724   7.111   7.505  1.3104 -0.2569 -3.1415
17818THY    HP641524   5.805   7.044   7.636 -0.2512  0.4921  0.1640
17818THY    HP741525   5.842   7.212   7.598 -0.4530 -1.1847 -0.2495
17818THY    CA341526   5.664   7.417   7.659 -0.9601 -0.2024  0.0994
17818THY    HA341527   5.768   7.420   7.688 -0.7068 -1.1532  0.7866
17818THY    CA441528   5.605   7.539   7.611  0.5842  0.2779 -0.5816
17818THY    HA441529   5.662   7.631   7.608  0.1055 -0.0823 -0.2920
17818THY    CA541530   5.475   7.537   7.564  0.6284 -0.7774 -0.0825
17818THY    CM141531   5.425   7.654   7.497 -0.6385  0.3624  0.4026
17818THY    HM141532   5.321   7.661   7.530 -1.2080 -1.2473 -0.0007
17818THY    HM241533   5.439   7.644   7.389  1.4776  0.7396 -1.9218
17818THY    HM341534   5.482   7.739   7.536  2.8168 -1.2880 -0.9464
17818THY    CA641535   5.399   7.424   7.558  0.2740 -0.2694  0.6984
17818THY    HA641536   5.304   7.427   7.506  0.7814 -1.3161 -0.3673
17819THY      O41537   7.732   0.621   5.204  0.2831 -0.0710 -0.1847
17819THY     HO41538   7.679   0.539   5.206 -0.8368  0.4626  0.5311
17819THY    CA141539   7.786   0.616   5.084 -0.4282  0.1533 -0.4662
17819THY    CA241540   7.797   0.730   5.002 -0.4591 -0.5844  0.4005
17819THY    CP141541   7.761   0.864   5.058  0.2437  0.3819  0.4500
17819THY    HP141542   7.661   0.849   5.102 -0.1607  0.2896  2.5369
17819THY    CP241543   7.757   0.981   4.949  0.0541 -0.0638 -0.5442
17819THY    HP241544   7.684   0.937   4.880  0.4726 -0.8771  0.0176
17819THY    HP341545   7.856   0.983   4.903  0.4910  0.8531 -0.4261
17819THY    HP441546   7.718   1.080   4.974  0.0789 -2.1337  0.0415
17819THY    CP341547   7.856   0.906   5.169 -0.5442 -0.2356 -0.6072
17819THY    HP541548   7.851   0.825   5.243  0.2113  0.9947  0.4519
17819THY    HP641549   7.824   1.005   5.204  1.0708 -1.0127  0.2305
17819THY    HP741550   7.957   0.919   5.128 -0.6345 -1.4488 -3.1601
17819THY    CA341551   7.856   0.713   4.870 -0.7073  0.0494  0.2654
17819THY    HA341552   7.887   0.799   4.812  1.3877  1.6373  0.6660
17819THY    CA441553   7.889   0.585   4.825  0.0399 -0.3389  1.1893
17819THY    HA441554   7.919   0.557   4.725 -0.6236  0.4126 -3.0347
17819THY    CA541555   7.842   0.469   4.904 -0.0485 -0.5746  0.8969
17819THY    CM141556   7.858   0.334   4.854 -0.5433  0.7612  0.0637
17819THY    HM141557   7.876   0.331   4.746  0.4063  0.9310 -2.2770
17819THY    HM241558   7.767   0.274   4.867 -0.4281 -0.6444 -0.4427
17819THY    HM341559   7.941   0.283   4.904  0.4975 -1.9348 -1.0363
17819THY    CA641560   7.795   0.488   5.031  0.4887  0.2729  0.3705
17819THY    HA641561   7.757   0.403   5.088  1.6183  0.0729 -0.2822
17820THY      O41562   3.907   8.644   5.862  0.4078  0.3937 -0.3373
17820THY     HO41563   3.823   8.596   5.849  0.1323 -1.1143  0.4816
17820THY    CA141564   3.991   8.552   5.918 -0.1779  0.3962 -0.0486
17820THY    CA241565   4.105   8.598   5.998  0.4057  0.5173  0.7492
17820THY    CP141566   4.111   8.743   6.041 -0.1228 -0.5775 -0.6709
17820THY    HP141567   4.040   8.807   5.988  0.5970 -0.9270 -0.1441
17820THY    CP241568   4.250   8.813   6.004  0.4337 -0.1605  0.0256
17820THY    HP241569   4.254   8.919   6.032 -0.8775  1.5243 -0.3266
17820THY    HP341570   4.276   8.793   5.899  1.4009 -0.1402  1.0815
17820THY    HP441571   4.329   8.772   6.068  1.6215 -1.0291  0.8621
17820THY    CP341572   4.089   8.759   6.193 -0.2319  0.1921  0.8786
17820THY    HP541573   3.991   8.715   6.216  0.0505  0.0001  0.1241
17820THY    HP641574   4.092   8.861   6.233 -1.9923  0.3710  0.8946
17820THY    HP741575   4.165   8.696   6.241 -1.8078  1.3010 -0.2423
17820THY    CA341576   4.197   8.502   6.036  0.5931  0.2595  0.0407
17820THY    HA341577   4.287   8.538   6.086 -0.7161  0.7050  2.9248
17820THY    CA441578   4.190   8.370   5.985  0.6063 -0.0185  0.3810
17820THY    HA441579   4.257   8.288   6.010 -1.7148  1.0908 -1.3118
17820THY    CA541580   4.092   8.335   5.896  0.8340  0.0862 -0.4816
17820THY    CM141581   4.094   8.204   5.838 -0.5600  0.4574  0.1323
17820THY    HM141582   4.161   8.133   5.887 -0.0754  0.8167  0.8397
17820THY    HM241583   4.131   8.201   5.735  0.3752  0.7734  0.4917
17820THY    HM341584   3.993   8.159   5.834 -0.2993  0.7078 -0.4875
17820THY    CA641585   3.987   8.423   5.871 -0.2335 -0.5424 -0.2892
17820THY    HA641586   3.898   8.397   5.814 -0.7686  0.5577 -0.9246
17821THY      O41587   7.484   7.622   3.866  0.0701  1.0143  0.1775
17821THY     HO41588   7.559   7.591   3.812 -0.2517  0.0663  1.0115
17821THY    CA141589   7.544   7.704   3.949  0.1176 -0.0717  0.0833
17821THY    CA241590   7.492   7.726   4.079 -0.0700  0.2961  0.0229
17821THY    CP141591   7.374   7.642   4.125  0.0505  0.2427  0.7988
17821THY    HP141592   7.354   7.568   4.047  3.6791 -0.2485  0.1774
17821THY    CP241593   7.252   7.735   4.136 -0.2380  0.0950 -0.0892
17821THY    HP241594   7.163   7.692   4.181 -0.0060  0.2197 -0.4370
17821THY    HP341595   7.220   7.761   4.034 -1.5946  0.8334  1.3111
17821THY    HP441596   7.272   7.826   4.194  1.1949 -2.0161  1.0491
17821THY    CP341597   7.382   7.565   4.261 -0.1331 -0.0598 -0.2030
17821THY    HP541598   7.389   7.644   4.337 -0.0942 -0.8923  0.6156
17821THY    HP641599   7.475   7.507   4.260 -0.4065 -2.3001 -0.6877
17821THY    HP741600   7.289   7.513   4.288 -0.9146 -1.0430  0.6395
17821THY    CA341601   7.550   7.824   4.165  0.1372  0.0562  0.3956
17821THY    HA341602   7.520   7.839   4.269 -1.0315 -0.0758 -0.9185
17821THY    CA441603   7.652   7.904   4.113 -0.1399 -0.0916  0.5670
17821THY    HA441604   7.690   7.987   4.172  1.9952  1.2655 -1.2500
17821THY    CA541605   7.696   7.886   3.977 -0.4966 -0.4070 -0.0772
17821THY    CM141606   7.791   7.989   3.922  0.6374  0.0076 -0.5448
17821THY    HM141607   7.855   7.937   3.849 -0.0081  0.3771 -1.9292
17821THY    HM241608   7.855   8.038   3.995  1.2685 -1.6017  1.1304
17821THY    HM341609   7.726   8.066   3.880 -0.9291  0.4876 -1.5501
17821THY    CA641610   7.641   7.784   3.897 -0.3002 -0.3915 -0.0330
17821THY    HA641611   7.675   7.763   3.796 -0.0367 -0.2501 -0.2850
17822THY      O41612   2.588   6.759   2.855  0.7469 -0.5315  0.1243
17822THY     HO41613   2.521   6.767   2.785  0.1118 -0.1013 -1.2395
17822THY    CA141614   2.583   6.866   2.940  0.6607 -0.2256 -0.0771
17822THY    CA241615   2.587   6.844   3.079  0.3135  0.0188 -0.4483
17822THY    CP141616   2.594   6.701   3.149 -0.2630  0.6311 -0.4071
17822THY    HP141617   2.582   6.629   3.067 -0.0429  1.1033 -0.9848
17822THY    CP241618   2.471   6.683   3.231 -0.4200  0.1005 -0.5913
17822THY    HP241619   2.385   6.716   3.173 -1.2258  0.2979 -2.2452
17822THY    HP341620   2.477   6.739   3.325 -1.3598 -0.2274  0.0803
17822THY    HP441621   2.466   6.575   3.253  2.0624  0.0760 -0.7708
17822THY    CP341622   2.730   6.687   3.214 -0.6075  0.4836  0.9414
17822THY    HP541623   2.746   6.595   3.271  0.7494 -1.9765 -0.4474
17822THY    HP641624   2.747   6.773   3.280  0.5016 -1.2119  2.0682
17822THY    HP741625   2.815   6.701   3.148 -0.6729  0.6441  2.2652
17822THY    CA341626   2.574   6.953   3.163 -0.3783 -0.5359  0.2060
17822THY    HA341627   2.585   6.944   3.271 -0.8747 -0.5240 -0.3246
17822THY    CA441628   2.558   7.076   3.103  0.3681  0.1041  0.2451
17822THY    HA441629   2.566   7.161   3.171  2.0403  1.3319 -0.8457
17822THY    CA541630   2.550   7.097   2.972  0.7435  0.8000  0.5749
17822THY    CM141631   2.538   7.235   2.920  0.2237  0.5075 -0.2211
17822THY    HM141632   2.634   7.283   2.939  0.7519 -1.8862 -0.1905
17822THY    HM241633   2.451   7.291   2.954  1.2203  1.4182  0.8236
17822THY    HM341634   2.545   7.234   2.811  1.7441  0.5693  0.5304
17822THY    CA641635   2.558   6.997   2.889  0.1794  0.6401  0.5838
17822THY    HA641636   2.560   7.012   2.782 -3.2207  0.0734 -1.8318
17823THY      O41637   2.170   1.722   7.805  0.1167  0.2887  0.6481
17823THY     HO41638   2.139   1.632   7.822 -3.0980 -0.8997  1.4011
17823THY    CA141639   2.158   1.721   7.671  0.0410 -0.4385 -0.0244
17823THY    CA241640   2.190   1.829   7.589  0.5845 -0.4419 -0.0498
17823THY    CP141641   2.215   1.967   7.649 -0.4378  0.4953 -0.4014
17823THY    HP141642   2.258   1.948   7.748 -1.7113  1.2979  0.7195
17823THY    CP241643   2.092   2.064   7.648 -0.0913  0.0648 -0.3961
17823THY    HP241644   2.002   2.015   7.686 -0.1721 -0.1321 -0.4028
17823THY    HP341645   2.076   2.102   7.546  5.6830 -0.5466  1.5022
17823THY    HP441646   2.110   2.158   7.702  1.2871 -0.0053 -0.5886
17823THY    CP341647   2.335   2.038   7.591  0.3822  0.5607  0.1069
17823THY    HP541648   2.364   2.128   7.646  1.0526  0.6603 -0.1625
17823THY    HP641649   2.304   2.064   7.489  1.2483  0.1897 -0.2480
17823THY    HP741650   2.425   1.974   7.591  0.1921  1.0223 -0.1605
17823THY    CA341651   2.158   1.814   7.453  0.2252  0.5711 -0.7718
17823THY    HA341652   2.185   1.899   7.390  1.0618 -0.0700 -1.4904
17823THY    CA441653   2.112   1.690   7.400  0.2315 -0.4212 -1.2524
17823THY    HA441654   2.087   1.680   7.295  0.8844 -0.9359  1.5706
17823THY    CA541655   2.107   1.582   7.484  0.0740  0.0520  0.2712
17823THY    CM141656   2.081   1.438   7.436 -0.5351 -0.1536 -0.0529
17823THY    HM141657   2.012   1.381   7.500 -0.6530  0.1854  0.4626
17823THY    HM241658   2.177   1.385   7.429  0.0473 -2.9050  1.2102
17823THY    HM341659   2.041   1.432   7.334  1.1448 -0.8201 -0.6291
17823THY    CA641660   2.127   1.596   7.623  0.3178 -0.3570 -0.1003
17823THY    HA641661   2.109   1.509   7.686  0.8053 -1.0900 -0.7498
17824THY      O41662   5.772   1.097   4.218  0.4898  0.1905 -0.1128
17824THY     HO41663   5.683   1.066   4.197  2.0217 -2.8761 -3.0215
17824THY    CA141664   5.839   1.116   4.096 -0.0166 -0.1236  0.2762
17824THY    CA241665   5.978   1.097   4.084 -0.1147 -0.3866  0.7340
17824THY    CP141666   6.065   1.056   4.204  0.0720  0.1398  0.0914
17824THY    HP141667   6.008   1.048   4.298 -2.1181 -1.2003 -1.1492
17824THY    CP241668   6.169   1.168   4.226  0.1483  0.3837 -0.3161
17824THY    HP241669   6.117   1.262   4.247  1.2002 -0.2275  0.4228
17824THY    HP341670   6.232   1.175   4.137 -1.4537 -0.8073 -0.4389
17824THY    HP441671   6.241   1.132   4.300 -0.1096  0.6848 -0.2197
17824THY    CP341672   6.133   0.927   4.198 -0.5269  0.2898 -0.4517
17824THY    HP541673   6.056   0.849   4.190  0.4315 -0.8104 -1.3102
17824THY    HP641674   6.199   0.915   4.285  0.9951 -0.8238 -0.2855
17824THY    HP741675   6.191   0.930   4.106 -1.7587 -0.5523 -1.5788
17824THY    CA341676   6.038   1.129   3.960  0.2797 -0.5935 -0.2208
17824THY    HA341677   6.143   1.130   3.936  0.4343 -0.0903 -2.0175
17824THY    CA441678   5.958   1.164   3.853  0.0799 -0.1946 -0.0084
17824THY    HA441679   6.016   1.172   3.761  0.4783 -0.2119 -2.2603
17824THY    CA541680   5.819   1.159   3.859 -0.0163 -0.1506 -0.7714
17824THY    CM141681   5.749   1.195   3.734 -0.2137  1.1783  0.2087
17824THY    HM141682   5.641   1.178   3.733 -0.2694  2.4596  0.3898
17824THY    HM241683   5.797   1.141   3.652 -1.5954  0.2843  0.3051
17824THY    HM341684   5.774   1.300   3.718  2.3859  0.9725 -0.3683
17824THY    CA641685   5.761   1.137   3.986 -0.3710 -0.2983 -0.3441
17824THY    HA641686   5.654   1.150   3.997 -0.2225  0.5785  0.2077
17825THY      O41687   1.298   6.252   5.690 -0.2051 -0.2450 -0.1422
17825THY     HO41688   1.202   6.262   5.676 -0.7547  1.1662 -2.7332
17825THY    CA141689   1.327   6.139   5.621 -0.0193  0.3092 -0.4784
17825THY    CA241690   1.422   6.039   5.662  0.7457  0.3593 -0.7241
17825THY    CP141691   1.505   6.052   5.790  0.3678 -0.0491 -0.0240
17825THY    HP141692   1.460   6.131   5.852 -0.0514 -1.2290  0.6854
17825THY    CP241693   1.656   6.078   5.765 -0.9479  0.2977  0.0015
17825THY    HP241694   1.690   5.991   5.706  0.4420 -0.5078  1.0424
17825THY    HP341695   1.710   6.086   5.860  0.7294 -0.6009 -0.0844
17825THY    HP441696   1.671   6.165   5.700  0.8454 -0.6904 -0.9544
17825THY    CP341697   1.497   5.925   5.877  0.2949 -0.4398  0.0451
17825THY    HP541698   1.394   5.902   5.905  0.3749  0.3850  0.6595
17825THY    HP641699   1.551   5.950   5.969  1.9087 -0.2765 -3.4907
17825THY    HP741700   1.550   5.841   5.829  2.4614  0.9938  0.5104
17825THY    CA341701   1.439   5.930   5.575 -0.1582 -0.6858 -0.4194
17825THY    HA341702   1.516   5.857   5.601  1.4376  1.0172  1.7545
17825THY    CA441703   1.374   5.917   5.453 -0.1397 -0.6344  0.5140
17825THY    HA441704   1.398   5.828   5.396  1.3140 -0.3960  0.7190
17825THY    CA541705   1.283   6.012   5.416  0.1046 -0.0842 -0.3190
17825THY    CM141706   1.208   5.983   5.289  0.4035  0.3497  0.0700
17825THY    HM141707   1.228   6.064   5.218  0.2727  0.4767  0.2130
17825THY    HM241708   1.099   5.981   5.305  0.5724  1.8322  0.9867
17825THY    HM341709   1.244   5.887   5.252  0.4982  0.7006 -0.0301
17825THY    CA641710   1.256   6.128   5.505  0.2403  1.0221  1.0183
17825THY    HA641711   1.191   6.208   5.473 -0.7310  1.9110  0.6003
17826THY      O41712   3.158   5.480   6.177 -0.0927  0.2281 -0.0034
17826THY     HO41713   3.214   5.556   6.154 -0.4533 -1.3404 -0.1793
17826THY    CA141714   3.109   5.438   6.060  0.0364 -0.2155 -0.3059
17826THY    CA241715   3.013   5.336   6.057 -0.4424 -0.8664 -0.5466
17826THY    CP141716   2.951   5.287   6.191  0.2400  0.8774  0.1807
17826THY    HP141717   2.981   5.353   6.273  0.7499  0.6202  0.2722
17826THY    CP241718   2.978   5.132   6.216  0.1233  0.0630 -0.5368
17826THY    HP241719   2.946   5.104   6.317 -0.8243  0.7241  2.5446
17826THY    HP341720   3.082   5.099   6.207 -0.4148 -3.4874 -1.7492
17826THY    HP441721   2.927   5.072   6.139 -3.4542  0.4653  1.6981
17826THY    CP341722   2.799   5.297   6.203 -0.1896  0.3467 -0.5321
17826THY    HP541723   2.761   5.389   6.159  0.1956 -0.9835 -0.9940
17826THY    HP641724   2.759   5.283   6.304 -0.0479  0.6726  1.1984
17826THY    HP741725   2.740   5.224   6.148 -1.8809 -1.9803  2.3552
17826THY    CA341726   2.961   5.290   5.935 -0.5091  0.6516 -0.0138
17826THY    HA341727   2.880   5.217   5.935 -1.0305  0.3394  0.5475
17826THY    CA441728   3.008   5.335   5.820 -0.0772  0.2365 -0.4670
17826THY    HA441729   2.971   5.300   5.724  0.5380 -0.2440  0.1536
17826THY    CA541730   3.102   5.442   5.822  0.2399  0.3173 -0.4701
17826THY    CM141731   3.151   5.514   5.693  0.0063  0.0064  0.1409
17826THY    HM141732   3.250   5.474   5.667 -0.3786  0.1770 -0.9799
17826THY    HM241733   3.152   5.623   5.696  1.3959  0.0313  0.1409
17826THY    HM341734   3.091   5.490   5.605  2.6633 -2.0804  0.6997
17826THY    CA641735   3.158   5.487   5.941 -0.4125  0.6929  0.3933
17826THY    HA641736   3.229   5.569   5.939 -2.8927  1.0342  2.6667
17827THY      O41737   6.591   5.738   3.749  0.0026 -0.4855 -0.3022
17827THY     HO41738   6.667   5.799   3.755  1.4109 -1.2698 -1.8994
17827THY    CA141739   6.476   5.810   3.742  0.4170  0.1600  0.1350
17827THY    CA241740   6.353   5.753   3.773  0.3333  0.1757  0.1129
17827THY    CP141741   6.349   5.606   3.823 -0.4984  0.4143 -0.1354
17827THY    HP141742   6.446   5.559   3.805  0.9991  1.2220  2.4373
17827THY    CP241743   6.243   5.522   3.757  0.2993  0.0271 -0.2454
17827THY    HP241744   6.239   5.421   3.799  1.6682  1.8287  0.3978
17827THY    HP341745   6.273   5.515   3.652  1.5609  0.4238 -1.1375
17827THY    HP441746   6.144   5.567   3.768 -0.0908 -1.3118 -0.7391
17827THY    CP341747   6.321   5.607   3.973 -0.3379  0.3591 -0.3500
17827THY    HP541748   6.255   5.685   4.011 -0.0393  3.5296 -1.4840
17827THY    HP641749   6.418   5.633   4.018 -0.4744  1.1075 -1.0858
17827THY    HP741750   6.277   5.514   4.010 -1.3582 -1.2166 -0.5379
17827THY    CA341751   6.238   5.838   3.755 -0.4351 -0.3572  0.2367
17827THY    HA341752   6.137   5.808   3.779 -0.0234 -0.0870 -0.9935
17827THY    CA441753   6.256   5.972   3.711 -0.6189 -0.5398  0.0989
17827THY    HA441754   6.166   6.031   3.697 -0.9640  1.6914  0.2027
17827THY    CA541755   6.379   6.018   3.669 -0.2924  0.1030 -0.0208
17827THY    CM141756   6.402   6.158   3.616 -0.0660 -0.2177  0.1278
17827THY    HM141757   6.421   6.156   3.508 -0.6459 -0.3264  0.0286
17827THY    HM241758   6.469   6.223   3.673  0.9905 -2.2765  0.9472
17827THY    HM341759   6.314   6.224   3.616 -0.2509  0.0186 -0.1161
17827THY    CA641760   6.488   5.933   3.683  0.5004 -0.1598 -0.1791
17827THY    HA641761   6.586   5.973   3.659  0.0002  0.2027  1.3353
17828THY      O41762   1.726   4.478   7.563 -0.1008  0.4243 -0.1325
17828THY     HO41763   1.817   4.446   7.576  0.3130 -1.2605  0.2929
17828THY    CA141764   1.732   4.614   7.567 -0.4154  0.5666  0.0671
17828THY    CA241765   1.651   4.705   7.500 -0.6554  0.4700 -0.1666
17828THY    CP141766   1.521   4.662   7.434  0.3762  0.3231  0.8937
17828THY    HP141767   1.463   4.618   7.516 -0.6442  1.2146  3.6592
17828THY    CP241768   1.560   4.552   7.329 -0.6330  0.0555  0.5668
17828THY    HP241769   1.597   4.459   7.372  0.0193 -0.7394  0.4433
17828THY    HP341770   1.626   4.586   7.248  2.3276  1.2636 -1.8588
17828THY    HP441771   1.472   4.515   7.273  0.6758 -1.6286 -0.1330
17828THY    CP341772   1.446   4.768   7.352 -0.4769  0.0089  0.3117
17828THY    HP541773   1.504   4.800   7.264  2.8034  1.6093 -0.7777
17828THY    HP641774   1.416   4.850   7.419 -2.7774 -0.1426 -0.3331
17828THY    HP741775   1.345   4.734   7.325 -0.2675 -0.2605 -0.1070
17828THY    CA341776   1.693   4.839   7.479  0.2206 -0.1778  0.8097
17828THY    HA341777   1.638   4.904   7.411  1.4306 -1.8275  0.1638
17828THY    CA441778   1.811   4.873   7.545 -0.4422  0.6770  0.6212
17828THY    HA441779   1.844   4.976   7.530 -0.7230 -1.9978  0.4130
17828THY    CA541780   1.884   4.789   7.626  0.0156  0.3997 -0.4579
17828THY    CM141781   2.016   4.835   7.685 -0.2166  0.8971  0.5180
17828THY    HM141782   2.002   4.838   7.793  0.0543  0.9286  0.7227
17828THY    HM241783   2.032   4.939   7.653 -2.2878 -2.1225  0.0487
17828THY    HM341784   2.101   4.769   7.663 -0.8809  0.3407 -0.1741
17828THY    CA641785   1.847   4.658   7.629  0.2129 -0.7891 -0.1776
17828THY    HA641786   1.914   4.596   7.688  1.7146 -0.9274  1.2285
17829THY      O41787   2.875   1.886   2.702 -0.5578 -0.0838 -0.3109
17829THY     HO41788   2.851   1.943   2.627 -0.5295  0.1273 -0.0200
17829THY    CA141789   2.782   1.905   2.799  0.5881 -0.3154 -0.6241
17829THY    CA241790   2.769   1.814   2.907  0.1198 -0.0471  0.9683
17829THY    CP141791   2.851   1.689   2.925  0.2409  0.4313 -0.1557
17829THY    HP141792   2.908   1.672   2.834 -0.0379 -0.1098  1.5475
17829THY    CP241793   2.765   1.561   2.947 -0.1284  0.7775  0.6438
17829THY    HP241794   2.684   1.565   2.874 -0.7227  1.3391 -0.4236
17829THY    HP341795   2.723   1.554   3.048  0.9966  1.2335  0.2042
17829THY    HP441796   2.822   1.470   2.922  1.3080 -3.2240  2.4429
17829THY    CP341797   2.942   1.688   3.045 -0.9969  0.1954  0.2125
17829THY    HP541798   3.020   1.766   3.043  0.5673  1.2096 -1.2470
17829THY    HP641799   2.984   1.587   3.055 -0.2570 -0.5637  0.4336
17829THY    HP741800   2.895   1.704   3.143  0.2885  1.1121 -1.2515
17829THY    CA341801   2.674   1.846   3.011  0.3942  0.0976  1.1005
17829THY    HA341802   2.663   1.791   3.105  0.2834 -1.2739 -1.3796
17829THY    CA441803   2.592   1.960   2.994 -0.5560 -0.3946 -0.3944
17829THY    HA441804   2.521   1.991   3.070  0.4153  0.5603 -0.4329
17829THY    CA541805   2.609   2.042   2.884  1.0107  0.7571  0.0255
17829THY    CM141806   2.520   2.149   2.852 -0.2376 -0.0512 -0.6201
17829THY    HM141807   2.419   2.115   2.878 -0.6423  1.3076  1.4609
17829THY    HM241808   2.514   2.180   2.747 -0.5741  0.2020  0.2157
17829THY    HM341809   2.547   2.235   2.914  0.2326  0.1762 -0.9315
17829THY    CA641810   2.696   2.011   2.784  0.0337 -0.2495 -0.3751
17829THY    HA641811   2.710   2.078   2.700  1.1125  0.1182 -0.1320
17830THY      O41812   4.031   9.186   4.557 -0.1331  0.3507  0.1696
17830THY     HO41813   3.976   9.194   4.637 -0.4485 -0.0168  2.1025
17830THY    CA141814   4.103   9.082   4.595 -0.3474 -0.7084 -0.3795
17830THY    CA241815   4.202   9.028   4.513  0.0208  0.1564  0.1003
17830THY    CP141816   4.226   9.095   4.378 -0.2340 -0.3072  0.0045
17830THY    HP141817   4.145   9.157   4.339  0.1200 -0.0969  0.6075
17830THY    CP241818   4.253   8.999   4.262 -0.2663  0.3359 -0.2579
17830THY    HP241819   4.355   8.959   4.266 -0.2180 -0.0172 -0.1749
17830THY    HP341820   4.250   9.048   4.164 -0.6912  0.1248 -0.6986
17830THY    HP441821   4.171   8.930   4.285 -3.2915 -0.6092  2.7534
17830THY    CP341822   4.352   9.180   4.391 -0.4147  0.6309 -0.4561
17830THY    HP541823   4.385   9.216   4.293 -1.3100  0.0076 -1.2800
17830THY    HP641824   4.441   9.132   4.435 -0.6363  1.1617 -0.3825
17830THY    HP741825   4.325   9.264   4.455  0.8162  1.8603 -0.9655
17830THY    CA341826   4.264   8.907   4.554 -0.4928 -0.0934  0.9587
17830THY    HA341827   4.348   8.865   4.498  0.1824  1.2924  0.3987
17830THY    CA441828   4.241   8.857   4.682  0.5652  0.1861  0.0273
17830THY    HA441829   4.292   8.770   4.722 -0.4796  0.6127 -0.4149
17830THY    CA541830   4.146   8.919   4.768  0.0579 -0.8181  0.0313
17830THY    CM141831   4.114   8.864   4.911 -0.2900 -1.0929 -0.3972
17830THY    HM141832   4.100   8.755   4.910  2.7822  1.4376 -0.9696
17830THY    HM241833   4.030   8.912   4.962 -0.5037 -1.7191 -0.0986
17830THY    HM341834   4.201   8.884   4.975 -0.5425 -0.2178 -1.9315
17830THY    CA641835   4.075   9.029   4.721  0.3090  0.1169 -0.6112
17830THY    HA641836   4.002   9.075   4.788 -1.4843  1.9581 -5.4770
17831THY      O41837   5.231   3.242   7.336  0.6081  0.1069 -0.3849
17831THY     HO41838   5.201   3.288   7.256  0.2046  0.6477  0.3095
17831THY    CA141839   5.344   3.308   7.364 -0.1810 -0.5906  0.3293
17831THY    CA241840   5.411   3.286   7.488 -0.6649  0.3783  0.0616
17831THY    CP141841   5.350   3.192   7.592  0.3942  0.2099  0.2061
17831THY    HP141842   5.241   3.201   7.587  0.4510 -0.2791  0.6892
17831THY    CP241843   5.383   3.227   7.739  0.2320  0.2683 -0.6564
17831THY    HP241844   5.347   3.329   7.754  0.7127  1.1406 -0.6077
17831THY    HP341845   5.492   3.242   7.749  0.0680  0.7403  0.2667
17831THY    HP441846   5.348   3.148   7.807 -0.5076  0.9592  0.2525
17831THY    CP341847   5.384   3.044   7.554  0.2829 -0.0259 -0.2994
17831THY    HP541848   5.333   2.972   7.618 -0.1207 -0.0255 -0.0181
17831THY    HP641849   5.491   3.026   7.545 -0.0977 -3.1533 -1.7569
17831THY    HP741850   5.347   3.038   7.451 -1.0531  0.4279 -0.1917
17831THY    CA341851   5.537   3.348   7.513  0.5483  0.3523 -0.0918
17831THY    HA341852   5.603   3.337   7.598 -1.8561  2.2972 -0.2882
17831THY    CA441853   5.585   3.438   7.411 -0.0528 -0.7241 -0.4133
17831THY    HA441854   5.680   3.489   7.425 -0.6885  2.7948  0.0614
17831THY    CA541855   5.523   3.447   7.286 -0.2309  0.4672 -0.2340
17831THY    CM141856   5.566   3.525   7.168  0.6085 -0.9838  0.2001
17831THY    HM141857   5.494   3.606   7.149 -0.4627  2.1072  0.1134
17831THY    HM241858   5.584   3.444   7.097 -0.7042 -1.8266  0.6123
17831THY    HM341859   5.657   3.578   7.199 -0.3390 -0.2109  1.4629
17831THY    CA641860   5.398   3.389   7.272 -0.1956  0.0635 -0.1329
17831THY    HA641861   5.349   3.409   7.177 -1.4622  1.1930  2.6561
17832THY      O41862   1.564   7.059   3.638  0.5369 -0.2654 -0.1317
17832THY     HO41863   1.553   7.125   3.708 -2.5297 -0.7014 -0.0342
17832THY    CA141864   1.682   6.997   3.657  0.1011  1.0277  0.0340
17832THY    CA241865   1.715   6.886   3.575  0.0036 -0.3576  0.5541
17832THY    CP141866   1.609   6.833   3.476  0.2702  0.0431 -0.3570
17832THY    HP141867   1.539   6.915   3.458  0.4359 -2.6262 -0.7287
17832THY    CP241868   1.539   6.709   3.542  0.1123  0.3467  0.0046
17832THY    HP241869   1.438   6.703   3.502  0.1794  0.3091 -1.1240
17832THY    HP341870   1.536   6.722   3.651  2.9709  0.7267 -1.6376
17832THY    HP441871   1.591   6.614   3.529 -1.7188 -2.4222 -0.7303
17832THY    CP341872   1.657   6.804   3.335 -0.4995  0.2000  0.2731
17832THY    HP541873   1.737   6.728   3.334 -0.6325 -0.2057  0.1316
17832THY    HP641874   1.703   6.893   3.291 -1.6761  1.5726  1.5899
17832THY    HP741875   1.570   6.773   3.276  1.0421 -0.9935 -2.1818
17832THY    CA341876   1.834   6.813   3.601  0.7714  0.8042  0.1944
17832THY    HA341877   1.845   6.722   3.543  0.3683 -0.2144  0.7703
17832THY    CA441878   1.909   6.853   3.703  0.0772 -0.5916  0.3474
17832THY    HA441879   2.000   6.794   3.707  0.5971  0.1597  1.1742
17832THY    CA541880   1.873   6.955   3.793  0.0978 -0.9542 -0.1907
17832THY    CM141881   1.964   6.981   3.915 -0.3217  0.3901 -0.5154
17832THY    HM141882   1.911   7.032   3.996 -0.8282 -0.2069 -0.0713
17832THY    HM241883   2.054   7.035   3.883 -1.2499 -1.5572 -0.0486
17832THY    HM341884   2.001   6.888   3.960  1.4824 -1.0275 -0.5434
17832THY    CA641885   1.767   7.041   3.760  1.2159 -0.7496 -0.3076
17832THY    HA641886   1.747   7.121   3.831  0.8029 -0.6136 -0.5330
17833THY      O41887   3.415   6.931   4.794 -0.0077 -0.6638 -0.0650
17833THY     HO41888   3.464   6.941   4.711 -1.9903 -1.6665  2.5677
17833THY    CA141889   3.302   6.994   4.769 -0.5528  0.1733 -0.1032
17833THY    CA241890   3.190   6.978   4.856 -0.1079  0.0633 -0.0581
17833THY    CP141891   3.199   6.905   4.989 -0.1864 -0.8703 -0.0302
17833THY    HP141892   3.283   6.835   4.988  1.0163  0.3683  1.3438
17833THY    CP241893   3.080   6.808   5.011  0.0888 -0.2825 -0.5179
17833THY    HP241894   2.993   6.872   5.028  0.8308 -3.0009  1.3900
17833THY    HP341895   3.104   6.747   5.099  0.3464 -0.5375 -0.7875
17833THY    HP441896   3.078   6.750   4.918  1.3606 -0.8904  0.3599
17833THY    CP341897   3.223   6.998   5.112 -0.2932 -0.7221 -0.7577
17833THY    HP541898   3.160   7.087   5.120  1.4431  0.1005  0.4643
17833THY    HP641899   3.332   7.011   5.118 -0.1845  0.0629 -1.9147
17833THY    HP741900   3.197   6.951   5.207  1.6317  0.0053 -0.4535
17833THY    CA341901   3.065   7.037   4.814 -0.2362 -0.4080  0.2381
17833THY    HA341902   2.985   7.044   4.887  0.1852  0.1160 -0.3115
17833THY    CA441903   3.061   7.115   4.694  0.1151  0.1849  0.1469
17833THY    HA441904   2.970   7.162   4.659  1.3049 -1.3065  1.4337
17833THY    CA541905   3.180   7.130   4.612 -0.0430  0.5503  1.1462
17833THY    CM141906   3.155   7.205   4.491 -0.3692  0.5000 -0.2468
17833THY    HM141907   3.063   7.165   4.446 -1.3074  2.8193 -0.8653
17833THY    HM241908   3.239   7.192   4.422  0.2922  1.3742 -0.6946
17833THY    HM341909   3.128   7.310   4.511 -0.5799 -0.0162 -0.1995
17833THY    CA641910   3.302   7.074   4.654  0.1662 -0.3287  0.5596
17833THY    HA641911   3.386   7.071   4.585 -0.9143 -1.6353 -1.0777
17834THY      O41912   1.800   0.122   3.106 -0.0011  0.1741  0.3507
17834THY     HO41913   1.882   0.093   3.150  0.4296  0.1757  1.5033
17834THY    CA141914   1.838   0.221   3.021 -0.6070  0.7977  0.0172
17834THY    CA241915   1.754   0.331   2.997 -0.4934  0.1369 -0.3505
17834THY    CP141916   1.614   0.332   3.045  0.6684 -0.2190  0.8210
17834THY    HP141917   1.607   0.274   3.138 -1.2332 -0.9360 -0.2311
17834THY    CP241918   1.535   0.256   2.938  0.6291 -0.0357 -0.8473
17834THY    HP241919   1.575   0.156   2.917 -0.4293 -0.0923 -1.2708
17834THY    HP341920   1.528   0.309   2.842  0.3782 -1.7296 -3.7108
17834THY    HP441921   1.435   0.253   2.982  1.0639  1.2006  1.0458
17834THY    CP341922   1.558   0.465   3.065  0.2304 -0.3963  0.1743
17834THY    HP541923   1.532   0.528   2.979  0.9332 -1.3754 -0.8384
17834THY    HP641924   1.633   0.512   3.130  0.7823 -1.1353  0.3196
17834THY    HP741925   1.462   0.466   3.120  0.6471  0.3464  0.5094
17834THY    CA341926   1.809   0.445   2.926  0.3337  0.6487  0.3904
17834THY    HA341927   1.752   0.537   2.916  1.4783 -1.0116  0.9734
17834THY    CA441928   1.937   0.436   2.872  0.5503  0.2703 -0.2687
17834THY    HA441929   1.983   0.523   2.827  1.4450  1.1350 -0.2785
17834THY    CA541930   2.016   0.321   2.899 -0.7632  0.4812 -0.3656
17834THY    CM141931   2.154   0.307   2.837  0.1003 -0.2504  0.2070
17834THY    HM141932   2.196   0.212   2.872  0.8106  0.3138  0.7149
17834THY    HM241933   2.225   0.378   2.883  0.4189  1.9088 -1.4161
17834THY    HM341934   2.172   0.316   2.729 -0.0358 -0.2331  0.7199
17834THY    CA641935   1.975   0.215   2.974  0.1536  0.3698  0.1651
17834THY    HA641936   2.044   0.132   2.986  1.0765 -2.0144  0.4971
17835THY      O41937   8.021   0.810   4.337 -0.4818  0.4109 -0.0654
17835THY     HO41938   8.104   0.859   4.350  0.3339  0.1904 -1.3428
17835THY    CA141939   7.922   0.860   4.416 -0.1857 -1.0741  0.0776
17835THY    CA241940   7.810   0.788   4.455 -0.6133 -0.4044 -0.9575
17835THY    CP141941   7.803   0.644   4.417 -0.3896  1.4850  0.0542
17835THY    HP141942   7.902   0.597   4.426 -0.0858 -0.6317  0.1862
17835THY    CP241943   7.766   0.611   4.272 -0.2568  0.1654 -0.0894
17835THY    HP241944   7.664   0.649   4.258 -0.1593  3.2252  1.6677
17835THY    HP341945   7.774   0.504   4.250 -0.1827  1.4437 -0.3621
17835THY    HP441946   7.832   0.663   4.202  1.9231  2.8931  1.0806
17835THY    CP341947   7.720   0.550   4.505  0.0863 -0.2909 -0.1460
17835THY    HP541948   7.612   0.543   4.488  0.2616 -0.9690 -1.5823
17835THY    HP641949   7.734   0.596   4.604  0.4815  0.1109 -1.1056
17835THY    HP741950   7.765   0.450   4.509  1.2461 -3.3933  0.1291
17835THY    CA341951   7.706   0.851   4.532  0.1039  0.8352 -0.3197
17835THY    HA341952   7.620   0.806   4.581  0.1716  2.0610  0.7997
17835THY    CA441953   7.731   0.992   4.557 -0.3471 -0.7178  0.1519
17835THY    HA441954   7.662   1.048   4.620  0.0026 -0.8223  0.7030
17835THY    CA541955   7.843   1.063   4.515 -0.6145  0.0261  0.2817
17835THY    CM141956   7.869   1.207   4.545 -0.2633  0.6924 -0.2461
17835THY    HM141957   7.793   1.261   4.487  0.0025 -0.6116 -1.2106
17835THY    HM241958   7.973   1.227   4.518 -0.1824  0.0436 -1.4459
17835THY    HM341959   7.852   1.223   4.652 -0.9919  0.4358  0.8215
17835THY    CA641960   7.940   0.993   4.446 -0.1428  0.0323 -0.4657
17835THY    HA641961   8.027   1.047   4.411 -1.3419  1.2355  2.5400
17836THY      O41962   6.742   2.840   3.397  0.4123  0.2963  0.3150
17836THY     HO41963   6.666   2.829   3.456  0.5319  0.3260 -0.4063
17836THY    CA141964   6.699   2.786   3.282 -0.0422 -0.1952 -0.1639
17836THY    CA241965   6.783   2.725   3.179  0.1729  0.3867 -0.2406
17836THY    CP141966   6.933   2.750   3.174  0.4997  0.0619  0.0703
17836THY    HP141967   6.963   2.797   3.268 -1.5916  1.2429 -0.7623
17836THY    CP241968   6.980   2.840   3.053  0.4622  0.0283 -0.5914
17836THY    HP241969   6.913   2.927   3.050  2.6713  2.8712  1.3689
17836THY    HP341970   6.972   2.793   2.954 -0.7146 -1.7687  2.9924
17836THY    HP441971   7.078   2.889   3.055 -0.6509  0.2008  1.7958
17836THY    CP341972   7.007   2.614   3.163 -0.5947  0.4100 -0.6279
17836THY    HP541973   6.988   2.568   3.066 -0.4929 -1.0303  2.1911
17836THY    HP641974   6.996   2.546   3.249  2.7269  0.6548 -0.9895
17836THY    HP741975   7.116   2.616   3.159 -0.6080 -0.8761 -1.5078
17836THY    CA341976   6.724   2.669   3.066 -0.0411 -0.1045  0.1872
17836THY    HA341977   6.784   2.619   2.990 -0.1860  0.1803 -0.4372
17836THY    CA441978   6.584   2.656   3.071 -0.1565  0.5157 -0.2333
17836THY    HA441979   6.537   2.599   2.992  0.4512  0.8498 -1.2095
17836THY    CA541980   6.504   2.712   3.167 -0.0791 -0.1623 -0.1370
17836THY    CM141981   6.357   2.697   3.157 -0.4442  0.5483 -0.1706
17836THY    HM141982   6.310   2.776   3.097  0.1906  0.3676  0.0833
17836THY    HM241983   6.309   2.708   3.254 -0.4392  0.3367  2.4900
17836THY    HM341984   6.333   2.602   3.109 -1.4166  0.8269 -0.0763
17836THY    CA641985   6.561   2.771   3.282 -0.0032  0.7123 -0.3443
17836THY    HA641986   6.502   2.808   3.365 -1.6246  0.2182 -1.6886
17837THY      O41987   1.984   3.721   5.575 -0.9932 -0.0926 -0.0014
17837THY     HO41988   2.002   3.700   5.482  0.2060  0.4029 -1.3140
17837THY    CA141989   2.058   3.632   5.641 -0.1574 -0.0788  0.1440
17837THY    CA241990   1.997   3.560   5.741 -0.1677 -0.2413 -0.4443
17837THY    CP141991   1.848   3.583   5.776  0.7405 -0.2093 -0.9305
17837THY    HP141992   1.785   3.606   5.689  1.1787 -0.2965 -0.0134
17837THY    CP241993   1.848   3.701   5.863 -0.0655 -0.3642 -0.5411
17837THY    HP241994   1.886   3.784   5.803  1.0968  1.3681  0.2506
17837THY    HP341995   1.916   3.679   5.946 -0.2692 -0.3138 -0.9986
17837THY    HP441996   1.748   3.720   5.906 -0.9496 -2.2477 -0.7577
17837THY    CP341997   1.768   3.470   5.843 -0.2403  0.0615 -0.2585
17837THY    HP541998   1.746   3.402   5.760 -2.0944 -1.0118  1.5568
17837THY    HP641999   1.673   3.502   5.887 -0.2809  0.3705 -0.7925
17837THY    HP742000   1.832   3.429   5.922  1.8871 -0.9309  0.9819
17837THY    CA342001   2.073   3.454   5.797  0.4203  0.0426 -0.4795
17837THY    HA342002   2.034   3.378   5.865  3.0514  0.9737 -1.1147
17837THY    CA442003   2.202   3.435   5.762 -0.4975  0.4868  0.4565
17837THY    HA442004   2.258   3.346   5.790  0.9865 -0.8460  0.9194
17837THY    CA542005   2.263   3.510   5.662  0.4701 -0.0195 -0.0010
17837THY    CM142006   2.405   3.494   5.624 -0.0991  0.0141 -1.0168
17837THY    HM142007   2.432   3.391   5.648  1.2354 -1.7444 -1.1321
17837THY    HM242008   2.471   3.573   5.662 -2.7502  1.3963  0.6858
17837THY    HM342009   2.418   3.499   5.515  0.9648  0.0224 -2.7099
17837THY    CA642010   2.184   3.602   5.591  0.4741 -0.6704  0.4632
17837THY    HA642011   2.221   3.663   5.510  0.6225 -0.3131  0.8607
17838THY      O42012   4.779   4.700   2.278  0.8086  0.3032 -0.4093
17838THY     HO42013   4.715   4.684   2.349 -2.7103 -2.3641  0.4705
17838THY    CA142014   4.726   4.629   2.179  0.4020  0.5189  0.0285
17838THY    CA242015   4.675   4.696   2.065 -0.0216  0.1610  0.6529
17838THY    CP142016   4.693   4.844   2.040  0.3612  0.3740 -0.0995
17838THY    HP142017   4.789   4.878   2.080  1.0629 -0.5504 -0.9209
17838THY    CP242018   4.575   4.919   2.113  0.1160 -0.2660  0.0975
17838THY    HP242019   4.476   4.890   2.075  0.1802  0.0836 -0.5994
17838THY    HP342020   4.592   5.027   2.104  1.8573  0.5053 -0.0921
17838THY    HP442021   4.596   4.885   2.215 -0.8818 -0.0829 -0.0007
17838THY    CP342022   4.694   4.893   1.892  0.0276  0.0209  0.4697
17838THY    HP542023   4.596   4.874   1.848  1.0201 -1.6535 -1.2143
17838THY    HP642024   4.769   4.834   1.837  0.2808  0.4733  0.3648
17838THY    HP742025   4.711   5.000   1.877 -0.0721 -2.2694  0.2276
17838THY    CA342026   4.606   4.611   1.976 -0.4511 -0.0912 -0.3258
17838THY    HA342027   4.567   4.656   1.885  0.5107 -2.1322 -3.3283
17838THY    CA442028   4.599   4.474   1.987  0.3433  0.5628 -1.2061
17838THY    HA442029   4.536   4.420   1.917  0.6115 -1.2663  0.7511
17838THY    CA542030   4.657   4.412   2.097 -0.3275 -0.3680 -0.6263
17838THY    CM142031   4.627   4.263   2.114 -0.0198 -0.9049  0.9069
17838THY    HM142032   4.544   4.228   2.053 -0.4024  0.3138 -0.4261
17838THY    HM242033   4.599   4.245   2.219  2.7859 -0.3407 -0.8428
17838THY    HM342034   4.724   4.215   2.093 -0.4187 -2.5255  0.7498
17838THY    CA642035   4.712   4.490   2.200  0.4062  0.8857  0.0183
17838THY    HA642036   4.750   4.453   2.295  2.2579  0.7074  1.3373
17839THY      O42037   7.955   6.275   6.230  0.7088  0.3425 -0.5937
17839THY     HO42038   7.969   6.186   6.195  1.0584  0.6739 -0.6744
17839THY    CA142039   7.836   6.315   6.178 -0.1950  0.5023  0.0189
17839THY    CA242040   7.777   6.438   6.211  0.3713 -0.1056  0.4668
17839THY    CP142041   7.834   6.523   6.319 -0.1427  0.2553  0.0216
17839THY    HP142042   7.943   6.507   6.323 -0.1140 -0.3756  0.0616
17839THY    CP242043   7.779   6.473   6.449  0.3883 -1.1278 -0.7638
17839THY    HP242044   7.671   6.458   6.438  0.2698 -1.0489 -0.0019
17839THY    HP342045   7.804   6.539   6.533 -0.6945  0.5607 -2.4130
17839THY    HP442046   7.818   6.375   6.477  2.4788  3.0127  0.9939
17839THY    CP342047   7.827   6.676   6.297 -0.1607  0.5716  0.3473
17839THY    HP542048   7.858   6.701   6.194  2.3392 -0.5976 -5.6530
17839THY    HP642049   7.880   6.737   6.371 -1.8153 -0.4411  3.2128
17839THY    HP742050   7.730   6.722   6.317  0.8561 -0.0264  2.8986
17839THY    CA342051   7.646   6.465   6.164 -0.3445  0.5551  0.2486
17839THY    HA342052   7.583   6.550   6.188 -0.4993 -2.2515  0.9946
17839THY    CA442053   7.585   6.379   6.075 -0.0396  0.1525 -0.0719
17839THY    HA442054   7.486   6.384   6.031 -0.1467  0.2106 -1.3814
17839THY    CA542055   7.654   6.264   6.035  0.6123 -0.2706 -1.2448
17839THY    CM142056   7.582   6.164   5.948 -0.0315  0.2717 -0.4037
17839THY    HM142057   7.512   6.103   6.006  0.2770  1.6812  0.5405
17839THY    HM242058   7.651   6.087   5.912 -0.3080 -0.0862 -0.4848
17839THY    HM342059   7.537   6.214   5.861  0.8255  0.4897  0.7861
17839THY    CA642060   7.779   6.234   6.079 -0.2820  0.2174 -0.3476
17839THY    HA642061   7.836   6.148   6.046  0.3543  1.1108 -0.2832
17840THY      O42062   4.279   5.399   5.228 -0.1845  0.0242  0.3132
17840THY     HO42063   4.223   5.353   5.164  0.2934 -0.3523  0.2441
17840THY    CA142064   4.198   5.451   5.320 -0.1250  0.2336  0.0074
17840THY    CA242065   4.227   5.456   5.461 -0.0750  0.7298 -0.4368
17840THY    CP142066   4.359   5.405   5.514  0.1113  0.2171  0.3699
17840THY    HP142067   4.401   5.319   5.462 -0.1106  1.4889 -0.5359
17840THY    CP242068   4.342   5.351   5.659 -0.0018  0.3571 -0.5088
17840THY    HP242069   4.338   5.425   5.740 -0.2587 -0.1830  0.0789
17840THY    HP342070   4.428   5.284   5.671  2.0323  0.0862  1.8737
17840THY    HP442071   4.250   5.292   5.664 -0.5322 -1.5927  0.0606
17840THY    CP342072   4.470   5.511   5.497 -0.2134 -0.7606 -0.6298
17840THY    HP542073   4.566   5.468   5.529 -0.5410 -1.9435 -2.3555
17840THY    HP642074   4.440   5.605   5.545  0.7893 -1.1500 -0.0863
17840THY    HP742075   4.474   5.533   5.389 -0.7391 -0.6607  0.0033
17840THY    CA342076   4.130   5.532   5.538  0.3926 -0.3128  0.1617
17840THY    HA342077   4.144   5.520   5.645 -0.9380 -0.2871 -1.6389
17840THY    CA442078   4.023   5.616   5.478 -0.2608 -0.1092  0.3351
17840THY    HA442079   3.953   5.676   5.536  1.0815  0.0951  1.7666
17840THY    CA542080   4.005   5.604   5.333  0.0563  0.1658 -0.4352
17840THY    CM142081   3.896   5.682   5.262  0.3524 -0.5088  0.9885
17840THY    HM142082   3.807   5.618   5.269  0.0116  1.4629  1.6098
17840THY    HM242083   3.915   5.698   5.156  2.3523 -0.7631 -2.1961
17840THY    HM342084   3.882   5.774   5.320  3.9463  0.1182  1.2826
17840THY    CA642085   4.092   5.525   5.261 -0.2178  0.0302 -0.0987
17840THY    HA642086   4.085   5.524   5.152 -1.9670  0.0747 -2.5288
17841THY      O42087   7.504   8.575   6.028  0.2524 -0.2291  0.2194
17841THY     HO42088   7.461   8.656   5.996  0.0431 -1.6807 -0.4257
17841THY    CA142089   7.560   8.599   6.140 -0.8660 -0.3881  0.2050
17841THY    CA242090   7.556   8.507   6.251  0.2757  0.3400 -0.3965
17841THY    CP142091   7.495   8.363   6.232 -0.1705 -0.4677  0.4976
17841THY    HP142092   7.528   8.333   6.131  0.1926 -1.0049  2.5184
17841THY    CP242093   7.349   8.374   6.246  0.1432 -0.5490  0.5908
17841THY    HP242094   7.307   8.447   6.176 -1.8297 -0.1975 -0.1554
17841THY    HP342095   7.326   8.413   6.346 -0.6275  0.5262 -2.4158
17841THY    HP442096   7.304   8.278   6.220 -2.2597 -0.1853  1.5598
17841THY    CP342097   7.551   8.252   6.323  0.5944 -0.7118  0.0159
17841THY    HP542098   7.507   8.288   6.417  0.7406 -1.5641  2.6610
17841THY    HP642099   7.661   8.253   6.326  0.6816 -2.5865  0.0150
17841THY    HP742100   7.512   8.156   6.290 -0.4876 -1.7559  0.7899
17841THY    CA342101   7.621   8.551   6.370  0.2682  0.3328 -0.6162
17841THY    HA342102   7.623   8.484   6.456 -1.8367  1.3706  0.5529
17841THY    CA442103   7.678   8.678   6.379 -0.2443 -0.3580 -0.0859
17841THY    HA442104   7.705   8.721   6.476 -0.7208 -0.4963  0.5403
17841THY    CA542105   7.690   8.758   6.269 -0.1345 -0.3667 -0.0024
17841THY    CM142106   7.729   8.898   6.288  0.2462  0.1776 -0.2083
17841THY    HM142107   7.662   8.945   6.360 -0.6944 -1.0964  0.4727
17841THY    HM242108   7.727   8.955   6.194  1.0252 -0.6092 -1.4098
17841THY    HM342109   7.827   8.912   6.336  0.2427 -0.4354  2.5031
17841THY    CA642110   7.637   8.718   6.148  0.6704 -0.2054  0.6762
17841THY    HA642111   7.646   8.786   6.064  2.7827 -0.8905 -0.3370
17842THY      O42112   8.238   8.562   4.242  0.3439  0.1760  0.0798
17842THY     HO42113   8.206   8.643   4.284 -0.4702 -0.0075 -0.1303
17842THY    CA142114   8.192   8.578   4.116 -0.8881  0.9970  0.6054
17842THY    CA242115   8.185   8.466   4.029  0.4533  0.1531  0.0963
17842THY    CP142116   8.230   8.325   4.082 -0.7352 -0.0134 -0.2745
17842THY    HP142117   8.244   8.341   4.189 -2.5121 -0.1823  3.1934
17842THY    CP242118   8.362   8.273   4.013 -0.0153  0.4954  0.1924
17842THY    HP242119   8.397   8.182   4.064  1.0597 -1.7791 -0.7528
17842THY    HP342120   8.430   8.354   4.040 -0.6824  0.7193  0.6870
17842THY    HP442121   8.362   8.257   3.904 -0.1478  0.3716  0.9891
17842THY    CP342122   8.130   8.215   4.067  0.0275  0.1992  1.1629
17842THY    HP542123   8.166   8.133   4.130 -0.7770  2.1385  2.2271
17842THY    HP642124   8.133   8.171   3.967  0.8804  1.4312 -1.8177
17842THY    HP742125   8.028   8.237   4.103  0.3039  3.1837 -1.8117
17842THY    CA342126   8.135   8.489   3.895  0.0764 -0.0261  0.3330
17842THY    HA342127   8.153   8.409   3.825 -0.2346  0.5884 -0.2800
17842THY    CA442128   8.097   8.623   3.865 -0.5919  0.4034  0.6395
17842THY    HA442129   8.071   8.639   3.761  0.5722 -0.0560 -0.2829
17842THY    CA542130   8.095   8.727   3.956  0.0385  0.0915 -0.3455
17842THY    CM142131   8.052   8.863   3.907 -0.7790  0.7031 -0.4858
17842THY    HM142132   8.079   8.871   3.801  0.1269  0.8558 -1.3013
17842THY    HM242133   8.094   8.950   3.958 -0.0713  1.3704 -1.2027
17842THY    HM342134   7.942   8.872   3.909 -0.6201  2.2358  1.9513
17842THY    CA642135   8.141   8.704   4.084  0.1478  0.1306  0.1297
17842THY    HA642136   8.150   8.782   4.159 -1.8960  0.2385  0.3287
17843THY      O42137   5.223   3.779   3.249  0.3701 -0.1867 -0.5484
17843THY     HO42138   5.291   3.797   3.315  0.9693 -1.1097  0.7152
17843THY    CA142139   5.138   3.881   3.264  0.3647 -0.3064  0.4471
17843THY    CA242140   4.995   3.860   3.250  0.1431  0.0188 -0.1255
17843THY    CP142141   4.936   3.730   3.188  0.4215  0.1828 -0.3870
17843THY    HP142142   4.994   3.640   3.210 -0.3853  0.8265 -0.7595
17843THY    CP242143   4.937   3.750   3.037 -0.6874 -0.3552 -0.2049
17843THY    HP242144   4.920   3.652   2.992  0.9507 -1.6086  0.0412
17843THY    HP342145   5.040   3.772   3.007 -0.0445  0.3489 -2.0787
17843THY    HP442146   4.873   3.833   3.005 -0.5804  1.8502  0.8194
17843THY    CP342147   4.794   3.705   3.247  0.3738 -0.4117 -0.2438
17843THY    HP542148   4.765   3.601   3.227 -0.0767 -0.8619 -0.0321
17843THY    HP642149   4.723   3.768   3.193  1.9350 -2.9185 -0.4770
17843THY    HP742150   4.796   3.710   3.357 -0.4829 -0.2395 -2.3115
17843THY    CA342151   4.914   3.976   3.263  0.3484 -1.0367 -0.1576
17843THY    HA342152   4.807   3.969   3.244  0.0590 -0.1345  1.3961
17843THY    CA442153   4.971   4.102   3.293  0.4331 -0.7192  0.4923
17843THY    HA442154   4.903   4.187   3.301 -0.7182 -0.4613 -0.4295
17843THY    CA542155   5.114   4.110   3.310 -0.6103  0.0722 -0.7661
17843THY    CM142156   5.173   4.241   3.352  0.0605  0.8417 -0.2435
17843THY    HM142157   5.252   4.263   3.279  1.3197  1.2692 -2.9530
17843THY    HM242158   5.224   4.230   3.448 -1.0759  1.7319  1.8140
17843THY    HM342159   5.104   4.324   3.368  0.2146  2.8773 -0.4613
17843THY    CA642160   5.197   4.000   3.294 -0.0259 -0.4055  0.7325
17843THY    HA642161   5.304   4.009   3.313  0.1090 -0.6761 -0.1854
17844THY      O42162   2.158   3.376   6.606  0.4956 -0.3020  0.0237
17844THY     HO42163   2.090   3.438   6.638  0.5970 -2.1338  1.1578
17844THY    CA142164   2.158   3.389   6.474 -0.4271  0.0179  0.1332
17844THY    CA242165   2.276   3.370   6.401  0.2309  0.2111  0.0615
17844THY    CP142166   2.405   3.323   6.478 -0.7383  0.1340  0.0254
17844THY    HP142167   2.375   3.266   6.567 -3.8444 -1.3951 -0.9424
17844THY    CP242168   2.491   3.443   6.527 -0.0202 -0.3223  0.4264
17844THY    HP242169   2.523   3.507   6.444 -0.2482  0.8477  2.1174
17844THY    HP342170   2.576   3.412   6.589 -1.0525  0.7354 -0.3843
17844THY    HP442171   2.424   3.514   6.577 -2.3824 -1.7283 -0.6948
17844THY    CP342172   2.494   3.247   6.380  0.1038 -0.6594  0.2046
17844THY    HP542173   2.541   3.322   6.316  0.6240  0.9887  1.3474
17844THY    HP642174   2.438   3.173   6.323  0.4564  1.1507 -1.5591
17844THY    HP742175   2.575   3.192   6.430 -0.6048  0.0405 -0.2245
17844THY    CA342176   2.271   3.387   6.263 -0.5788 -0.4012  0.2555
17844THY    HA342177   2.360   3.373   6.201  0.1076  0.6897 -0.3278
17844THY    CA442178   2.147   3.408   6.196 -0.3276 -0.7388 -0.4689
17844THY    HA442179   2.145   3.413   6.087  1.7141 -0.8265 -0.5898
17844THY    CA542180   2.035   3.445   6.272  0.7868  0.3930  0.3429
17844THY    CM142181   1.903   3.468   6.198  0.5561  0.5715 -0.1385
17844THY    HM142182   1.886   3.378   6.138  0.9072  0.0211  0.1547
17844THY    HM242183   1.915   3.553   6.129 -0.3025  0.8813  0.2554
17844THY    HM342184   1.811   3.466   6.257  0.0002 -0.2816 -1.1846
17844THY    CA642185   2.038   3.426   6.411 -0.4389  0.1703 -0.0208
17844THY    HA642186   1.950   3.440   6.472 -0.6695 -0.5933  2.1429
17845THY      O42187   7.753   4.823   6.365  0.3372  0.0364  0.1709
17845THY     HO42188   7.846   4.845   6.345 -0.7058 -3.4390  2.2842
17845THY    CA142189   7.715   4.753   6.261 -0.6040  0.1157 -0.9649
17845THY    CA242190   7.633   4.640   6.272 -0.0327  0.1779  0.6523
17845THY    CP142191   7.599   4.584   6.406  0.1147  0.3636 -0.2826
17845THY    HP142192   7.587   4.663   6.481  3.3012  1.2246 -0.5124
17845THY    CP242193   7.714   4.492   6.461 -0.4129  0.1320  0.0320
17845THY    HP242194   7.741   4.402   6.405 -1.6483  0.3174 -0.4740
17845THY    HP342195   7.680   4.454   6.558  0.9142  0.6136  0.0470
17845THY    HP442196   7.806   4.548   6.480 -0.2624  3.4746 -1.1148
17845THY    CP342197   7.466   4.500   6.409  0.4290 -0.2745  0.5250
17845THY    HP542198   7.484   4.392   6.401 -1.5253  1.6679 -0.0147
17845THY    HP642199   7.397   4.543   6.335  0.8644  0.8895  3.4655
17845THY    HP742200   7.410   4.510   6.503  0.4719 -0.0787 -0.8827
17845THY    CA342201   7.605   4.569   6.155 -0.0961  0.2996 -0.9772
17845THY    HA342202   7.545   4.480   6.167 -0.3490  0.5974 -0.7683
17845THY    CA442203   7.649   4.620   6.026 -0.6844  0.2247  0.2618
17845THY    HA442204   7.618   4.559   5.941 -3.5544  2.5407 -1.8195
17845THY    CA542205   7.725   4.736   6.011 -0.7068 -0.1786 -0.5125
17845THY    CM142206   7.761   4.785   5.872  0.1227 -0.5129  0.8622
17845THY    HM142207   7.818   4.709   5.817 -0.0928 -1.8880  1.6707
17845THY    HM242208   7.825   4.874   5.867 -0.1853 -0.4606  1.0871
17845THY    HM342209   7.665   4.791   5.820 -0.2665  0.1111  0.1973
17845THY    CA642210   7.768   4.804   6.133 -0.0681 -0.5495 -0.5559
17845THY    HA642211   7.841   4.885   6.133 -0.6332  0.4369 -0.0210
17846THY      O42212   2.069   8.822   4.448  0.4932  0.4239  0.0518
17846THY     HO42213   2.032   8.829   4.359 -0.0026  0.6176 -0.0908
17846THY    CA142214   1.967   8.874   4.521 -0.1432 -0.0189  0.0794
17846THY    CA242215   1.949   8.849   4.659  0.0982  0.6380  0.1542
17846THY    CP142216   2.051   8.771   4.736  0.0736 -0.3619  0.4660
17846THY    HP142217   2.128   8.723   4.675 -0.6592 -0.6491 -0.3537
17846THY    CP242218   1.992   8.651   4.819  0.3715  0.1376 -0.1759
17846THY    HP242219   1.957   8.565   4.761  0.2713  1.7638 -1.2892
17846THY    HP342220   1.910   8.672   4.889 -0.1521 -0.0234 -1.5518
17846THY    HP442221   2.072   8.621   4.888 -0.8739  1.7787  0.1592
17846THY    CP342222   2.110   8.868   4.840  0.2523 -0.1044 -0.2935
17846THY    HP542223   2.029   8.897   4.908  0.3630  0.2983 -0.9103
17846THY    HP642224   2.145   8.962   4.796 -1.2146  1.6495  1.1567
17846THY    HP742225   2.189   8.821   4.900 -0.3420  0.0726 -1.1082
17846THY    CA342226   1.839   8.904   4.729  0.2613  0.1434 -0.1711
17846THY    HA342227   1.817   8.875   4.831  3.5381  0.2643 -2.9676
17846THY    CA442228   1.761   9.001   4.665 -0.0034 -0.7949  0.2388
17846THY    HA442229   1.688   9.053   4.726 -0.2292 -1.2467  0.4521
17846THY    CA542230   1.772   9.022   4.529  0.2370 -0.0349  0.5268
17846THY    CM142231   1.681   9.116   4.451 -0.0128  0.2984 -0.1333
17846THY    HM142232   1.613   9.174   4.515 -0.6197 -1.3866  1.0744
17846THY    HM242233   1.624   9.063   4.374  1.2751  0.8977 -2.5787
17846THY    HM342234   1.741   9.198   4.410  0.2775  1.0394  0.0405
17846THY    CA642235   1.873   8.949   4.456  0.2392  0.1695  0.0822
17846THY    HA642236   1.875   8.958   4.348 -2.6580 -0.1500 -1.6335
17847THY      O42237   2.833   7.811   2.795 -0.0349  0.0556 -0.6027
17847THY     HO42238   2.868   7.859   2.873  2.0056 -0.7516 -0.6752
17847THY    CA142239   2.699   7.850   2.783 -0.2784  0.8789  0.6637
17847THY    CA242240   2.622   7.823   2.668 -0.4095 -0.2909  0.6326
17847THY    CP142241   2.675   7.730   2.551  0.0628 -0.1090 -0.2917
17847THY    HP142242   2.775   7.696   2.579  0.4315 -2.9349 -1.8069
17847THY    CP242243   2.685   7.805   2.425 -0.6555 -0.2462 -0.7562
17847THY    HP242244   2.743   7.897   2.438 -3.5603  0.6440  1.0966
17847THY    HP342245   2.588   7.852   2.406 -0.9902  0.1903 -1.2681
17847THY    HP442246   2.728   7.752   2.339  1.4867  1.4197 -1.8665
17847THY    CP342247   2.593   7.601   2.529 -0.2277 -0.3329 -0.5250
17847THY    HP542248   2.611   7.526   2.607  0.8117  0.7925  0.8572
17847THY    HP642249   2.617   7.564   2.428  1.3372 -0.0633 -0.3293
17847THY    HP742250   2.485   7.618   2.532 -0.2638 -0.8270 -0.6479
17847THY    CA342251   2.488   7.874   2.658 -0.3379  0.0974 -0.2023
17847THY    HA342252   2.428   7.837   2.576 -2.3708  0.1991  2.5140
17847THY    CA442253   2.434   7.946   2.762  0.1480  0.4421  0.2413
17847THY    HA442254   2.329   7.971   2.773  0.6395  4.9458  1.0899
17847THY    CA542255   2.513   7.978   2.867  0.0572  0.2774 -0.7122
17847THY    CM142256   2.456   8.069   2.969 -0.5844  0.4784  0.7193
17847THY    HM142257   2.423   8.164   2.925 -1.9610 -1.1775 -0.4582
17847THY    HM242258   2.524   8.081   3.055 -1.2530  1.4620 -1.8271
17847THY    HM342259   2.366   8.024   3.013 -1.6242  0.2037  2.4459
17847THY    CA642260   2.641   7.926   2.882 -0.0270  0.3507 -0.1908
17847THY    HA642261   2.698   7.953   2.971 -2.3019  0.9162  3.3270
17848THY      O42262   1.254   5.249   5.470  0.8623 -0.3170 -0.0856
17848THY     HO42263   1.231   5.163   5.433  1.1066 -0.2863 -0.1648
17848THY    CA142264   1.345   5.228   5.564  0.3505  0.3165 -0.5629
17848THY    CA242265   1.360   5.323   5.672 -0.1778  0.5865 -0.0882
17848THY    CP142266   1.272   5.449   5.690  0.1145 -0.5007 -0.0150
17848THY    HP142267   1.225   5.469   5.593 -2.2210  0.3512 -1.0319
17848THY    CP242268   1.340   5.575   5.745 -0.4837  0.0959 -0.1556
17848THY    HP242269   1.266   5.654   5.726 -0.0061  0.8104  0.4758
17848THY    HP342270   1.432   5.599   5.691 -1.6429 -1.1890  1.6656
17848THY    HP442271   1.359   5.571   5.853 -0.1390  0.0044 -0.9697
17848THY    CP342272   1.152   5.430   5.783  0.0919 -1.0021  0.4662
17848THY    HP542273   1.077   5.508   5.769  0.8518 -0.2980  1.3470
17848THY    HP642274   1.189   5.430   5.886  0.2089 -1.0280 -0.7891
17848THY    HP742275   1.108   5.331   5.766 -0.0603  2.5228 -0.1883
17848THY    CA342276   1.463   5.308   5.759 -0.5265  0.0121  0.0822
17848THY    HA342277   1.486   5.381   5.837 -1.2708 -0.7635  1.1746
17848THY    CA442278   1.549   5.195   5.747  0.4793 -0.4166 -0.9281
17848THY    HA442279   1.628   5.187   5.821  2.8958 -2.6241  0.8253
17848THY    CA542280   1.532   5.105   5.643  0.2572 -0.0248  1.0491
17848THY    CM142281   1.631   4.983   5.630 -0.3729  0.2877 -0.6534
17848THY    HM142282   1.721   5.007   5.572 -0.6586  0.5074  1.0617
17848THY    HM242283   1.591   4.890   5.587  1.6530 -1.7885 -0.6609
17848THY    HM342284   1.674   4.965   5.729 -2.4996  1.1224 -1.3803
17848THY    CA642285   1.430   5.126   5.552  0.4814  0.3795  0.0115
17848THY    HA642286   1.435   5.063   5.463 -0.4540  1.6606 -1.9958
17849THY      O42287   4.687   7.233   4.580  0.3295 -0.1167 -0.3276
17849THY     HO42288   4.599   7.193   4.591 -1.1983 -0.4005  2.6354
17849THY    CA142289   4.706   7.299   4.699  0.0515 -0.3364  0.0491
17849THY    CA242290   4.748   7.434   4.710 -0.4136  0.9992 -0.7249
17849THY    CP142291   4.779   7.516   4.587 -0.1076 -0.0073  0.1826
17849THY    HP142292   4.804   7.448   4.505 -0.8637  0.2876 -0.4579
17849THY    CP242293   4.906   7.595   4.608 -0.5088  0.3858 -0.0254
17849THY    HP242294   4.896   7.680   4.676 -0.5286 -1.5550  1.6047
17849THY    HP342295   4.947   7.633   4.513 -0.3438  0.1351 -0.8216
17849THY    HP442296   4.987   7.529   4.642 -0.4345  0.6677  0.2071
17849THY    CP342297   4.654   7.599   4.563 -0.4611 -0.3924  0.8510
17849THY    HP542298   4.658   7.667   4.477  1.4596 -2.1898 -1.3631
17849THY    HP642299   4.622   7.661   4.648  0.3550  0.2811  0.3710
17849THY    HP742300   4.571   7.529   4.547 -0.0213  1.1251 -0.0621
17849THY    CA342301   4.743   7.493   4.836 -0.6616 -0.3296  0.2763
17849THY    HA342302   4.769   7.597   4.849  0.1944 -0.6115  0.1081
17849THY    CA442303   4.700   7.414   4.946 -0.1408  0.5151 -0.3720
17849THY    HA442304   4.688   7.462   5.042 -3.6242  0.7972 -1.5064
17849THY    CA542305   4.681   7.275   4.933  0.1725  0.0570  0.1310
17849THY    CM142306   4.643   7.187   5.045  0.6786  0.3774 -0.3338
17849THY    HM142307   4.700   7.224   5.131 -1.1268  1.7104 -0.4949
17849THY    HM242308   4.662   7.081   5.026 -0.7915 -2.6248 -0.1715
17849THY    HM342309   4.538   7.210   5.067  0.4315 -1.3630  0.3410
17849THY    CA642310   4.677   7.212   4.808  0.3285 -0.6014 -0.7041
17849THY    HA642311   4.652   7.107   4.802  0.7761  2.5329 -1.0906
17850THY      O42312   7.316   3.843   7.482  0.5985 -0.5443  0.2837
17850THY     HO42313   7.395   3.879   7.527  1.3248 -1.5024 -0.0724
17850THY    CA142314   7.348   3.830   7.356 -0.3205 -0.0737  0.5033
17850THY    CA242315   7.260   3.780   7.264  0.3646  0.1577 -0.3082
17850THY    CP142316   7.123   3.724   7.308  0.1016  0.3101 -0.6010
17850THY    HP142317   7.102   3.762   7.408  0.4756 -0.6842  2.6042
17850THY    CP242318   7.124   3.573   7.301 -0.0216 -0.1778 -0.5677
17850THY    HP242319   7.028   3.534   7.339 -0.7765 -0.7953  0.6307
17850THY    HP342320   7.201   3.541   7.372  1.2626 -1.1236  0.3143
17850THY    HP442321   7.127   3.535   7.198  2.3710 -0.2952 -0.2078
17850THY    CP342322   7.004   3.781   7.227 -0.0314  0.0720 -0.0944
17850THY    HP542323   7.011   3.759   7.120 -0.9560 -0.1918  0.8616
17850THY    HP642324   7.014   3.889   7.236  1.2790 -1.3874 -0.0647
17850THY    HP742325   6.917   3.731   7.272  0.0995 -0.2089 -0.5818
17850THY    CA342326   7.294   3.777   7.127  0.0879  0.3047  0.0772
17850THY    HA342327   7.228   3.731   7.054 -1.1207 -0.0895  2.3121
17850THY    CA442328   7.409   3.838   7.082 -0.8834  0.6306 -0.7883
17850THY    HA442329   7.444   3.839   6.979  0.4804  1.0681  0.2552
17850THY    CA542330   7.482   3.911   7.174 -0.2461  0.7537 -0.3867
17850THY    CM142331   7.603   3.991   7.131  0.4103 -0.1475 -0.2211
17850THY    HM142332   7.592   4.033   7.031 -0.1675 -0.6007 -1.3977
17850THY    HM242333   7.687   3.921   7.120 -0.0822  1.1958 -1.0658
17850THY    HM342334   7.631   4.074   7.197  0.6421  1.4154 -1.4863
17850THY    CA642335   7.455   3.907   7.307 -0.5009  0.0881  0.8142
17850THY    HA642336   7.528   3.954   7.373  1.4525 -1.0473 -0.4658
17851THY      O42337   2.845   2.061   2.474  0.0695 -0.2268  0.2845
17851THY     HO42338   2.853   2.157   2.460  1.8029  1.8826  0.5208
17851THY    CA142339   2.730   2.033   2.410 -0.4055 -0.7391  0.6278
17851THY    CA242340   2.709   1.899   2.363 -0.5050 -0.4575  0.0053
17851THY    CP142341   2.835   1.810   2.344  0.0390 -0.2062  0.6934
17851THY    HP142342   2.922   1.845   2.400  0.6329  0.0285 -1.0819
17851THY    CP242343   2.879   1.805   2.193  0.4200  0.2102 -0.1066
17851THY    HP242344   2.974   1.752   2.181 -0.0267  0.6311 -1.0162
17851THY    HP342345   2.900   1.897   2.136 -0.0127  0.6762  0.2862
17851THY    HP442346   2.796   1.755   2.142  0.4724 -0.4204  0.4290
17851THY    CP342347   2.805   1.667   2.396  0.1141  1.0611  0.6353
17851THY    HP542348   2.788   1.685   2.502 -0.4810  1.5445 -2.3600
17851THY    HP642349   2.890   1.599   2.390 -0.7502 -0.1082 -0.3845
17851THY    HP742350   2.712   1.615   2.370 -0.6687  2.0108  1.5207
17851THY    CA342351   2.576   1.849   2.332  0.4881  0.4424 -0.0768
17851THY    HA342352   2.556   1.757   2.278 -1.1017 -0.1201  0.5702
17851THY    CA442353   2.467   1.934   2.353 -0.4406 -0.2129 -0.3157
17851THY    HA442354   2.362   1.906   2.344 -1.0168  2.3081  0.7132
17851THY    CA542355   2.494   2.063   2.410 -0.4462  0.8000  0.1356
17851THY    CM142356   2.383   2.161   2.417  0.9535  0.6134 -0.2181
17851THY    HM142357   2.302   2.143   2.345  1.4935  0.2129 -1.1517
17851THY    HM242358   2.425   2.262   2.407  2.4522 -1.6864 -0.9628
17851THY    HM342359   2.326   2.146   2.509 -0.3896 -0.1446  0.0597
17851THY    CA642360   2.624   2.119   2.427  0.0713  0.2068 -0.1143
17851THY    HA642361   2.641   2.217   2.470 -0.4910 -0.6855  0.3959
17852THY      O42362   1.622   2.155   4.150 -0.1141 -0.2249 -0.3070
17852THY     HO42363   1.620   2.251   4.162  0.2877 -1.3327 -0.1517
17852THY    CA142364   1.505   2.119   4.094  0.2834 -0.4411 -0.4845
17852THY    CA242365   1.446   2.002   4.145 -0.0030 -0.3204 -0.3453
17852THY    CP142366   1.521   1.910   4.251  0.2702  0.1923 -0.0805
17852THY    HP142367   1.575   1.977   4.320  0.8944 -0.7194  0.3748
17852THY    CP242368   1.615   1.810   4.184  0.2731 -0.0658  0.1477
17852THY    HP242369   1.632   1.744   4.269 -3.0192  3.2339  3.1035
17852THY    HP342370   1.706   1.864   4.156 -0.8437  0.2354  2.2781
17852THY    HP442371   1.572   1.766   4.093  0.5051  0.2426 -0.7370
17852THY    CP342372   1.422   1.837   4.343 -0.0031 -0.7765  0.0177
17852THY    HP542373   1.482   1.799   4.427 -1.5048  0.1792 -0.3477
17852THY    HP642374   1.368   1.759   4.288 -0.6403  0.4671 -0.4436
17852THY    HP742375   1.363   1.919   4.384  1.1405 -1.4608  1.2319
17852THY    CA342376   1.314   1.973   4.101  0.1621  0.1663 -1.0894
17852THY    HA342377   1.264   1.884   4.140  0.0454 -0.4879 -1.3253
17852THY    CA442378   1.254   2.059   4.003 -0.2817  0.1086 -0.7895
17852THY    HA442379   1.149   2.050   3.976 -0.1879  0.0033 -1.6783
17852THY    CA542380   1.313   2.177   3.959 -0.0462 -0.2188 -0.5953
17852THY    CM142381   1.232   2.265   3.870 -0.3679 -0.5991  0.0163
17852THY    HM142382   1.165   2.328   3.929 -0.6558 -0.0738 -0.7607
17852THY    HM242383   1.168   2.212   3.798 -3.0081  1.8232 -0.2967
17852THY    HM342384   1.300   2.340   3.828 -1.6493  0.1667  1.6618
17852THY    CA642385   1.439   2.208   4.010 -0.5561  0.2121 -0.4997
17852THY    HA642386   1.486   2.296   3.968 -2.2237 -0.4362  0.1315
17853THY      O42387   5.284   2.415   1.877  0.4598  0.2205  0.2551
17853THY     HO42388   5.261   2.320   1.877 -2.3487 -0.9946  0.8294
17853THY    CA142389   5.186   2.476   1.944 -1.3223 -0.0977  0.5459
17853THY    CA242390   5.217   2.574   2.044  0.1705 -0.0768 -0.3489
17853THY    CP142391   5.364   2.607   2.070  0.2215  0.8233  0.1771
17853THY    HP142392   5.417   2.513   2.049 -0.4983  0.1841 -0.0935
17853THY    CP242393   5.389   2.613   2.223 -0.0002  0.4568 -0.3099
17853THY    HP242394   5.341   2.701   2.267  1.2844  0.3934  0.4447
17853THY    HP342395   5.495   2.626   2.248  0.2207 -0.5334 -0.1088
17853THY    HP442396   5.362   2.518   2.269 -0.9853  0.7694  0.1085
17853THY    CP342397   5.418   2.719   1.984  0.5004 -0.3116  0.6345
17853THY    HP542398   5.439   2.682   1.883  0.1980 -0.4224  0.7544
17853THY    HP642399   5.513   2.760   2.019  0.9702  0.0764 -0.7478
17853THY    HP742400   5.347   2.802   1.976  1.3037 -0.0562  1.3590
17853THY    CA342401   5.110   2.633   2.115 -0.1504  0.4452  0.4532
17853THY    HA342402   5.122   2.712   2.188 -1.3996  0.0938  0.9924
17853THY    CA442403   4.979   2.590   2.091 -0.3324 -0.0358 -0.5967
17853THY    HA442404   4.899   2.615   2.160  0.4316  0.5637  0.2862
17853THY    CA542405   4.955   2.493   1.996  0.2566  0.1193  0.8484
17853THY    CM142406   4.821   2.426   1.988 -0.9409  0.5956 -0.6976
17853THY    HM142407   4.742   2.491   2.028  1.3568  0.0339  2.6739
17853THY    HM242408   4.810   2.333   2.045 -3.7791 -0.2628 -0.9709
17853THY    HM342409   4.798   2.405   1.883  0.2225  0.1249  0.2506
17853THY    CA642410   5.058   2.433   1.919  0.4310 -0.2565 -0.2072
17853THY    HA642411   5.040   2.352   1.848 -0.9514 -1.4381  1.0506
17854THY      O42412   6.996   8.012   5.955  0.0463  0.1416  0.3708
17854THY     HO42413   7.037   7.924   5.957 -0.8480 -0.4160 -0.0763
17854THY    CA142414   7.091   8.108   5.942  0.0077 -0.6248  0.1434
17854THY    CA242415   7.059   8.242   5.960  0.9237  0.0640 -0.1823
17854THY    CP142416   6.908   8.281   5.985 -0.3375  0.1927  0.3004
17854THY    HP142417   6.859   8.205   6.048 -0.0494 -0.0469 -0.0888
17854THY    CP242418   6.820   8.292   5.856  0.1341 -0.4274  0.6332
17854THY    HP242419   6.844   8.383   5.800  0.4537 -0.9202  0.2453
17854THY    HP342420   6.714   8.279   5.880  0.0029 -0.0318  2.2425
17854THY    HP442421   6.836   8.206   5.790  2.0610 -1.0080  1.3890
17854THY    CP342422   6.908   8.426   6.041  0.4334  0.5158 -0.3508
17854THY    HP542423   6.924   8.496   5.959 -0.5776  0.7546  0.1800
17854THY    HP642424   6.986   8.431   6.118 -0.1590  1.0455  1.1244
17854THY    HP742425   6.813   8.450   6.089 -1.2699 -2.4128 -0.6908
17854THY    CA342426   7.163   8.340   5.944  0.5043 -0.0391  0.1026
17854THY    HA342427   7.139   8.446   5.951  0.5806 -3.0103  0.4054
17854THY    CA442428   7.292   8.296   5.917 -0.3845 -1.3333  0.3216
17854THY    HA442429   7.364   8.378   5.917 -1.5613 -1.0058  1.3906
17854THY    CA542430   7.320   8.157   5.899 -0.0917 -0.0524 -0.8008
17854THY    CM142431   7.465   8.107   5.886  0.0777 -0.2630 -1.2979
17854THY    HM142432   7.536   8.185   5.855 -0.2240 -0.4510 -1.0919
17854THY    HM242433   7.469   8.031   5.808 -0.6413 -1.8568  0.2283
17854THY    HM342434   7.500   8.071   5.983  0.6659 -0.1370 -0.4379
17854THY    CA642435   7.215   8.063   5.911 -0.0188 -0.1951 -0.2590
17854THY    HA642436   7.230   7.961   5.877 -1.8661 -0.7812 -0.3778
17855THY      O42437   0.331   3.809   4.140 -0.4035  0.3139 -0.1331
17855THY     HO42438   0.346   3.881   4.077 -0.8766  1.1320  0.7004
17855THY    CA142439   0.441   3.786   4.222 -0.1479  0.8643  1.2980
17855THY    CA242440   0.450   3.669   4.305  0.4386  0.3734 -0.4709
17855THY    CP142441   0.348   3.559   4.294 -0.4091 -0.5036  0.4718
17855THY    HP142442   0.263   3.575   4.227 -0.1811 -0.8168  0.3801
17855THY    CP242443   0.300   3.518   4.435  0.1102 -0.6456  0.7226
17855THY    HP242444   0.251   3.603   4.484  0.1825 -0.4541  0.6528
17855THY    HP342445   0.388   3.500   4.497 -0.3636 -0.1484  0.0640
17855THY    HP442446   0.244   3.424   4.436  0.6874  3.6499  0.2390
17855THY    CP342447   0.414   3.429   4.235  0.3690  0.2287 -0.3180
17855THY    HP542448   0.471   3.448   4.144 -0.7734 -0.6464 -0.9143
17855THY    HP642449   0.338   3.355   4.205  0.3289 -3.0680  0.9244
17855THY    HP742450   0.485   3.375   4.299 -1.2434  1.2137 -1.3628
17855THY    CA342451   0.573   3.657   4.372 -0.0314  0.5767 -0.3827
17855THY    HA342452   0.598   3.559   4.413  0.3250 -1.3319 -1.1249
17855THY    CA442453   0.663   3.761   4.374 -0.3594 -0.0024  0.8444
17855THY    HA442454   0.760   3.755   4.423 -0.1292 -0.3941  1.2813
17855THY    CA542455   0.645   3.886   4.309  0.1395  0.2867  0.1948
17855THY    CM142456   0.749   3.995   4.321 -0.0495  0.1618 -0.0751
17855THY    HM142457   0.700   4.089   4.348  1.5695  2.3872  0.2208
17855THY    HM242458   0.800   4.009   4.225 -1.0243 -0.1293  1.7586
17855THY    HM342459   0.814   3.983   4.409  2.4329 -1.4819  0.5853
17855THY    CA642460   0.533   3.892   4.234  0.2019  0.5179  0.3206
17855THY    HA642461   0.504   3.987   4.191 -1.1309  2.9076  1.0740
17856THY      O42462   6.791   0.370   4.460  0.2194  0.0449  0.2026
17856THY     HO42463   6.726   0.392   4.530  2.5554  2.2141  0.7358
17856THY    CA142464   6.903   0.442   4.497  0.9005  0.3927  0.1507
17856THY    CA242465   7.026   0.409   4.445  0.3388 -0.3451 -0.7887
17856THY    CP142466   7.045   0.295   4.328 -0.2321 -0.2481  0.3122
17856THY    HP142467   6.964   0.304   4.255 -0.2428 -0.3758 -0.6964
17856THY    CP242468   7.034   0.159   4.398  0.1449 -0.2787  0.1167
17856THY    HP242469   6.931   0.131   4.424  0.5492 -0.4493 -1.6513
17856THY    HP342470   7.097   0.160   4.488  0.6737 -0.3732 -4.4970
17856THY    HP442471   7.076   0.076   4.340  0.2514  2.0239 -1.5442
17856THY    CP342472   7.184   0.305   4.258  0.1063  0.3328 -0.5786
17856THY    HP542473   7.258   0.287   4.337 -1.9284  2.7225  0.9175
17856THY    HP642474   7.193   0.406   4.217  0.4602  0.0560 -0.7186
17856THY    HP742475   7.201   0.244   4.168 -0.1104 -1.2446  1.5655
17856THY    CA342476   7.141   0.466   4.517  0.2613  0.6334 -0.4001
17856THY    HA342477   7.240   0.430   4.488  0.3177  0.7366 -0.3259
17856THY    CA442478   7.121   0.564   4.617 -0.0459 -0.0682 -0.2703
17856THY    HA442479   7.206   0.606   4.669 -0.5503 -1.5544  2.8633
17856THY    CA542480   6.998   0.604   4.644  0.2868  0.4500 -0.7070
17856THY    CM142481   6.976   0.696   4.761  0.1561  0.0319 -0.0612
17856THY    HM142482   6.944   0.651   4.855  1.7196  0.3921 -0.4895
17856THY    HM242483   6.898   0.766   4.730 -0.1688  1.8478  0.4205
17856THY    HM342484   7.067   0.752   4.785  0.3456  0.0045 -0.3537
17856THY    CA642485   6.889   0.547   4.588 -0.3018 -0.2654 -0.1033
17856THY    HA642486   6.792   0.590   4.613 -0.5260 -2.6545  0.9542
17857THY      O42487   7.472   3.751   4.244  1.0505 -1.1404  0.3893
17857THY     HO42488   7.519   3.813   4.185  2.1736  1.7196  2.4874
17857THY    CA142489   7.475   3.631   4.182  0.5289  0.2211  0.4827
17857THY    CA242490   7.377   3.528   4.209 -0.3527  0.4203 -0.0485
17857THY    CP142491   7.283   3.533   4.330  0.1542 -0.1100  0.7602
17857THY    HP142492   7.254   3.636   4.357 -0.3526  0.8879  0.3698
17857THY    CP242493   7.350   3.479   4.458 -0.3478 -0.4333 -0.0229
17857THY    HP242494   7.286   3.498   4.545  0.2323 -0.3259  1.5952
17857THY    HP342495   7.449   3.524   4.475 -1.3010 -1.5733  2.7134
17857THY    HP442496   7.366   3.371   4.457 -1.9721  0.5229 -0.3065
17857THY    CP342497   7.142   3.455   4.314  0.8452  0.2865  0.1813
17857THY    HP542498   7.091   3.494   4.225 -0.4695  0.6732 -0.6060
17857THY    HP642499   7.078   3.484   4.398 -1.3057 -1.2314  0.0519
17857THY    HP742500   7.158   3.346   4.310  2.4811  2.1825  0.3026
17857THY    CA342501   7.379   3.416   4.128 -0.4547 -0.2764 -0.0822
17857THY    HA342502   7.311   3.333   4.145 -1.2642 -1.1170  0.3889
17857THY    CA442503   7.477   3.401   4.026  0.1194 -0.0055 -0.1660
17857THY    HA442504   7.473   3.310   3.966  2.5193  0.2698 -0.4975
17857THY    CA542505   7.560   3.505   3.992  0.7595  0.2970  0.0318
17857THY    CM142506   7.655   3.492   3.882 -0.0601  0.0831 -0.7985
17857THY    HM142507   7.589   3.470   3.797 -0.8846  0.2320  0.8952
17857THY    HM242508   7.728   3.412   3.893  0.0719  0.6495 -0.6044
17857THY    HM342509   7.688   3.595   3.867 -3.2709  0.6947  0.4648
17857THY    CA642510   7.557   3.625   4.069 -0.0449 -0.0658  0.2571
17857THY    HA642511   7.616   3.713   4.044  1.1266  2.2158  0.1838
17858THY      O42512   8.121   2.503   6.552 -0.0101  0.2565  1.1395
17858THY     HO42513   8.208   2.465   6.530 -0.4039 -0.3981  0.5997
17858THY    CA142514   8.129   2.617   6.481 -0.0003 -0.4326 -0.2540
17858THY    CA242515   8.025   2.711   6.485  0.4625 -0.0398 -0.5479
17858THY    CP142516   7.894   2.677   6.555  0.0260  0.5117 -0.1054
17858THY    HP142517   7.896   2.587   6.617 -1.2625 -1.4528 -1.5637
17858THY    CP242518   7.784   2.664   6.451  0.2303  0.5894  0.4457
17858THY    HP242519   7.686   2.699   6.486  0.2278  3.1706 -1.8053
17858THY    HP342520   7.759   2.560   6.428 -0.2795 -1.2195  0.9355
17858THY    HP442521   7.817   2.712   6.358  0.2517 -0.4942 -1.5523
17858THY    CP342522   7.863   2.792   6.649  0.8750 -0.6115 -0.1317
17858THY    HP542523   7.842   2.880   6.587  2.2100 -1.3755 -0.3202
17858THY    HP642524   7.943   2.810   6.721 -2.0361  2.3080  2.1656
17858THY    HP742525   7.776   2.757   6.706  1.5718  1.1050  0.8235
17858THY    CA342526   8.034   2.837   6.414  1.0376  0.1641  0.3139
17858THY    HA342527   7.952   2.907   6.405 -0.3054 -0.7863 -1.2961
17858THY    CA442528   8.154   2.856   6.345  0.0234  0.0831 -0.9755
17858THY    HA442529   8.164   2.944   6.283 -3.3248 -0.6427 -0.9869
17858THY    CA542530   8.251   2.763   6.342  0.1554  0.4775 -0.6486
17858THY    CM142531   8.378   2.791   6.260  0.1837 -0.0490  0.2305
17858THY    HM142532   8.373   2.887   6.208  1.0006 -1.6298 -0.5468
17858THY    HM242533   8.389   2.713   6.184 -2.6519  1.8165 -2.2330
17858THY    HM342534   8.469   2.777   6.320  0.3088 -0.4998 -1.0411
17858THY    CA642535   8.243   2.646   6.410  0.5515  0.2412  0.6472
17858THY    HA642536   8.321   2.571   6.422 -0.3462  1.1671 -0.1689
17859THY      O42537   6.700   2.575   6.268 -0.1832 -0.1012 -0.0974
17859THY     HO42538   6.690   2.484   6.234 -3.2969 -0.1288  0.1410
17859THY    CA142539   6.713   2.553   6.400 -0.0646  0.0138 -0.6467
17859THY    CA242540   6.773   2.658   6.480 -0.0186 -0.1716  0.0384
17859THY    CP142541   6.809   2.800   6.425 -0.6488  0.0282  0.4056
17859THY    HP142542   6.819   2.793   6.316 -1.8677 -0.0793  0.0246
17859THY    CP242543   6.943   2.851   6.479 -0.4200 -1.1426 -0.1112
17859THY    HP242544   7.013   2.767   6.487  0.2516  2.0945  0.6441
17859THY    HP342545   6.939   2.878   6.585  0.5365 -0.2181 -3.1526
17859THY    HP442546   6.986   2.929   6.415  0.8255  0.1661  0.3106
17859THY    CP342547   6.694   2.898   6.449  0.1345  0.1664  0.3621
17859THY    HP542548   6.677   2.884   6.556  1.1563  0.1755 -0.9873
17859THY    HP642549   6.610   2.888   6.378 -1.7782  2.1061  1.7157
17859THY    HP742550   6.729   3.000   6.434 -1.2174 -1.2131  0.6668
17859THY    CA342551   6.806   2.624   6.616  0.5181 -0.5205 -0.6319
17859THY    HA342552   6.846   2.694   6.689  2.7380 -1.2951 -0.9888
17859THY    CA442553   6.750   2.504   6.668 -0.7064  0.4591  0.6970
17859THY    HA442554   6.761   2.469   6.770 -1.8451 -0.3407 -2.3151
17859THY    CA542555   6.679   2.412   6.589  0.1232  1.1190  0.3253
17859THY    CM142556   6.631   2.275   6.654 -0.2853  0.2855 -0.6596
17859THY    HM142557   6.701   2.226   6.724 -0.3239  0.1711 -0.8819
17859THY    HM242558   6.614   2.205   6.571  0.5892  0.2842 -0.8820
17859THY    HM342559   6.535   2.286   6.705  0.8268  1.9921  2.2243
17859THY    CA642560   6.672   2.429   6.449  0.3390  0.2841  0.2498
17859THY    HA642561   6.620   2.355   6.389 -0.7729  2.4911 -0.8499
17860THY      O42562   8.270   5.334   6.447 -0.4983 -0.3261  0.0817
17860THY     HO42563   8.197   5.392   6.422  1.0855 -0.8391  1.9501
17860THY    CA142564   8.358   5.347   6.345 -0.1317 -0.3935 -0.0508
17860THY    CA242565   8.491   5.309   6.356 -0.6351 -0.1729  0.0134
17860THY    CP142566   8.538   5.254   6.493 -0.0737  0.0946  0.7379
17860THY    HP142567   8.465   5.197   6.551 -0.3331  1.4942  2.4049
17860THY    CP242568   8.587   5.367   6.581  0.6357 -0.0037  0.2504
17860THY    HP242569   8.498   5.429   6.596 -0.3423  1.4306 -1.4000
17860THY    HP342570   8.675   5.410   6.532  0.1867  0.0569  1.2668
17860THY    HP442571   8.618   5.337   6.682  0.8376  0.2228  1.2032
17860THY    CP342572   8.655   5.153   6.488  0.1934  0.3018  0.8115
17860THY    HP542573   8.751   5.191   6.450  0.9461  0.5478 -0.7537
17860THY    HP642574   8.637   5.070   6.419  0.4779  2.9674 -1.5768
17860THY    HP742575   8.666   5.103   6.584 -1.6040  0.6444  1.0372
17860THY    CA342576   8.576   5.313   6.248 -0.6547  0.1194  0.1382
17860THY    HA342577   8.682   5.293   6.263 -1.2031  0.6817 -2.8185
17860THY    CA442578   8.530   5.369   6.129 -0.0698 -0.1275 -0.1825
17860THY    HA442579   8.596   5.388   6.044 -1.4153 -0.6833  2.3620
17860THY    CA542580   8.392   5.398   6.119  0.2347  0.4552  0.3179
17860THY    CM142581   8.338   5.445   5.987 -0.0487  0.3868  0.7939
17860THY    HM142582   8.335   5.370   5.907 -1.1256  0.6916  0.4893
17860THY    HM242583   8.390   5.533   5.947  0.1741 -1.9230 -0.3292
17860THY    HM342584   8.235   5.475   6.011 -0.5310  1.5096 -1.5854
17860THY    CA642585   8.309   5.392   6.227 -0.4881 -0.5165 -0.3810
17860THY    HA642586   8.206   5.425   6.213 -0.3433 -2.9349 -0.7582
17861THY      O42587   6.337   7.892   2.505 -0.3907 -0.4302  0.3324
17861THY     HO42588   6.265   7.840   2.544 -1.7218 -1.5012  1.3013
17861THY    CA142589   6.311   8.023   2.534  0.8055  0.4906 -0.0537
17861THY    CA242590   6.338   8.126   2.446 -0.0680 -0.1220 -0.2948
17861THY    CP142591   6.424   8.102   2.320 -0.0506  0.4386  0.4561
17861THY    HP142592   6.403   7.998   2.292  1.3352  2.3962 -0.3930
17861THY    CP242593   6.572   8.132   2.352 -0.0224  0.1562  0.2410
17861THY    HP242594   6.629   8.090   2.268 -0.1462  0.0106  0.3680
17861THY    HP342595   6.620   8.086   2.439  1.2066 -1.5780 -1.9424
17861THY    HP442596   6.587   8.240   2.344 -0.1170  1.6104  0.3903
17861THY    CP342597   6.382   8.183   2.192  0.0538  0.4056 -0.0344
17861THY    HP542598   6.279   8.156   2.167  0.1239  0.3245 -0.2340
17861THY    HP642599   6.443   8.148   2.107 -0.8153 -1.1952  2.0828
17861THY    HP742600   6.404   8.290   2.206 -0.6899 -2.1421  0.5249
17861THY    CA342601   6.307   8.253   2.480 -0.5524 -0.5732 -0.6585
17861THY    HA342602   6.327   8.335   2.412  0.7070 -0.4599 -0.8561
17861THY    CA442603   6.247   8.280   2.602 -0.0786  1.2463 -0.3006
17861THY    HA442604   6.238   8.382   2.640  1.8802 -0.2057  0.4793
17861THY    CA542605   6.224   8.176   2.691  0.2712 -0.1055 -0.5660
17861THY    CM142606   6.154   8.212   2.826  0.4601 -0.6041  0.0715
17861THY    HM142607   6.149   8.141   2.909  2.0291 -2.3267 -2.2006
17861THY    HM242608   6.048   8.224   2.803  0.8374 -4.1263 -2.0087
17861THY    HM342609   6.194   8.309   2.860 -0.1180 -0.0828  0.1323
17861THY    CA642610   6.253   8.043   2.659  0.1646  0.7836 -0.2296
17861THY    HA642611   6.243   7.965   2.734 -0.3622 -0.5676 -1.5086
17862THY      O42612   1.982   2.654   2.660 -0.0437  0.4650  0.5221
17862THY     HO42613   1.971   2.749   2.640 -1.9242  1.1440  0.4809
17862THY    CA142614   1.868   2.598   2.678  0.1191 -0.4265 -0.6285
17862THY    CA242615   1.841   2.469   2.628  0.4032 -0.6067  0.1701
17862THY    CP142616   1.946   2.387   2.558  0.1344 -0.1240 -0.5383
17862THY    HP142617   2.046   2.428   2.576  1.0180 -1.3776 -1.9962
17862THY    CP242618   1.925   2.402   2.415  0.0790  0.0308 -0.3283
17862THY    HP242619   1.830   2.358   2.383  0.2295 -0.0424 -0.6084
17862THY    HP342620   2.002   2.354   2.353 -1.4971 -1.6065 -0.8602
17862THY    HP442621   1.940   2.506   2.385 -0.9261  1.7340  0.3382
17862THY    CP342622   1.952   2.237   2.597 -0.4144 -0.1621 -0.1899
17862THY    HP542623   2.044   2.186   2.565 -0.1681 -0.1375  0.2333
17862THY    HP642624   1.863   2.182   2.563  0.1483  0.8162 -1.7765
17862THY    HP742625   1.941   2.228   2.706 -0.8361 -0.2006 -0.1930
17862THY    CA342626   1.711   2.427   2.642  0.3365 -1.1472  0.0518
17862THY    HA342627   1.685   2.326   2.609 -0.7910 -1.8740  0.5611
17862THY    CA442628   1.607   2.519   2.681 -0.8006 -0.0583  0.4964
17862THY    HA442629   1.501   2.494   2.682 -1.6893 -1.7443  3.5885
17862THY    CA542630   1.642   2.644   2.734 -0.2236  0.3222 -0.4697
17862THY    CM142631   1.537   2.733   2.796 -0.2331 -0.3572  0.0149
17862THY    HM142632   1.479   2.784   2.719  2.1401 -2.5171 -0.2954
17862THY    HM242633   1.588   2.806   2.860  1.9684 -0.9111 -0.9528
17862THY    HM342634   1.473   2.676   2.864 -1.4555  0.0953  1.8519
17862THY    CA642635   1.775   2.686   2.732 -0.0931 -0.2335  0.4467
17862THY    HA642636   1.811   2.778   2.776 -1.1105  0.5368  0.4923
17863THY      O42637   6.276   4.421   2.862 -0.1546 -0.4929  0.3884
17863THY     HO42638   6.228   4.375   2.792 -1.0458  0.0696  0.4335
17863THY    CA142639   6.295   4.543   2.820 -0.1078  0.8629 -0.7734
17863THY    CA242640   6.402   4.620   2.860 -0.5043 -0.1203 -0.1958
17863THY    CP142641   6.506   4.558   2.965 -0.0787  0.3206  0.5166
17863THY    HP142642   6.451   4.511   3.048 -1.1076  0.0765  1.2450
17863THY    CP242643   6.590   4.663   3.045 -0.2592 -0.4346 -0.3859
17863THY    HP242644   6.673   4.699   2.982  0.4776 -0.2687 -1.7299
17863THY    HP342645   6.630   4.621   3.137 -1.7190 -0.1714 -1.2537
17863THY    HP442646   6.533   4.753   3.070  0.5064  0.0349 -0.0207
17863THY    CP342647   6.609   4.464   2.893 -0.7232 -0.3380 -0.1648
17863THY    HP542648   6.675   4.415   2.965 -0.4021  0.4942  1.4275
17863THY    HP642649   6.682   4.525   2.838  0.1640  0.7015 -0.2583
17863THY    HP742650   6.576   4.389   2.820  1.4767  0.5015 -2.0704
17863THY    CA342651   6.414   4.753   2.821 -0.2657  0.3577 -0.6642
17863THY    HA342652   6.495   4.814   2.861 -0.7282  0.7421 -0.3021
17863THY    CA442653   6.331   4.796   2.715  0.5018  0.1041 -0.1813
17863THY    HA442654   6.348   4.894   2.671  1.8743 -0.7125 -0.7550
17863THY    CA542655   6.223   4.715   2.667  0.9142 -0.5434 -0.2363
17863THY    CM142656   6.121   4.768   2.567 -0.2526 -0.0566  0.3583
17863THY    HM142657   6.046   4.816   2.631  0.9444  1.7954 -0.1341
17863THY    HM242658   6.081   4.686   2.506  2.3723 -0.0164 -1.0736
17863THY    HM342659   6.165   4.837   2.494  1.2086  0.1439 -0.3217
17863THY    CA642660   6.195   4.592   2.729 -0.6194  0.0144 -0.5942
17863THY    HA642661   6.107   4.532   2.712 -1.3131  1.3386 -0.0130
17864THY      O42662   1.111   3.389   5.828  0.6556 -0.2148  0.1633
17864THY     HO42663   1.120   3.309   5.774  1.1888 -0.8655  0.6550
17864THY    CA142664   1.218   3.457   5.805  0.5450 -0.0105 -0.3150
17864THY    CA242665   1.229   3.587   5.858 -0.4856  0.5187  0.1320
17864THY    CP142666   1.137   3.635   5.974 -0.8636 -0.0708 -0.0713
17864THY    HP142667   1.072   3.556   6.012  0.7666  1.4511 -0.7514
17864THY    CP242668   1.044   3.745   5.911  0.0238 -0.0920  0.7342
17864THY    HP242669   1.092   3.806   5.835 -0.1545 -0.4824  0.3924
17864THY    HP342670   0.990   3.795   5.992 -0.6381  0.7406 -1.1988
17864THY    HP442671   0.971   3.689   5.851  1.4575  0.8452 -2.4179
17864THY    CP342672   1.220   3.687   6.094  0.4195 -0.2289  0.2553
17864THY    HP542673   1.311   3.626   6.104  0.2742 -1.1954 -0.1406
17864THY    HP642674   1.169   3.673   6.190  0.9682  0.2025  1.1105
17864THY    HP742675   1.252   3.791   6.082  1.6350  0.4814 -0.0249
17864THY    CA342676   1.343   3.665   5.813  0.2774 -0.1578  0.2670
17864THY    HA342677   1.367   3.761   5.858 -0.7141  0.8733  0.0482
17864THY    CA442678   1.431   3.616   5.713 -0.1170 -0.5907 -0.2569
17864THY    HA442679   1.519   3.673   5.685 -0.3937  1.1547  1.1237
17864THY    CA542680   1.408   3.497   5.653 -1.1486 -0.6170  0.1919
17864THY    CM142681   1.499   3.430   5.558 -0.4338  0.4024  0.4557
17864THY    HM142682   1.479   3.465   5.456  2.2241  0.4771  2.5035
17864THY    HM242683   1.495   3.321   5.553  0.6501  1.0344  0.3721
17864THY    HM342684   1.602   3.453   5.586  0.2986 -0.9803 -0.9811
17864THY    CA642685   1.305   3.414   5.706 -0.3753  0.0937  0.1129
17864THY    HA642686   1.299   3.310   5.675 -1.7859  0.6309  0.0091
17865THY      O42687   1.240   8.876   5.693 -0.1755  0.6490 -0.0024
17865THY     HO42688   1.218   8.821   5.771 -0.6353 -0.2548 -1.1409
17865THY    CA142689   1.131   8.952   5.681 -0.5291  0.6906  0.4144
17865THY    CA242690   1.133   9.057   5.592 -0.7722  0.0553  0.3530
17865THY    CP142691   1.256   9.076   5.498 -0.7451 -0.0579  0.4856
17865THY    HP142692   1.342   9.018   5.532  0.4835 -1.3808  1.4620
17865THY    CP242693   1.297   9.225   5.490 -0.1760 -0.3466  0.2537
17865THY    HP242694   1.390   9.230   5.432 -0.5670 -0.9979  0.1087
17865THY    HP342695   1.304   9.278   5.586 -0.9022  0.5856 -1.2657
17865THY    HP442696   1.216   9.276   5.437  0.2229 -0.8212  0.4036
17865THY    CP342697   1.223   9.033   5.354 -0.0787 -0.4520  0.1901
17865THY    HP542698   1.310   9.030   5.287  1.5157  1.5422 -0.0438
17865THY    HP642699   1.152   9.107   5.315  1.5704 -1.8839  1.1030
17865THY    HP742700   1.166   8.940   5.366  1.6341  3.9174 -0.5402
17865THY    CA342701   1.011   9.123   5.568  0.1292  0.2535  0.7662
17865THY    HA342702   0.996   9.194   5.487  0.5297  1.7453  2.6218
17865THY    CA442703   0.906   9.101   5.647  0.3235  0.0860  0.7058
17865THY    HA442704   0.811   9.151   5.628  1.4708 -2.0973  2.1820
17865THY    CA542705   0.905   9.007   5.751 -0.4122  0.4331  1.0762
17865THY    CM142706   0.785   8.995   5.846  0.5919  0.1135  0.2992
17865THY    HM142707   0.793   8.903   5.905 -0.8511  0.1670  0.1870
17865THY    HM242708   0.688   8.981   5.796  0.2034  1.0563 -0.4394
17865THY    HM342709   0.788   9.075   5.921  0.3486  1.0767 -0.5846
17865THY    CA642710   1.025   8.931   5.766  0.6030  0.0071  1.3342
17865THY    HA642711   1.029   8.856   5.844 -1.8418 -0.9168  0.1459
17866THY      O42712   3.071   5.784   2.476 -0.3853  0.2027 -0.0956
17866THY     HO42713   3.104   5.872   2.501  0.9070 -0.4665 -0.3483
17866THY    CA142714   3.162   5.703   2.529  0.4827 -0.4047  0.5350
17866THY    CA242715   3.148   5.563   2.512 -0.3127  0.6238 -0.1040
17866THY    CP142716   3.072   5.499   2.397 -0.4465  0.3178  0.0432
17866THY    HP142717   3.041   5.565   2.314 -1.2454  0.7078  0.1647
17866THY    CP242718   2.948   5.434   2.466 -0.7030  0.2465 -0.2636
17866THY    HP242719   2.968   5.372   2.554 -1.3150  1.4258  1.1467
17866THY    HP342720   2.879   5.388   2.394 -4.2628  1.7341  2.2694
17866THY    HP442721   2.881   5.512   2.505  0.9693  1.5060  0.5899
17866THY    CP342722   3.149   5.395   2.313  0.3914  0.0247 -0.8195
17866THY    HP542723   3.188   5.311   2.373 -0.2661  0.5449 -0.7648
17866THY    HP642724   3.238   5.442   2.270  1.5256  1.8247 -1.2059
17866THY    HP742725   3.083   5.366   2.230  0.3267 -0.0701 -0.3969
17866THY    CA342726   3.212   5.475   2.605 -0.1100 -0.6898  1.0590
17866THY    HA342727   3.188   5.369   2.602 -1.9065  0.2837  1.3898
17866THY    CA442728   3.297   5.531   2.706 -0.5273  0.2045 -0.2962
17866THY    HA442729   3.351   5.458   2.766  1.1915 -0.3150  0.4888
17866THY    CA542730   3.311   5.668   2.717  0.0923 -0.0421 -0.6825
17866THY    CM142731   3.397   5.724   2.827  0.5995  0.0414 -0.3077
17866THY    HM142732   3.394   5.656   2.912 -0.0588 -0.5711 -1.0532
17866THY    HM242733   3.359   5.820   2.864 -1.4433 -0.1668 -0.9808
17866THY    HM342734   3.502   5.729   2.796  0.7745  0.6613  0.0268
17866THY    CA642735   3.242   5.750   2.631 -0.2697 -1.3175 -0.3377
17866THY    HA642736   3.252   5.857   2.647 -3.0339  0.1206 -0.2180
17867THY      O42737   9.326   1.907   3.949  0.2232  0.2361 -0.3169
17867THY     HO42738   9.368   1.868   3.870 -0.7274 -0.1808 -0.5348
17867THY    CA142739   9.208   1.947   3.914 -0.6636  0.7721  0.5244
17867THY    CA242740   9.128   2.025   3.997 -0.2180 -0.1501 -0.2271
17867THY    CP142741   9.176   2.057   4.141 -0.0978  0.8854 -0.5107
17867THY    HP142742   9.281   2.026   4.155  0.3532 -1.4102 -0.1805
17867THY    CP242743   9.089   1.984   4.247  0.8972 -0.6239 -0.6088
17867THY    HP242744   9.010   2.047   4.290  0.7995 -0.3326 -0.9226
17867THY    HP342745   9.167   1.966   4.322  1.0687 -0.5001  0.5533
17867THY    HP442746   9.042   1.898   4.198  0.5430 -2.3790  0.5289
17867THY    CP342747   9.168   2.207   4.159  0.0219 -0.9762 -0.5679
17867THY    HP542748   9.221   2.266   4.083  1.4796 -0.8666 -1.6944
17867THY    HP642749   9.222   2.230   4.252 -0.2258 -0.2431 -2.7683
17867THY    HP742750   9.071   2.252   4.186 -0.2991 -1.8796 -0.7147
17867THY    CA342751   9.003   2.067   3.941  1.0191  0.1219 -0.7485
17867THY    HA342752   8.935   2.120   4.008 -0.4618  0.0932 -2.5281
17867THY    CA442753   8.962   2.023   3.813 -0.2650 -0.4263  0.4198
17867THY    HA442754   8.861   2.049   3.783 -1.8987  1.7390 -2.7538
17867THY    CA542755   9.040   1.942   3.735  0.4198 -0.4820  0.0019
17867THY    CM142756   8.983   1.889   3.601 -0.2340 -0.2550  0.5346
17867THY    HM142757   8.929   1.969   3.549 -0.5755  2.4157  2.1680
17867THY    HM242758   8.917   1.804   3.621 -0.4703  1.6873  1.1326
17867THY    HM342759   9.063   1.851   3.536  0.8392  0.5928  1.2745
17867THY    CA642760   9.163   1.901   3.785  0.4600 -0.1224 -0.2560
17867THY    HA642761   9.224   1.837   3.721 -0.3997 -0.3583 -0.8629
17868THY      O42762   8.903   8.480   2.257  0.0716  0.3802  0.1621
17868THY     HO42763   8.995   8.498   2.231  0.8344  2.6114 -0.2620
17868THY    CA142764   8.839   8.594   2.294  0.1270 -0.0684  0.0217
17868THY    CA242765   8.699   8.597   2.298  0.3694  0.0264 -0.2754
17868THY    CP142766   8.614   8.479   2.263  0.0205  0.4649 -0.3357
17868THY    HP142767   8.675   8.397   2.223 -1.1227 -0.6356 -0.6826
17868THY    CP242768   8.530   8.510   2.140  0.6838  0.0843  0.0702
17868THY    HP242769   8.495   8.409   2.114  1.5339  0.0419 -0.2198
17868THY    HP342770   8.591   8.544   2.056  0.3267  0.2325  1.1138
17868THY    HP442771   8.442   8.572   2.162 -0.0250 -0.8624 -0.5806
17868THY    CP342772   8.526   8.429   2.370  0.1774 -1.0056  0.5567
17868THY    HP542773   8.590   8.403   2.454  0.3928 -1.1436  0.6425
17868THY    HP642774   8.461   8.344   2.344  2.4827  2.4306 -2.5539
17868THY    HP742775   8.466   8.515   2.402  0.2842 -1.1886  0.7018
17868THY    CA342776   8.639   8.718   2.346  0.5845  0.5612 -0.0463
17868THY    HA342777   8.531   8.721   2.355  0.7344  2.4091  1.7378
17868THY    CA442778   8.718   8.829   2.380 -0.0671 -0.5381  0.1533
17868THY    HA442779   8.672   8.916   2.425 -0.9650  1.9536 -1.5313
17868THY    CA542780   8.856   8.828   2.363 -0.3116  1.0166 -0.2030
17868THY    CM142781   8.937   8.943   2.406  0.2163  0.3922 -0.1830
17868THY    HM142782   8.929   8.969   2.512 -1.1004 -0.0017  1.1061
17868THY    HM242783   8.916   9.032   2.346 -1.0789  2.1776  0.7464
17868THY    HM342784   9.043   8.920   2.386  0.2676  0.2903  0.1307
17868THY    CA642785   8.919   8.705   2.321 -0.3595  0.5222  0.2684
17868THY    HA642786   9.025   8.685   2.309 -0.7306 -1.4691 -0.7478
17869THY      O42787   1.076   6.939   7.001 -0.5386 -0.2618  0.0971
17869THY     HO42788   1.023   6.906   7.075  1.2575  0.3537 -1.6153
17869THY    CA142789   1.180   6.857   6.990  0.3484  0.1618 -0.1861
17869THY    CA242790   1.301   6.892   6.931  0.3342 -0.1997 -0.5048
17869THY    CP142791   1.316   7.035   6.877 -0.6186 -0.1580 -0.0982
17869THY    HP142792   1.227   7.098   6.886 -0.3869 -1.0308  0.3842
17869THY    CP242793   1.349   7.042   6.730  0.3385  0.4372 -0.0620
17869THY    HP242794   1.451   7.009   6.707  0.9778  0.6011  1.6870
17869THY    HP342795   1.345   7.147   6.697  1.6231  0.0647 -0.1040
17869THY    HP442796   1.268   6.982   6.687  0.0255  2.9118 -1.5374
17869THY    CP342797   1.421   7.113   6.951  0.0608 -0.4809 -0.0206
17869THY    HP542798   1.379   7.132   7.050 -0.0067 -0.4711 -0.2191
17869THY    HP642799   1.452   7.205   6.900  0.2918  3.9370  2.6303
17869THY    HP742800   1.513   7.055   6.969  0.1152  0.0772  0.2329
17869THY    CA342801   1.404   6.796   6.927  0.0798  0.2813  1.0769
17869THY    HA342802   1.503   6.822   6.890  0.7037  1.0043 -0.1960
17869THY    CA442803   1.385   6.661   6.974  0.2207 -0.3337  0.0475
17869THY    HA442804   1.475   6.600   6.976  1.3735 -0.6299  1.6705
17869THY    CA542805   1.258   6.622   7.020 -0.5116 -0.1439 -0.3924
17869THY    CM142806   1.243   6.491   7.079  0.3649  0.0103  0.9725
17869THY    HM142807   1.273   6.414   7.007  0.8173  0.8655  0.3401
17869THY    HM242808   1.136   6.481   7.103  0.6223  0.9219  0.3345
17869THY    HM342809   1.312   6.483   7.163  0.6045 -0.2521  0.3039
17869THY    CA642810   1.160   6.721   7.025  0.4602  0.1182  0.3996
17869THY    HA642811   1.063   6.693   7.066  0.2473  0.6251  1.7962
17870THY      O42812   9.120   3.214   3.866 -0.2535 -0.0181  0.2287
17870THY     HO42813   9.109   3.229   3.961 -0.8471  0.2219 -1.4505
17870THY    CA142814   9.226   3.276   3.818  0.6087 -0.1854  0.3407
17870THY    CA242815   9.272   3.237   3.692  0.0425 -0.0559 -0.3684
17870THY    CP142816   9.224   3.102   3.631 -0.2730 -0.2678 -0.2271
17870THY    HP142817   9.125   3.076   3.672  0.0606  1.0212  0.4924
17870THY    CP242818   9.330   2.992   3.637 -0.1630 -0.2843 -0.1892
17870THY    HP242819   9.373   2.969   3.735  0.8302 -0.5646  0.4085
17870THY    HP342820   9.419   3.014   3.577  1.9093  2.8323  0.6798
17870THY    HP442821   9.278   2.900   3.608 -0.3523 -0.1002 -0.1422
17870THY    CP342822   9.198   3.121   3.480 -0.4954 -0.3430  0.7785
17870THY    HP542823   9.175   3.028   3.427 -2.4763  0.6938  0.6213
17870THY    HP642824   9.286   3.167   3.433 -0.3858 -0.0062  0.9219
17870THY    HP742825   9.110   3.183   3.460  0.5087  0.1055  2.4201
17870THY    CA342826   9.379   3.316   3.634 -0.4588  0.0349  0.5315
17870THY    HA342827   9.424   3.282   3.541 -1.3021 -0.2311  0.0992
17870THY    CA442828   9.427   3.427   3.700 -0.9349 -0.4437 -0.1478
17870THY    HA442829   9.506   3.489   3.658 -2.2409 -2.5536  0.1670
17870THY    CA542830   9.394   3.451   3.834  0.6165  0.6256 -0.1514
17870THY    CM142831   9.453   3.570   3.902 -0.3996  0.4536  0.0201
17870THY    HM142832   9.426   3.557   4.007 -2.9221 -0.0725  0.4422
17870THY    HM242833   9.407   3.663   3.866 -1.7376  1.2195 -0.3193
17870THY    HM342834   9.562   3.562   3.893 -0.5087 -0.7868 -0.2703
17870THY    CA642835   9.292   3.376   3.891  0.0593  0.6246 -0.4925
17870THY    HA642836   9.264   3.391   3.995 -0.8269  0.4082 -0.6191
17871THY      O42837   8.733   2.186   4.997 -0.1327 -0.1587  0.2051
17871THY     HO42838   8.756   2.091   5.003  0.6891 -1.2231  0.3194
17871THY    CA142839   8.755   2.196   4.862  0.4273 -0.6091 -1.0293
17871THY    CA242840   8.719   2.309   4.788  0.1401  0.1858 -0.2366
17871THY    CP142841   8.662   2.427   4.863 -0.0329  0.0989 -0.9956
17871THY    HP142842   8.643   2.411   4.970  0.2813  0.1103 -1.3060
17871THY    CP242843   8.533   2.467   4.800  0.2559  0.3125  0.4792
17871THY    HP242844   8.460   2.385   4.794  2.3731 -0.8393 -1.4350
17871THY    HP342845   8.542   2.491   4.694  0.5390 -0.1234 -1.4554
17871THY    HP442846   8.472   2.541   4.854  0.5394  0.2005  0.7946
17871THY    CP342847   8.752   2.555   4.863 -0.7156 -0.1053 -0.2501
17871THY    HP542848   8.700   2.651   4.869  0.7564  1.5674  0.5054
17871THY    HP642849   8.805   2.564   4.767 -2.3674 -1.1981 -1.5256
17871THY    HP742850   8.822   2.556   4.948 -0.2881 -0.4563  0.0976
17871THY    CA342851   8.746   2.298   4.645  0.0227 -0.4227 -0.1164
17871THY    HA342852   8.740   2.392   4.590 -1.1280  0.1576  0.1767
17871THY    CA442853   8.801   2.179   4.586 -0.0826 -0.1933  0.4254
17871THY    HA442854   8.831   2.182   4.482  0.4611 -0.0148  1.8652
17871THY    CA542855   8.844   2.078   4.666 -0.8965 -0.1390 -0.6816
17871THY    CM142856   8.918   1.963   4.610 -0.4684  0.6447 -0.4463
17871THY    HM142857   9.011   1.993   4.559 -0.2016  1.5001  0.2198
17871THY    HM242858   8.860   1.927   4.524 -1.0552  0.8733 -0.0669
17871THY    HM342859   8.935   1.873   4.669  0.8082 -1.7481 -1.8728
17871THY    CA642860   8.816   2.085   4.807  0.0789  0.3733  0.1090
17871THY    HA642861   8.846   1.995   4.861 -0.3756 -1.3713 -1.1435
17872THY      O42862   4.927   5.404   4.553  0.5783 -0.0594 -0.4669
17872THY     HO42863   4.899   5.312   4.543 -2.9985 -1.9332  0.6513
17872THY    CA142864   5.059   5.406   4.564  0.0498 -0.0595 -0.2780
17872THY    CA242865   5.136   5.526   4.590 -0.2626 -0.8196  0.1332
17872THY    CP142866   5.063   5.653   4.618  0.1929 -0.9216  0.3663
17872THY    HP142867   4.963   5.659   4.572  0.2198 -0.9956  0.2435
17872THY    CP242868   5.130   5.783   4.566 -0.9492  0.3222 -0.3062
17872THY    HP242869   5.235   5.789   4.597 -0.6721 -0.6720  0.1004
17872THY    HP342870   5.090   5.876   4.609 -1.4113  0.2034 -0.4445
17872THY    HP442871   5.119   5.776   4.457 -0.8699  0.3505 -0.9406
17872THY    CP342872   5.042   5.679   4.766  0.7065 -0.0992  0.1169
17872THY    HP542873   5.142   5.677   4.811  0.8163 -0.3363  0.2172
17872THY    HP642874   4.983   5.602   4.816  1.3349  1.6899  0.7529
17872THY    HP742875   4.991   5.774   4.782  1.4028  0.2647  0.4371
17872THY    CA342876   5.274   5.518   4.607 -0.1109 -0.4376  0.4584
17872THY    HA342877   5.333   5.603   4.639 -1.8980 -0.4988  1.7718
17872THY    CA442878   5.336   5.393   4.593 -0.0264  0.5712  0.2700
17872THY    HA442879   5.443   5.387   4.612  0.5650 -1.7374  1.9608
17872THY    CA542880   5.267   5.280   4.566  0.3396  0.4286 -0.1242
17872THY    CM142881   5.346   5.144   4.556  0.3621  0.5243  0.4592
17872THY    HM142882   5.451   5.157   4.528  0.4261 -0.7759 -2.2734
17872THY    HM242883   5.298   5.094   4.471  0.8988  0.6329 -0.2466
17872THY    HM342884   5.330   5.094   4.653  0.1215 -0.2424 -1.0110
17872THY    CA642885   5.129   5.284   4.546  0.5228 -0.2146  0.3146
17872THY    HA642886   5.073   5.195   4.519  0.4729 -2.5397  0.9977
17873THY      O42887   0.248   2.197   6.848  0.1143 -0.1000 -0.3925
17873THY     HO42888   0.216   2.156   6.766  2.2544 -0.7434 -0.8835
17873THY    CA142889   0.220   2.334   6.842  0.1412 -0.8001 -0.1829
17873THY    CA242890   0.222   2.418   6.959  0.1341  0.0099 -0.0430
17873THY    CP142891   0.227   2.362   7.097 -0.4943 -0.9387 -0.5306
17873THY    HP142892   0.229   2.253   7.102  0.6058  0.6652 -0.4729
17873THY    CP242893   0.093   2.400   7.170  0.7749 -0.0680 -0.4177
17873THY    HP242894   0.020   2.348   7.106  2.1807 -1.6249 -0.5797
17873THY    HP342895   0.075   2.508   7.167  0.0295 -0.1611 -0.5330
17873THY    HP442896   0.105   2.361   7.271  3.4093 -0.2984 -0.3568
17873THY    CP342897   0.339   2.424   7.183 -0.1329  0.4162  0.2592
17873THY    HP542898   0.326   2.533   7.194 -1.0879 -1.9362  0.4316
17873THY    HP642899   0.435   2.409   7.133 -1.2052 -1.6050 -0.1996
17873THY    HP742900   0.351   2.382   7.284  0.8808 -0.0959 -0.7453
17873THY    CA342901   0.195   2.553   6.939 -0.1175  0.4829 -0.0278
17873THY    HA342902   0.194   2.626   7.019  1.1726  0.1375  0.3953
17873THY    CA442903   0.186   2.603   6.807 -0.1124 -0.6958  0.2260
17873THY    HA442904   0.189   2.707   6.776 -1.0644 -2.2690 -0.1785
17873THY    CA542905   0.185   2.518   6.698  0.5079  0.2004  0.5865
17873THY    CM142906   0.181   2.579   6.562 -0.1551 -0.5630 -0.0614
17873THY    HM142907   0.198   2.688   6.566  0.2060  0.2180 -0.1405
17873THY    HM242908   0.084   2.558   6.516  0.4262 -0.8014 -2.4182
17873THY    HM342909   0.265   2.549   6.498 -0.5192 -0.5056 -1.2550
17873THY    CA642910   0.208   2.383   6.714 -0.4173  0.6286 -0.1564
17873THY    HA642911   0.222   2.322   6.625 -1.2414  0.2118  0.2487
17874THY      O42912   6.962   1.919   5.418 -0.3618 -0.1459 -0.1882
17874THY     HO42913   7.025   1.927   5.492 -0.6626 -0.0811  2.9318
17874THY    CA142914   7.036   1.940   5.314  0.0834  0.6158 -0.6539
17874THY    CA242915   6.992   1.921   5.184 -0.2003  0.8135 -0.0296
17874THY    CP142916   6.849   1.887   5.161 -0.3631 -0.3677  0.3679
17874THY    HP142917   6.798   1.858   5.254  1.0648  1.0285  2.1231
17874THY    CP242918   6.826   1.762   5.081  0.0610  0.2082 -0.0941
17874THY    HP242919   6.890   1.764   4.992  2.5347  1.8898  0.7112
17874THY    HP342920   6.720   1.751   5.055 -0.1546  0.9551  0.1567
17874THY    HP442921   6.856   1.673   5.138  3.3095 -0.6188  0.3661
17874THY    CP342922   6.781   2.007   5.094 -0.5098 -0.5023 -0.4298
17874THY    HP542923   6.676   1.984   5.070 -1.5062  1.1427  1.9851
17874THY    HP642924   6.826   2.038   4.999 -2.0922 -1.7274 -1.6795
17874THY    HP742925   6.790   2.091   5.164 -0.1689  1.2355 -1.8662
17874THY    CA342926   7.082   1.939   5.074 -0.1861 -0.0171 -0.1953
17874THY    HA342927   7.049   1.913   4.974 -0.4307 -0.0398  0.1892
17874THY    CA442928   7.211   1.984   5.096 -0.2936 -0.9675 -0.2083
17874THY    HA442929   7.286   1.991   5.018  0.4828 -0.4176 -1.9203
17874THY    CA542930   7.251   2.009   5.229  0.3547  0.6547  0.0326
17874THY    CM142931   7.393   2.041   5.266  0.1081 -0.3284  0.2363
17874THY    HM142932   7.465   2.000   5.194  0.7566  0.4627 -0.0586
17874THY    HM242933   7.424   1.995   5.361  3.3481 -0.8119  1.2026
17874THY    HM342934   7.410   2.149   5.272 -1.1548 -0.0549  0.4387
17874THY    CA642935   7.162   1.986   5.329 -0.7391 -0.3546  0.3675
17874THY    HA642936   7.196   2.008   5.430  0.9710 -1.1721  1.6758
17875THY      O42937   7.005   6.660   6.665  0.7015 -0.3543 -0.0697
17875THY     HO42938   6.959   6.682   6.748  2.3581  0.7240 -0.4767
17875THY    CA142939   7.050   6.533   6.677 -0.5650  0.8243 -0.7993
17875THY    CA242940   7.115   6.477   6.567 -0.5441  0.2466  0.1302
17875THY    CP142941   7.132   6.557   6.434  0.2437  0.0327  0.8890
17875THY    HP142942   7.096   6.660   6.447 -2.2441  1.6199 -0.0802
17875THY    CP242943   7.043   6.493   6.320 -0.4818 -0.4545  0.2429
17875THY    HP242944   7.058   6.385   6.312 -1.2598 -0.3435  0.1216
17875THY    HP342945   7.045   6.542   6.222 -0.8051 -0.6907 -0.2068
17875THY    HP442946   6.941   6.499   6.361  0.7303  2.6384  2.1243
17875THY    CP342947   7.282   6.539   6.383  0.8909  0.1855 -0.2099
17875THY    HP542948   7.355   6.576   6.455  1.1740  1.5292 -3.0837
17875THY    HP642949   7.285   6.591   6.287 -0.8607  0.5404  0.5912
17875THY    HP742950   7.310   6.434   6.369  0.2594 -0.8167 -0.2576
17875THY    CA342951   7.143   6.343   6.579  0.5463  0.6609  0.5817
17875THY    HA342952   7.185   6.291   6.493 -1.8495 -0.6013  0.5912
17875THY    CA442953   7.130   6.272   6.696  0.3631  0.3461  0.1783
17875THY    HA442954   7.169   6.171   6.707  2.0617  0.0182  0.7824
17875THY    CA542955   7.064   6.332   6.807  0.2609 -0.3959  0.5546
17875THY    CM142956   7.052   6.256   6.940  0.1076 -0.1453 -0.2337
17875THY    HM142957   6.958   6.289   6.987  1.1154  3.2128 -1.6705
17875THY    HM242958   7.127   6.287   7.013 -1.7503  2.2595 -1.0505
17875THY    HM342959   7.039   6.147   6.943  0.9151  2.7320 -0.3484
17875THY    CA642960   7.036   6.469   6.797 -0.5742 -0.4390  0.0859
17875THY    HA642961   7.004   6.530   6.881  1.2414  0.9653 -0.8356
17876THY      O42962   7.241   4.087   2.011  0.2619 -0.1382  0.2503
17876THY     HO42963   7.218   4.057   1.921  0.8493 -0.4050  0.5921
17876THY    CA142964   7.266   4.217   2.002 -0.0851 -0.4726 -0.5148
17876THY    CA242965   7.299   4.293   2.120  0.4222 -0.4346 -0.3535
17876THY    CP142966   7.285   4.230   2.259 -0.5004 -0.6226  0.4110
17876THY    HP142967   7.266   4.122   2.254  1.2755  0.3474  0.0151
17876THY    CP242968   7.163   4.275   2.335  0.1563  0.1915  0.8288
17876THY    HP242969   7.181   4.379   2.367 -1.3851 -1.8847  1.8294
17876THY    HP342970   7.141   4.208   2.419 -0.7573 -0.5800  0.1473
17876THY    HP442971   7.074   4.282   2.271  0.8648 -0.8096  0.9026
17876THY    CP342972   7.416   4.248   2.348 -0.4263  0.1473 -0.3467
17876THY    HP542973   7.406   4.191   2.441 -0.5972  1.1083  1.2066
17876THY    HP642974   7.435   4.352   2.376 -0.8093  1.6420 -0.6640
17876THY    HP742975   7.509   4.207   2.305 -0.2077  0.5548 -0.2822
17876THY    CA342976   7.343   4.428   2.101 -0.3641  0.3639  0.2794
17876THY    HA342977   7.364   4.494   2.185  1.4634 -0.2993  0.6272
17876THY    CA442978   7.330   4.482   1.974 -0.0434  0.8712  0.5775
17876THY    HA442979   7.343   4.589   1.956 -4.0369  0.1131  1.1213
17876THY    CA542980   7.294   4.407   1.866  0.5644  0.1519  1.1253
17876THY    CM142981   7.283   4.473   1.730  0.0885  0.1374  0.2889
17876THY    HM142982   7.375   4.528   1.709 -0.0745 -1.5712 -0.0212
17876THY    HM242983   7.203   4.546   1.717  1.2015  2.3711  2.0106
17876THY    HM342984   7.285   4.393   1.655  0.2939 -0.5591  0.9345
17876THY    CA642985   7.261   4.270   1.875 -0.1376 -0.1774  0.3986
17876THY    HA642986   7.239   4.208   1.789 -1.0539  1.5923 -1.8781
17877THY      O42987   2.642   0.512   4.514 -0.1219  0.2034 -0.4045
17877THY     HO42988   2.604   0.469   4.436  0.4125  0.0267 -0.5707
17877THY    CA142989   2.551   0.612   4.542 -0.7915 -0.2779  0.3380
17877THY    CA242990   2.564   0.694   4.652 -0.7866 -0.1754  0.5726
17877THY    CP142991   2.685   0.676   4.748 -0.1263  0.0268 -0.3460
17877THY    HP142992   2.732   0.580   4.725  0.4869 -0.3710  0.0428
17877THY    CP242993   2.646   0.673   4.898  0.0184  0.1501  0.0312
17877THY    HP242994   2.613   0.774   4.928 -0.3777  0.2230 -0.1167
17877THY    HP342995   2.719   0.637   4.971 -0.4432 -0.1734 -1.6154
17877THY    HP442996   2.566   0.598   4.909 -0.7839 -1.9477  0.5131
17877THY    CP342997   2.798   0.778   4.716 -0.0121 -0.2041 -0.0095
17877THY    HP542998   2.758   0.874   4.752 -1.9192 -2.3293  0.0866
17877THY    HP642999   2.815   0.802   4.610  2.8487 -0.1312 -1.3589
17877THY    HP743000   2.891   0.749   4.765 -0.6961  0.0588 -1.8994
17877THY    CA343001   2.473   0.807   4.675 -0.3591 -0.3053 -0.2194
17877THY    HA343002   2.501   0.890   4.739 -0.6598  0.2699 -0.5609
17877THY    CA443003   2.357   0.811   4.598  0.5548  0.5289  0.4074
17877THY    HA443004   2.276   0.883   4.608 -0.9476  1.7149 -1.3592
17877THY    CA543005   2.343   0.725   4.485 -0.4128  0.0998  0.4785
17877THY    CM143006   2.219   0.734   4.387 -0.0841  0.5025  0.5986
17877THY    HM143007   2.237   0.683   4.292  0.2812 -2.0358  4.9591
17877THY    HM243008   2.186   0.835   4.360 -1.3567  1.3218  0.4296
17877THY    HM343009   2.134   0.690   4.440  0.7263 -0.2761 -2.1088
17877THY    CA643010   2.444   0.630   4.453  0.0030 -0.4490 -0.3393
17877THY    HA643011   2.422   0.549   4.384  1.7347 -1.4818  0.0221
17878THY      O43012   4.152   4.121   7.293  0.0415  0.1509  0.1401
17878THY     HO43013   4.130   4.145   7.201 -3.3670  1.1013  1.1681
17878THY    CA143014   4.070   4.216   7.359 -0.3169  0.5572 -0.0653
17878THY    CA243015   3.978   4.172   7.454  0.8523  0.3730 -0.5993
17878THY    CP143016   3.951   4.030   7.490  0.0796 -0.8611  0.5173
17878THY    HP143017   4.003   3.955   7.429  1.1598  1.7226 -0.9625
17878THY    CP243018   3.804   3.995   7.487 -0.0403 -0.4046 -0.3841
17878THY    HP243019   3.758   4.043   7.399  0.0443  0.9425  2.3780
17878THY    HP343020   3.750   4.043   7.569  0.2691 -1.5261  2.0569
17878THY    HP443021   3.788   3.887   7.496 -0.0144  0.7176 -0.3047
17878THY    CP343022   3.999   4.014   7.632 -0.1067 -0.0181  0.4908
17878THY    HP543023   4.097   4.064   7.633 -0.0657 -0.9770  0.4498
17878THY    HP643024   4.006   3.909   7.661  0.0422  2.0690  1.0434
17878THY    HP743025   3.930   4.051   7.708 -0.1652  0.6247 -0.8797
17878THY    CA343026   3.916   4.268   7.533 -0.1845 -0.5577 -0.2160
17878THY    HA343027   3.869   4.241   7.627 -0.8691 -1.3796 -2.0336
17878THY    CA443028   3.924   4.403   7.499 -0.1320  0.3299  0.1484
17878THY    HA443029   3.864   4.476   7.554  1.0007  1.7073  0.0832
17878THY    CA543030   4.000   4.441   7.387  0.5990 -0.8419 -0.1418
17878THY    CM143031   4.013   4.586   7.362 -0.4092 -0.0348 -0.2344
17878THY    HM143032   4.017   4.612   7.255  2.1957  0.2637  0.9782
17878THY    HM243033   4.097   4.637   7.412  1.4267 -0.5459 -2.5733
17878THY    HM343034   3.927   4.651   7.380 -0.8143 -3.3360  0.3481
17878THY    CA643035   4.081   4.348   7.321  0.8997 -0.2001  0.1239
17878THY    HA643036   4.135   4.389   7.236 -1.9601 -0.3240  4.2970
17879THY      O43037   5.506   9.148   1.987  0.4503 -0.1219 -0.1320
17879THY     HO43038   5.470   9.229   2.026  0.1943 -1.0221  0.2040
17879THY    CA143039   5.614   9.186   1.914  0.1898 -0.2938  0.1603
17879THY    CA243040   5.726   9.106   1.893  0.8093 -1.0157 -0.6240
17879THY    CP143041   5.730   8.965   1.947 -0.0002  0.2125  0.7477
17879THY    HP143042   5.630   8.937   1.981 -0.5074 -1.4474  0.4782
17879THY    CP243043   5.831   8.946   2.062 -0.2442 -0.1620 -0.5109
17879THY    HP243044   5.805   8.877   2.143  1.3937 -0.3900 -1.4565
17879THY    HP343045   5.864   9.041   2.107 -2.9306  1.2892 -0.1689
17879THY    HP443046   5.922   8.903   2.020  1.6788 -0.3222  3.2749
17879THY    CP343047   5.747   8.863   1.832  0.3794  0.0182  0.8312
17879THY    HP543048   5.677   8.886   1.751  1.3226 -0.9013  0.5517
17879THY    HP643049   5.725   8.761   1.866  0.1634  0.9285  1.1654
17879THY    HP743050   5.849   8.858   1.794  0.2085 -0.2728 -1.5539
17879THY    CA343051   5.836   9.164   1.816 -0.5472 -0.4642  0.1445
17879THY    HA343052   5.930   9.110   1.807 -0.7302 -1.4976 -0.0118
17879THY    CA443053   5.830   9.295   1.777 -0.2701  0.1427  0.0035
17879THY    HA443054   5.911   9.338   1.720 -0.0336  0.4789  0.0015
17879THY    CA543055   5.714   9.369   1.796 -0.8727 -0.0993  0.4771
17879THY    CM143056   5.703   9.502   1.728  0.0220  0.4139 -0.2512
17879THY    HM143057   5.768   9.505   1.640 -0.5502 -0.1327 -2.0817
17879THY    HM243058   5.729   9.586   1.793 -0.1229 -0.8430  0.7966
17879THY    HM343059   5.606   9.517   1.679  0.5990 -0.5941  0.2725
17879THY    CA643060   5.608   9.311   1.862  0.1006 -0.0835 -0.4851
17879THY    HA643061   5.512   9.363   1.871  0.3237 -1.0210  0.1199
17880THY      O43062   1.832   6.569   2.606  0.5803 -0.1473 -0.1269
17880THY     HO43063   1.923   6.536   2.594  0.8189  0.0070  0.4483
17880THY    CA143064   1.775   6.473   2.678 -0.0438  1.1263 -0.7482
17880THY    CA243065   1.677   6.506   2.770  1.2479  0.1191  0.7796
17880THY    CP143066   1.624   6.649   2.790  0.7944 -0.3278 -0.3718
17880THY    HP143067   1.657   6.709   2.704  1.1362 -0.7386 -1.1478
17880THY    CP243068   1.678   6.695   2.922 -0.0677  0.5985  0.1136
17880THY    HP243069   1.787   6.699   2.929 -0.1226  1.4709  0.5095
17880THY    HP343070   1.634   6.638   3.005 -0.3276  0.5093  0.1810
17880THY    HP443071   1.633   6.795   2.934  0.1141 -0.7091  0.3654
17880THY    CP343072   1.469   6.659   2.784 -0.1433  0.1214 -0.2966
17880THY    HP543073   1.423   6.614   2.874 -2.4013  0.4328  2.3589
17880THY    HP643074   1.435   6.610   2.692  0.4250  0.0677 -0.6019
17880THY    HP743075   1.442   6.765   2.795  1.9978 -0.6973  0.3676
17880THY    CA343076   1.614   6.400   2.845 -0.2129 -0.1528 -0.5572
17880THY    HA343077   1.538   6.425   2.919  0.0086 -0.3184  0.6861
17880THY    CA443078   1.657   6.269   2.829 -0.1574  0.3791  0.2146
17880THY    HA443079   1.609   6.190   2.886  1.0929 -1.1418 -1.7212
17880THY    CA543080   1.775   6.247   2.748  0.0090  0.1546 -0.0856
17880THY    CM143081   1.812   6.103   2.734  0.6565  0.6269 -0.1845
17880THY    HM143082   1.896   6.089   2.665 -0.8455 -1.0663 -1.1285
17880THY    HM243083   1.727   6.040   2.707  1.6010 -2.5592 -0.2397
17880THY    HM343084   1.836   6.061   2.832 -0.4405  1.6577  1.4665
17880THY    CA643085   1.826   6.343   2.662 -0.3616  0.5930 -1.1748
17880THY    HA643086   1.907   6.330   2.591  0.3686  1.3123 -0.5764
17881THY      O43087   7.450   2.764   4.131 -0.1140 -0.1139  0.3808
17881THY     HO43088   7.470   2.698   4.062 -0.0224  1.0358 -0.8307
17881THY    CA143089   7.522   2.872   4.099 -0.1770 -0.3478 -0.5752
17881THY    CA243090   7.548   2.974   4.191 -0.4963 -0.7626 -0.4930
17881THY    CP143091   7.499   2.976   4.337 -0.8350 -0.3899 -0.3123
17881THY    HP143092   7.425   2.898   4.358 -0.3591 -2.2145 -1.3089
17881THY    CP243093   7.414   3.104   4.358 -0.5659 -0.0378 -0.4058
17881THY    HP243094   7.455   3.193   4.310 -1.0789 -2.7508 -1.5490
17881THY    HP343095   7.409   3.126   4.465 -0.8788 -0.1794  0.2117
17881THY    HP443096   7.320   3.085   4.305 -0.5501 -0.1354 -0.2059
17881THY    CP343097   7.607   2.967   4.442 -0.2851  0.2140 -0.9772
17881THY    HP543098   7.661   3.062   4.429 -1.8023 -1.6830 -0.3059
17881THY    HP643099   7.673   2.881   4.428  1.1426 -0.6663  0.2035
17881THY    HP743100   7.569   2.969   4.545  1.1937  0.8815  3.1882
17881THY    CA343101   7.636   3.077   4.148 -0.2940  0.4357 -0.1261
17881THY    HA343102   7.657   3.163   4.211 -2.6319  0.3592  0.5593
17881THY    CA443103   7.688   3.077   4.019  0.0202  0.1091 -0.3058
17881THY    HA443104   7.768   3.147   3.996 -0.4965  0.7340  0.4994
17881THY    CA543105   7.658   2.976   3.929  0.3524 -0.1818 -0.5520
17881THY    CM143106   7.711   2.977   3.786  0.8011 -0.2624 -0.2110
17881THY    HM143107   7.820   2.971   3.781  1.0380  1.1214  1.9325
17881THY    HM243108   7.691   3.072   3.734  5.3989  2.0258  2.3078
17881THY    HM343109   7.666   2.900   3.722 -1.2885 -2.9039  2.9258
17881THY    CA643110   7.576   2.872   3.963  0.8162  0.5289  0.0894
17881THY    HA643111   7.544   2.798   3.890 -1.4761  0.0956  1.4021
17882THY      O43112   1.127   5.435   7.258 -0.4449 -0.1445 -0.4406
17882THY     HO43113   1.093   5.525   7.269 -0.9474 -2.2772 -0.3134
17882THY    CA143114   1.025   5.350   7.259 -0.1406 -0.7688  0.4473
17882THY    CA243115   1.027   5.232   7.187  0.3324 -0.1601  0.8896
17882THY    CP143116   1.138   5.205   7.089  0.2565  0.3606  0.3414
17882THY    HP143117   1.205   5.290   7.074 -0.7943 -0.3863  1.0643
17882THY    CP243118   1.090   5.187   6.951 -0.3677  0.5646 -0.1859
17882THY    HP243119   1.174   5.147   6.893 -0.2360 -0.7490  1.8537
17882THY    HP343120   1.061   5.283   6.906 -1.9274  1.9987  0.0639
17882THY    HP443121   1.008   5.114   6.939 -0.1590 -0.1613 -0.3115
17882THY    CP343122   1.223   5.097   7.143  0.2151 -0.2984 -0.3038
17882THY    HP543123   1.161   5.007   7.152  0.9723 -1.2687 -0.9443
17882THY    HP643124   1.256   5.120   7.245  2.0079 -0.8326 -0.3130
17882THY    HP743125   1.310   5.084   7.078  1.6077  0.5895  3.3757
17882THY    CA343126   0.915   5.146   7.203 -0.6860  0.0953 -0.1774
17882THY    HA343127   0.911   5.057   7.141 -1.1204  0.0994 -0.1633
17882THY    CA443128   0.816   5.168   7.292  0.4857 -0.2979 -0.6538
17882THY    HA443129   0.736   5.098   7.312  0.6615  2.7850 -0.0862
17882THY    CA543130   0.817   5.282   7.369  0.8556  0.3932 -0.0296
17882THY    CM143131   0.719   5.308   7.470 -0.0840  0.2845 -0.5426
17882THY    HM143132   0.739   5.262   7.567  3.5028 -0.1958 -0.2413
17882THY    HM243133   0.622   5.261   7.450 -0.8686 -0.1841  1.1888
17882THY    HM343134   0.696   5.415   7.470 -0.0322  1.9833 -0.5154
17882THY    CA643135   0.918   5.376   7.347  0.4507  0.0454  0.0848
17882THY    HA643136   0.912   5.456   7.420 -1.4858  2.0716 -1.7533
17883THY      O43137   4.507   8.647   3.363 -0.8098 -0.1567  0.1411
17883THY     HO43138   4.561   8.614   3.289 -1.3431  0.5349 -2.5054
17883THY    CA143139   4.460   8.537   3.428  0.2037 -0.3410 -0.5002
17883THY    CA243140   4.337   8.539   3.500 -0.2893 -0.5312 -0.2548
17883THY    CP143141   4.258   8.669   3.521 -0.3770 -0.6465  0.3769
17883THY    HP143142   4.253   8.728   3.428 -0.1114 -0.9243 -0.0349
17883THY    CP243143   4.325   8.752   3.623  0.4288  0.5330 -0.2079
17883THY    HP243144   4.261   8.836   3.653  0.0798 -1.3630  0.2491
17883THY    HP343145   4.412   8.795   3.573  2.7031  2.3276 -2.4226
17883THY    HP443146   4.349   8.685   3.706 -2.3635 -0.1697 -2.2775
17883THY    CP343147   4.110   8.649   3.562 -0.5836  0.4261  0.8487
17883THY    HP543148   4.098   8.600   3.660 -1.3888  1.3189  2.7218
17883THY    HP643149   4.069   8.581   3.487  0.5771 -0.1880  0.7924
17883THY    HP743150   4.063   8.748   3.570  0.4917  1.1435  1.3292
17883THY    CA343151   4.292   8.420   3.567  0.3851 -0.4300 -0.2726
17883THY    HA343152   4.203   8.417   3.630  0.5888 -0.0952  0.3399
17883THY    CA443153   4.367   8.310   3.565  0.2962  1.0199 -0.0222
17883THY    HA443154   4.345   8.216   3.614  0.3046 -1.8843 -1.6601
17883THY    CA543155   4.480   8.307   3.480 -0.5267  0.4021 -0.3956
17883THY    CM143156   4.558   8.189   3.457 -0.2051  0.4573 -0.3480
17883THY    HM143157   4.513   8.124   3.381 -3.5142  0.5350  1.6144
17883THY    HM243158   4.556   8.121   3.543  0.6868 -1.8727 -3.5755
17883THY    HM343159   4.662   8.210   3.429 -0.1775  1.0603  0.3514
17883THY    CA643160   4.528   8.419   3.414  0.0046 -0.2183 -0.8151
17883THY    HA643161   4.618   8.412   3.353  0.7876  0.9351 -1.0693
17884THY      O43162   0.824   8.133   1.884 -0.0944 -0.2926 -0.0461
17884THY     HO43163   0.910   8.170   1.857  0.1941 -0.1990 -0.6386
17884THY    CA143164   0.847   8.012   1.943 -0.8265 -0.2780  0.4664
17884THY    CA243165   0.744   7.919   1.927  0.1731 -0.4332  0.5485
17884THY    CP143166   0.628   7.945   1.830  0.1641  0.3594  0.2758
17884THY    HP143167   0.661   8.006   1.745 -0.2632 -1.1754 -1.5527
17884THY    CP243168   0.522   8.012   1.919  0.2403 -0.1029  0.2396
17884THY    HP243169   0.432   8.051   1.870  0.9712  0.9094  3.5196
17884THY    HP343170   0.570   8.097   1.968  2.1423 -0.3661 -0.6258
17884THY    HP443171   0.481   7.956   2.004 -0.8086  1.3909  3.0816
17884THY    CP343172   0.563   7.827   1.763 -0.4068  0.1816 -0.2126
17884THY    HP543173   0.500   7.872   1.685 -0.4217  1.9477  3.1880
17884THY    HP643174   0.495   7.768   1.826  0.5970 -0.4611 -2.1525
17884THY    HP743175   0.634   7.758   1.716 -1.0477  0.1102 -0.8374
17884THY    CA343176   0.751   7.804   2.009  0.0294 -0.6253  0.1551
17884THY    HA343177   0.672   7.730   1.998  0.1175  2.2185 -0.4582
17884THY    CA443178   0.865   7.787   2.101 -0.3395  0.9827  0.4169
17884THY    HA443179   0.862   7.699   2.165 -1.4457  0.4940  0.0842
17884THY    CA543180   0.974   7.877   2.100  0.2996 -0.6245  0.3149
17884THY    CM143181   1.092   7.863   2.182 -0.8767 -0.1032 -0.3579
17884THY    HM143182   1.111   7.935   2.263  0.9753  0.2454 -1.1734
17884THY    HM243183   1.181   7.868   2.117 -0.6078 -0.0728 -3.1965
17884THY    HM343184   1.093   7.764   2.227 -0.7312 -1.2754 -0.9090
17884THY    CA643185   0.963   7.991   2.017  0.7649  0.2849  0.0710
17884THY    HA643186   1.044   8.063   2.016  0.5565  1.5522  0.3470
17885THY      O43187   6.654   5.742   3.442 -0.0448  0.4271  0.6166
17885THY     HO43188   6.606   5.732   3.526 -1.0574 -0.3287 -1.5518
17885THY    CA143189   6.582   5.676   3.351 -0.2094  0.4264 -0.0959
17885THY    CA243190   6.631   5.618   3.235 -0.5597  0.2890 -0.2151
17885THY    CP143191   6.785   5.614   3.208  0.6678  0.7472  0.0596
17885THY    HP143192   6.836   5.689   3.268  1.3527 -1.0972  1.1375
17885THY    CP243193   6.817   5.648   3.064  0.3600 -0.7123 -0.4798
17885THY    HP243194   6.745   5.719   3.023 -0.4091 -0.8576 -1.3248
17885THY    HP343195   6.824   5.562   2.997  2.6206  0.4003 -1.2550
17885THY    HP443196   6.917   5.693   3.057  2.2291  2.0428 -3.6890
17885THY    CP343197   6.838   5.475   3.246 -0.1201 -0.3115 -0.4548
17885THY    HP543198   6.772   5.397   3.206 -0.5808 -0.9166  0.2265
17885THY    HP643199   6.847   5.473   3.355 -0.0774 -0.2624  1.2513
17885THY    HP743200   6.937   5.449   3.207  0.4512  1.8525 -1.8018
17885THY    CA343201   6.539   5.560   3.143  0.3737 -0.0318 -0.3447
17885THY    HA343202   6.573   5.519   3.048 -1.9455 -0.5115 -1.3290
17885THY    CA443203   6.398   5.571   3.163 -0.7933  0.5688  1.0077
17885THY    HA443204   6.327   5.533   3.091  0.3066 -0.0827  0.1118
17885THY    CA543205   6.357   5.619   3.286 -0.9405 -0.1206 -0.3338
17885THY    CM143206   6.214   5.613   3.332  0.6751  0.1469 -0.6332
17885THY    HM143207   6.137   5.667   3.276  2.1193  0.3068  1.7400
17885THY    HM243208   6.195   5.659   3.430 -1.6974 -1.0011  1.0056
17885THY    HM343209   6.174   5.511   3.329 -0.1020  0.1981 -0.3321
17885THY    CA643210   6.451   5.676   3.377 -0.3262 -0.1182 -0.1190
17885THY    HA643211   6.421   5.737   3.462  1.0926  0.3829 -0.0717
17886THY      O43212   6.239   6.973   3.305  0.0236 -0.2888 -0.2479
17886THY     HO43213   6.206   6.883   3.289  0.8664  0.4828 -0.7141
17886THY    CA143214   6.360   6.947   3.352 -0.5350  0.3902  0.0624
17886THY    CA243215   6.463   7.039   3.351 -0.5835  0.4087  0.0522
17886THY    CP143216   6.461   7.148   3.250  0.7815 -0.3828 -0.1381
17886THY    HP143217   6.366   7.159   3.196  2.3496 -3.1380  1.0626
17886THY    CP243218   6.558   7.114   3.142 -0.2908 -0.4034 -0.0482
17886THY    HP243219   6.662   7.096   3.173 -0.6913  0.6011 -0.6864
17886THY    HP343220   6.558   7.190   3.063 -1.7107  0.0644  0.4660
17886THY    HP443221   6.514   7.024   3.097 -0.6060  1.1876 -0.7245
17886THY    CP343222   6.477   7.286   3.314  0.3979  0.0712  0.1252
17886THY    HP543223   6.579   7.300   3.349 -0.0483  0.9186  1.4419
17886THY    HP643224   6.407   7.292   3.399  0.0453 -0.0682 -1.3643
17886THY    HP743225   6.449   7.364   3.242 -0.5513  0.0272 -0.2390
17886THY    CA343226   6.582   7.002   3.419  0.6438  0.1636 -0.0570
17886THY    HA343227   6.671   7.064   3.409  0.3532 -0.1664  0.3114
17886THY    CA443228   6.596   6.882   3.485  0.2898 -0.4382 -0.1658
17886THY    HA443229   6.690   6.860   3.534  0.3536 -1.1337 -1.6016
17886THY    CA543230   6.498   6.786   3.482  0.1384 -0.2950 -0.0159
17886THY    CM143231   6.516   6.657   3.555 -0.6343 -0.3740 -0.6038
17886THY    HM143232   6.522   6.688   3.660 -0.8975 -1.1156  2.2445
17886THY    HM243233   6.610   6.612   3.522 -0.2073  1.8827 -1.5429
17886THY    HM343234   6.435   6.583   3.546 -1.0988 -0.2877 -0.1165
17886THY    CA643235   6.375   6.821   3.418 -0.2122  0.2412  0.7778
17886THY    HA643236   6.297   6.746   3.412  1.4370 -0.5055 -0.9622
17887THY      O43237   5.446   6.922   7.501  0.0151  0.3246 -0.2698
17887THY     HO43238   5.414   7.012   7.519 -0.4110 -0.8009 -0.1801
17887THY    CA143239   5.371   6.839   7.582  0.4011  0.0016  0.1235
17887THY    CA243240   5.365   6.699   7.554 -0.2701  0.3614 -0.4494
17887THY    CP143241   5.430   6.643   7.427 -0.0104  0.2500 -0.0950
17887THY    HP143242   5.523   6.700   7.414 -0.2214  2.5210  0.8656
17887THY    CP243243   5.341   6.674   7.298  0.6919  0.9978  0.2610
17887THY    HP243244   5.389   6.664   7.200  2.4658  1.8419  0.2535
17887THY    HP343245   5.318   6.781   7.303  2.1759  0.8512  0.6048
17887THY    HP443246   5.250   6.612   7.300  1.6164  1.0384 -1.1321
17887THY    CP343247   5.467   6.498   7.429 -0.1194  0.1185  0.4726
17887THY    HP543248   5.543   6.479   7.505  0.9393 -0.9884  0.1792
17887THY    HP643249   5.513   6.466   7.335 -1.9462 -0.5514 -0.3590
17887THY    HP743250   5.377   6.435   7.443 -0.5036 -1.3046  0.6675
17887THY    CA343251   5.292   6.615   7.641 -0.6408  0.1452 -0.0334
17887THY    HA343252   5.293   6.506   7.639  0.6477  2.1857 -0.0998
17887THY    CA443253   5.222   6.672   7.747  0.4355  0.6532 -0.0120
17887THY    HA443254   5.168   6.605   7.813  0.5208 -0.7029 -1.4705
17887THY    CA543255   5.220   6.810   7.771  0.0715  0.0533 -0.3044
17887THY    CM143256   5.147   6.866   7.896 -0.1969  0.4879 -0.3110
17887THY    HM143257   5.199   6.825   7.984 -1.3910  1.5955  0.4727
17887THY    HM243258   5.050   6.815   7.902 -0.7575  0.2999  0.6995
17887THY    HM343259   5.134   6.974   7.904  0.1631  2.3420 -0.3683
17887THY    CA643260   5.294   6.893   7.682 -0.0074  0.0791  0.5761
17887THY    HA643261   5.279   7.000   7.700 -0.8441  0.7440  0.3600
17888THY      O43262   3.785   3.399   3.145  0.7950  0.2754 -0.1808
17888THY     HO43263   3.835   3.336   3.090 -1.0039 -1.2881 -0.3138
17888THY    CA143264   3.785   3.499   3.058  0.5610  0.2369 -0.1041
17888THY    CA243265   3.674   3.590   3.041  1.0282 -0.3769  0.2906
17888THY    CP143266   3.558   3.566   3.129  0.5672  0.7106  0.2456
17888THY    HP143267   3.598   3.534   3.226  1.9735  0.6724  1.7774
17888THY    CP243268   3.465   3.457   3.082  0.8116  0.2469  0.1568
17888THY    HP243269   3.378   3.439   3.147  0.5952 -0.5339 -1.8584
17888THY    HP343270   3.514   3.360   3.067 -0.5185  0.3634 -0.5614
17888THY    HP443271   3.421   3.487   2.987  1.2330  0.6084  2.0349
17888THY    CP343272   3.482   3.694   3.163  0.0879  0.2663 -0.1068
17888THY    HP543273   3.436   3.662   3.257  0.7253 -0.3641 -3.2421
17888THY    HP643274   3.406   3.726   3.090 -0.1780  0.0064 -1.2965
17888THY    HP743275   3.560   3.769   3.181  0.1420 -1.7723  0.3870
17888THY    CA343276   3.686   3.689   2.945  1.2028 -0.0552  0.4580
17888THY    HA343277   3.597   3.748   2.927  0.2777  1.2658 -0.4434
17888THY    CA443278   3.802   3.700   2.871 -0.8358  0.3788 -0.5764
17888THY    HA443279   3.824   3.778   2.799 -1.9015 -0.9574 -1.4674
17888THY    CA543280   3.912   3.612   2.896  0.5589 -0.2588 -0.2621
17888THY    CM143281   4.051   3.632   2.829 -0.2501 -0.7664 -0.1591
17888THY    HM143282   4.052   3.588   2.729 -0.8805 -0.9816  0.3080
17888THY    HM243283   4.124   3.573   2.884 -1.1478  0.9009  0.2197
17888THY    HM343284   4.092   3.734   2.828 -1.7913  1.9081  0.5862
17888THY    CA643285   3.904   3.509   2.990 -0.0720  0.2549  0.3657
17888THY    HA643286   3.993   3.454   3.019  0.9055 -2.2204  0.5267
17889THY      O43287   6.909   6.519   5.685 -0.0354 -0.0172  0.1441
17889THY     HO43288   6.942   6.441   5.638 -0.0308 -0.9668  0.7012
17889THY    CA143289   7.018   6.599   5.680  0.9069 -0.1151  0.8456
17889THY    CA243290   7.014   6.727   5.735 -0.3564  0.0761  0.3665
17889THY    CP143291   6.894   6.785   5.814 -0.2371 -0.0031  0.1712
17889THY    HP143292   6.803   6.748   5.767 -0.6516  1.3996 -0.6935
17889THY    CP243293   6.898   6.940   5.821  0.7235  0.6326  0.0361
17889THY    HP243294   6.806   6.980   5.864  1.1679  1.7838 -0.1313
17889THY    HP343295   6.906   6.968   5.716 -1.7100  0.0388 -1.2389
17889THY    HP443296   6.980   6.975   5.884  0.6142  0.2507  0.9858
17889THY    CP343297   6.889   6.730   5.962 -0.5196  0.9026 -0.2251
17889THY    HP543298   6.977   6.754   6.024  0.2442 -0.6238  1.0916
17889THY    HP643299   6.886   6.621   5.970  0.0226 -0.4024 -0.3521
17889THY    HP743300   6.808   6.770   6.024 -0.0262  1.1745  0.3834
17889THY    CA343301   7.140   6.788   5.749  0.0414  0.2838 -0.3965
17889THY    HA343302   7.155   6.877   5.810  0.8785  0.9126 -0.9511
17889THY    CA443303   7.255   6.736   5.682  0.0138 -0.9030  0.2165
17889THY    HA443304   7.349   6.790   5.672  0.4687 -1.8489 -0.7272
17889THY    CA543305   7.251   6.618   5.610 -0.0618 -0.2594  0.4461
17889THY    CM143306   7.368   6.560   5.542  0.4363 -0.3845  0.3774
17889THY    HM143307   7.386   6.609   5.445 -0.6596 -0.6153  0.3348
17889THY    HM243308   7.357   6.455   5.514 -0.3408 -0.0173  0.3518
17889THY    HM343309   7.453   6.567   5.611 -0.3605  0.4860  2.0762
17889THY    CA643310   7.132   6.545   5.619  0.2119 -0.1364  0.1517
17889THY    HA643311   7.132   6.445   5.578  0.0730 -0.0279  0.1056
17890THY      O43312   3.954   2.563   6.947 -0.0397  0.4055  0.7173
17890THY     HO43313   3.870   2.570   6.996 -0.3426  0.0379 -0.2145
17890THY    CA143314   3.922   2.594   6.816 -0.0768 -0.3084 -0.1762
17890THY    CA243315   4.001   2.542   6.715  0.6064  0.4209 -0.3140
17890THY    CP143316   4.119   2.460   6.743  0.1288  0.6025 -0.5531
17890THY    HP143317   4.127   2.424   6.846  2.6956  1.7386  2.7050
17890THY    CP243318   4.252   2.534   6.726  0.1646  0.0184 -0.7254
17890THY    HP243319   4.251   2.617   6.798 -0.7569 -2.4925  1.5633
17890THY    HP343320   4.246   2.573   6.624 -0.3596  1.1211  2.3693
17890THY    HP443321   4.335   2.464   6.741  2.5932  0.3523  2.0491
17890THY    CP343322   4.110   2.340   6.647  0.3675  0.8490 -0.1489
17890THY    HP543323   4.108   2.360   6.539  1.4314  0.6667 -0.9735
17890THY    HP643324   4.039   2.263   6.680  1.0719  0.2280 -1.0928
17890THY    HP743325   4.198   2.278   6.668  0.7875 -0.5556 -0.0803
17890THY    CA343326   3.974   2.586   6.580  0.2795  0.2572 -0.7300
17890THY    HA343327   4.039   2.564   6.496 -0.4991 -1.0201  1.4951
17890THY    CA443328   3.861   2.667   6.555 -0.3818 -0.3734  0.3553
17890THY    HA443329   3.838   2.704   6.456 -2.3276  0.3114  1.1385
17890THY    CA543330   3.778   2.711   6.654  0.0614 -0.7584 -0.1259
17890THY    CM143331   3.672   2.810   6.622  0.1380  0.1754  0.1983
17890THY    HM143332   3.631   2.784   6.524  0.2219  0.2927 -0.3809
17890THY    HM243333   3.700   2.916   6.626  0.1888  1.6463  0.1495
17890THY    HM343334   3.582   2.823   6.682 -0.7828 -1.1874  0.2944
17890THY    CA643335   3.808   2.669   6.788 -0.4009 -0.2912 -0.0154
17890THY    HA643336   3.743   2.702   6.869 -1.9440 -0.7963 -1.6412
17891THY      O43337   9.015   1.270   2.874 -0.3048  1.0607  0.3165
17891THY     HO43338   9.066   1.277   2.791 -1.9804 -0.0358  0.1005
17891THY    CA143339   9.087   1.184   2.944 -0.0243  0.1053  0.2343
17891THY    CA243340   9.035   1.057   2.972 -0.4413 -0.1809  0.0575
17891THY    CP143341   8.919   1.008   2.889  0.2461  0.1392 -0.1953
17891THY    HP143342   8.882   1.082   2.817  0.9720  0.1711  0.2098
17891THY    CP243343   8.818   0.933   2.977  0.0916  0.2985  0.1612
17891THY    HP243344   8.732   0.895   2.920 -0.8484 -0.1613  2.7425
17891THY    HP343345   8.777   1.000   3.053 -1.3837 -0.6705  0.3999
17891THY    HP443346   8.858   0.847   3.031  1.2542 -0.7016  0.0503
17891THY    CP343347   8.975   0.910   2.782  0.3337 -0.2702  0.4408
17891THY    HP543348   8.904   0.916   2.699 -0.6746  0.6311  1.2325
17891THY    HP643349   8.993   0.811   2.826  0.8013 -0.5201  0.4123
17891THY    HP743350   9.073   0.945   2.746  2.0417 -0.4214 -3.8634
17891THY    CA343351   9.105   0.967   3.056 -0.5257  0.1005  0.2657
17891THY    HA343352   9.078   0.864   3.078 -1.5653 -2.7237 -0.1490
17891THY    CA443353   9.228   1.012   3.112  0.3009 -0.3239  0.5225
17891THY    HA443354   9.272   0.953   3.192 -1.0132  0.1380  0.1205
17891THY    CA543355   9.275   1.140   3.093 -0.3769  0.1855 -0.5024
17891THY    CM143356   9.385   1.189   3.176  0.6505  0.1952  1.1059
17891THY    HM143357   9.367   1.166   3.282 -2.8472 -0.3717  0.6997
17891THY    HM243358   9.393   1.297   3.161  3.1139  1.9344  1.2567
17891THY    HM343359   9.482   1.145   3.149  0.2708 -1.4752  1.2408
17891THY    CA643360   9.210   1.227   3.004 -0.4884 -0.4550 -0.2266
17891THY    HA643361   9.252   1.326   2.990  1.1693  0.0804 -0.8259
17892THY      O43362   8.662   8.196   7.001 -0.6540  0.2319  0.2747
17892THY     HO43363   8.659   8.293   7.001 -0.1719  0.0949  0.2886
17892THY    CA143364   8.581   8.159   7.101  0.2464 -0.9622  0.5789
17892THY    CA243365   8.508   8.040   7.097  0.4726  0.4764  0.7567
17892THY    CP143366   8.478   7.972   6.958 -0.0187 -0.6042 -0.5841
17892THY    HP143367   8.515   8.034   6.875 -1.8032 -0.0119  1.4022
17892THY    CP243368   8.328   7.947   6.936 -0.0447  0.5430  1.1128
17892THY    HP243369   8.300   7.901   6.840  0.3893  0.4940  0.9503
17892THY    HP343370   8.268   8.039   6.928 -1.0873 -1.0329  0.3398
17892THY    HP443371   8.286   7.889   7.019 -1.3831 -0.0786  1.1465
17892THY    CP343372   8.572   7.853   6.943 -0.1605  0.1673  0.7305
17892THY    HP543373   8.547   7.804   6.849  0.1189  0.3839  0.1689
17892THY    HP643374   8.530   7.780   7.013  0.4814  1.1825  1.3006
17892THY    HP743375   8.678   7.868   6.969 -0.2192  0.1209  1.2396
17892THY    CA343376   8.451   7.996   7.219  0.1035 -0.4276  0.6934
17892THY    HA343377   8.387   7.908   7.222 -0.4079  0.9587  1.0763
17892THY    CA443378   8.461   8.066   7.339 -0.5060 -0.2558  0.4243
17892THY    HA443379   8.428   8.021   7.432 -0.7864 -0.6096 -0.1237
17892THY    CA543380   8.552   8.177   7.339  0.4959  0.0016  0.2632
17892THY    CM143381   8.574   8.254   7.468  0.1265  0.3595  0.5006
17892THY    HM143382   8.544   8.357   7.446 -2.2474 -1.2864 -0.4513
17892THY    HM243383   8.680   8.250   7.498 -0.2212  1.5123 -2.0513
17892THY    HM343384   8.524   8.214   7.556  0.6898 -0.0510 -1.1918
17892THY    CA643385   8.606   8.221   7.218  0.0143  0.1809  0.0403
17892THY    HA643386   8.676   8.303   7.217  0.3827  1.4877 -0.2432
17893THY      O43387   3.777   7.618   7.756  0.1578 -0.0896  0.1635
17893THY     HO43388   3.740   7.610   7.846  0.5233 -0.0969 -2.0295
17893THY    CA143389   3.912   7.584   7.774  0.0942 -0.3632 -0.1040
17893THY    CA243390   4.013   7.575   7.675  0.3816 -0.1460  0.0344
17893THY    CP143391   3.984   7.607   7.530  0.4339  0.2888  0.1556
17893THY    HP143392   3.877   7.617   7.511  0.2640 -1.0075 -3.1515
17893THY    CP243393   4.040   7.508   7.432 -0.4672  0.5707 -0.8446
17893THY    HP243394   4.004   7.536   7.332  0.2459  0.4314 -0.3928
17893THY    HP343395   4.008   7.406   7.454 -2.3239 -0.2201 -0.4887
17893THY    HP443396   4.148   7.520   7.424 -0.4662 -3.8438 -2.0408
17893THY    CP343397   4.030   7.747   7.486  0.2388  0.7368  0.5305
17893THY    HP543398   4.139   7.751   7.482  0.4300  2.1625 -1.4663
17893THY    HP643399   3.980   7.817   7.555  0.2166  1.4515 -0.1737
17893THY    HP743400   3.990   7.774   7.388  1.3826 -0.0820 -0.6524
17893THY    CA343401   4.145   7.543   7.706  0.2606  0.3832  0.2528
17893THY    HA343402   4.220   7.536   7.628 -2.0368 -1.9746 -0.1430
17893THY    CA443403   4.178   7.504   7.840 -0.1314  0.6644  0.4954
17893THY    HA443404   4.280   7.477   7.863 -0.2910  0.6841 -0.1008
17893THY    CA543405   4.081   7.511   7.936  0.1269 -0.2812 -0.3808
17893THY    CM143406   4.110   7.496   8.084  0.5080 -0.1520  0.3318
17893THY    HM143407   4.167   7.403   8.089  0.9333 -0.8187  0.5525
17893THY    HM243408   4.013   7.498   8.135  0.3352 -0.1943 -2.6629
17893THY    HM343409   4.162   7.583   8.126  0.4230  0.2003  0.2147
17893THY    CA643410   3.950   7.555   7.906 -0.3308 -0.4531 -0.5515
17893THY    HA643411   3.876   7.571   7.984  0.5586 -0.2682  4.1452
17894THY      O43412   4.856   3.210   3.084  0.5953 -0.4922  0.0022
17894THY     HO43413   4.821   3.119   3.085  0.1561 -2.1805  0.1179
17894THY    CA143414   4.869   3.249   3.213  0.2083 -0.2660 -0.2017
17894THY    CA243415   4.994   3.289   3.270 -0.1647  0.7581  0.3339
17894THY    CP143416   5.124   3.283   3.184  0.0969  0.2531 -0.2016
17894THY    HP143417   5.101   3.241   3.086 -0.8324 -0.4784  1.8581
17894THY    CP243418   5.228   3.188   3.240  0.0155 -0.1964  0.0088
17894THY    HP243419   5.238   3.218   3.345 -0.6058  0.5484 -2.1731
17894THY    HP343420   5.323   3.173   3.187 -0.1050 -0.9373  1.6549
17894THY    HP443421   5.187   3.087   3.244  1.5777 -0.9700 -0.6975
17894THY    CP343422   5.182   3.425   3.153  0.6033 -1.0242 -0.1799
17894THY    HP543423   5.279   3.423   3.102  0.5778 -1.0629 -1.0628
17894THY    HP643424   5.191   3.493   3.239 -0.8187 -1.6249  0.8111
17894THY    HP743425   5.118   3.481   3.084  1.0681  0.0041  1.7155
17894THY    CA343426   4.997   3.335   3.401  0.5696 -0.4705 -0.0157
17894THY    HA343427   5.084   3.365   3.459  0.6367 -0.8505  0.5302
17894THY    CA443428   4.876   3.361   3.467 -0.4208  0.1315  0.2186
17894THY    HA443429   4.879   3.406   3.565  1.8702 -0.4781  1.5448
17894THY    CA543430   4.750   3.333   3.403 -0.4043  0.2181  0.2730
17894THY    CM143431   4.618   3.354   3.471 -0.2685 -0.3650  0.0381
17894THY    HM143432   4.536   3.396   3.412  0.9530 -1.4436  0.9722
17894THY    HM243433   4.630   3.422   3.556 -0.1994  2.8957 -3.6761
17894THY    HM343434   4.582   3.255   3.501 -0.6712  0.7057  0.4862
17894THY    CA643435   4.748   3.276   3.282 -0.5795  0.2288  0.0592
17894THY    HA643436   4.657   3.248   3.229  0.2268 -0.8664 -0.5281
17895THY      O43437   2.023   9.016   5.596 -1.2217 -0.5776 -0.0102
17895THY     HO43438   2.058   8.925   5.587  0.8729 -2.3473  0.8604
17895THY    CA143439   1.892   9.001   5.633 -0.3622 -0.0689  0.4674
17895THY    CA243440   1.789   9.088   5.590 -0.3556  0.1739  0.5309
17895THY    CP143441   1.824   9.211   5.489  0.3095 -0.0438  0.2480
17895THY    HP143442   1.930   9.222   5.461  0.7338  1.7153  1.0067
17895THY    CP243443   1.769   9.352   5.529  0.3899  0.1250 -0.8341
17895THY    HP243444   1.660   9.357   5.525  0.3491  0.0372 -1.6766
17895THY    HP343445   1.805   9.431   5.462 -2.7978  0.5355  1.1312
17895THY    HP443446   1.791   9.369   5.635 -1.0115  0.3984 -0.6564
17895THY    CP343447   1.774   9.173   5.349  0.9358 -0.1162 -0.1945
17895THY    HP543448   1.796   9.257   5.283 -3.2423 -1.3068  0.1835
17895THY    HP643449   1.665   9.163   5.352  1.1181  0.2530 -2.9822
17895THY    HP743450   1.813   9.072   5.331 -1.5224  0.9343 -1.3987
17895THY    CA343451   1.659   9.079   5.633  0.5709 -0.5817  0.3216
17895THY    HA343452   1.583   9.147   5.596 -0.5384 -0.1409 -0.6252
17895THY    CA443453   1.621   8.962   5.707 -0.7611  0.3160 -0.4917
17895THY    HA443454   1.517   8.954   5.738 -1.3175 -0.9355  1.2807
17895THY    CA543455   1.717   8.874   5.752  0.0605 -0.5574 -0.4137
17895THY    CM143456   1.664   8.769   5.849  0.0443  0.6494 -0.3253
17895THY    HM143457   1.641   8.800   5.952 -0.9532  0.2618  0.2641
17895THY    HM243458   1.733   8.684   5.846  0.8271  0.2111  0.3166
17895THY    HM343459   1.572   8.725   5.811  0.3072 -1.5798  0.9144
17895THY    CA643460   1.852   8.891   5.712  0.2660  0.7276  0.1728
17895THY    HA643461   1.932   8.832   5.756  0.6917  1.7464  1.4570
17896THY      O43462   8.998   9.026   4.882  0.2044 -0.8570 -0.1433
17896THY     HO43463   8.954   9.084   4.818 -2.0769  1.9083  1.4290
17896THY    CA143464   9.076   8.942   4.804  0.7820 -0.8517  0.7207
17896THY    CA243465   9.143   8.831   4.850  0.4334 -0.5063 -0.0967
17896THY    CP143466   9.141   8.797   5.001 -0.1030 -0.0390  0.2455
17896THY    HP143467   9.044   8.821   5.044  0.6935  2.2677 -0.4513
17896THY    CP243468   9.243   8.884   5.071 -0.4333 -0.3982 -0.1684
17896THY    HP243469   9.245   8.868   5.179 -0.0359 -0.3781  0.0250
17896THY    HP343470   9.234   8.990   5.043 -1.7692 -0.7198 -0.3519
17896THY    HP443471   9.344   8.852   5.045 -0.4043 -0.0200 -0.3832
17896THY    CP343472   9.170   8.648   5.026 -0.1097 -0.4368 -0.3753
17896THY    HP543473   9.270   8.616   4.994 -0.3421  0.6272 -2.3025
17896THY    HP643474   9.100   8.584   4.972 -0.8462  0.6243 -0.4921
17896THY    HP743475   9.168   8.629   5.134 -1.0889 -0.0932  1.5005
17896THY    CA343476   9.224   8.755   4.758  0.0684  0.7254 -0.2832
17896THY    HA343477   9.281   8.667   4.788  1.0565  0.6735  0.3220
17896THY    CA443478   9.231   8.796   4.621  0.3372 -0.3657 -0.3192
17896THY    HA443479   9.297   8.747   4.551  1.3154 -0.3781  0.9718
17896THY    CA543480   9.160   8.908   4.576  0.0951 -0.7547 -0.4256
17896THY    CM143481   9.173   8.942   4.438 -0.4475 -0.4989  0.4393
17896THY    HM143482   9.267   8.994   4.416  0.2617 -1.1936 -1.0568
17896THY    HM243483   9.089   9.002   4.400 -0.8555  0.4906  0.5050
17896THY    HM343484   9.166   8.847   4.383 -1.0314 -0.2139  0.3153
17896THY    CA643485   9.081   8.981   4.670  0.1541  0.5265 -0.1717
17896THY    HA643486   9.039   9.070   4.626  0.1560 -1.0349 -0.9036
17897THY      O43487   1.544   3.178   5.130 -0.0449  0.0726  0.8247
17897THY     HO43488   1.457   3.150   5.097  0.5444  1.4485 -3.2634
17897THY    CA143489   1.576   3.293   5.062 -0.7008 -0.0419 -0.0581
17897THY    CA243490   1.695   3.301   4.989  0.1724 -0.1690  1.3247
17897THY    CP143491   1.787   3.183   4.989 -0.1284 -0.0267 -1.2352
17897THY    HP143492   1.788   3.126   5.082  1.8930 -0.6017 -2.2655
17897THY    CP243493   1.939   3.227   4.982 -0.0229 -0.2100  0.0244
17897THY    HP243494   1.960   3.242   4.876 -1.9719 -0.2033  4.3605
17897THY    HP343495   1.997   3.138   5.010 -0.7286  2.5633  0.3245
17897THY    HP443496   1.967   3.305   5.053 -1.9017 -1.2124  1.6800
17897THY    CP343497   1.761   3.083   4.865  0.2529 -0.4028  0.0413
17897THY    HP543498   1.759   3.129   4.765 -1.3267 -1.2973 -1.8386
17897THY    HP643499   1.661   3.041   4.881  0.0920  0.6242  0.7707
17897THY    HP743500   1.834   3.002   4.867  0.3203 -0.0298  0.1116
17897THY    CA343501   1.704   3.414   4.899 -0.0171 -0.5357 -0.1799
17897THY    HA343502   1.784   3.408   4.826  0.6408 -0.0630  1.9199
17897THY    CA443503   1.619   3.525   4.905  0.2487  0.3557 -0.5731
17897THY    HA443504   1.627   3.615   4.843 -0.6643  0.9310 -0.0820
17897THY    CA543505   1.517   3.520   5.003 -0.1554  0.0669 -0.0571
17897THY    CM143506   1.420   3.634   5.017  0.5577  0.1188  0.0423
17897THY    HM143507   1.415   3.653   5.124  1.5039 -0.0192  1.1324
17897THY    HM243508   1.322   3.621   4.968  1.1847 -1.5676  1.3766
17897THY    HM343509   1.446   3.723   4.958 -0.0691  0.6500  0.5870
17897THY    CA643510   1.498   3.405   5.072  0.5804 -0.7790 -0.0136
17897THY    HA643511   1.408   3.405   5.134  1.3365  0.3754 -1.1310
17898THY      O43512   8.866   6.970   5.045  0.3176 -0.2610  0.1221
17898THY     HO43513   8.811   6.963   5.125 -0.2661 -0.6378  0.3283
17898THY    CA143514   8.820   6.866   4.969 -0.0901 -0.0927 -1.0185
17898THY    CA243515   8.888   6.828   4.847  0.1867 -0.2484  0.8624
17898THY    CP143516   9.008   6.902   4.791  0.3913 -0.1744 -0.0325
17898THY    HP143517   8.976   7.005   4.808  0.8834  0.7654 -0.0229
17898THY    CP243518   9.018   6.879   4.639 -0.1050  0.5662  0.0368
17898THY    HP243519   9.026   6.774   4.610 -2.2658 -0.7163  0.1749
17898THY    HP343520   9.100   6.948   4.615 -1.9973  1.3603  2.7569
17898THY    HP443521   8.931   6.905   4.578  1.2669 -1.5899 -0.1895
17898THY    CP343522   9.136   6.865   4.861 -0.7339 -0.5872 -0.1435
17898THY    HP543523   9.137   6.905   4.963  1.1602 -0.2023 -1.0231
17898THY    HP643524   9.219   6.911   4.806 -0.7327 -0.5627 -0.1165
17898THY    HP743525   9.157   6.757   4.861  0.2287  0.2554  0.0295
17898THY    CA343526   8.835   6.708   4.798 -0.5498  0.4944  0.0676
17898THY    HA343527   8.883   6.660   4.713  0.1868  1.4530 -0.9800
17898THY    CA443528   8.735   6.637   4.858 -0.6116 -0.2148  0.8096
17898THY    HA443529   8.700   6.542   4.817 -2.6824  3.9558 -0.4835
17898THY    CA543530   8.663   6.685   4.969 -0.7293  0.2368  0.0223
17898THY    CM143531   8.548   6.613   5.036 -0.2906 -0.0906  0.2940
17898THY    HM143532   8.463   6.675   5.065 -0.1106  0.6393  0.2109
17898THY    HM243533   8.593   6.572   5.127 -0.7397 -0.4444 -1.0614
17898THY    HM343534   8.509   6.532   4.972 -0.3145 -0.3347  0.4982
17898THY    CA643535   8.713   6.804   5.032 -0.6014 -0.3533 -1.3455
17898THY    HA643536   8.661   6.843   5.119 -1.1316 -1.9750  1.8792
17899THY      O43537   0.568   1.850   5.971  0.3522 -0.8065  0.1798
17899THY     HO43538   0.493   1.795   6.001 -0.9523 -1.4790  1.5133
17899THY    CA143539   0.625   1.787   5.869  0.2513  0.2411 -0.5664
17899THY    CA243540   0.750   1.827   5.828  0.2031  0.1402 -0.4340
17899THY    CP143541   0.837   1.932   5.908  0.6873  0.1659 -0.4078
17899THY    HP143542   0.774   1.985   5.980 -0.0074 -0.8992  0.2372
17899THY    CP243543   0.909   2.042   5.828  1.1001  0.4139  0.2002
17899THY    HP243544   0.859   2.080   5.738 -0.4612  0.9099 -0.6138
17899THY    HP343545   1.009   2.017   5.791  1.0789  0.5939 -0.1642
17899THY    HP443546   0.926   2.130   5.892 -1.0006  0.9438  0.2730
17899THY    CP343547   0.947   1.861   5.994 -0.0245  0.9644  0.0785
17899THY    HP543548   1.000   1.932   6.059  0.0595  2.6068 -1.4083
17899THY    HP643549   1.019   1.807   5.931  0.0019  1.9853 -1.1235
17899THY    HP743550   0.892   1.792   6.060 -0.8629  0.1116 -0.0789
17899THY    CA343551   0.791   1.794   5.692 -0.3004 -0.1058  0.0405
17899THY    HA343552   0.873   1.851   5.649 -0.3544 -0.5885 -0.2462
17899THY    CA443553   0.712   1.710   5.618  0.1352 -0.2013  0.7395
17899THY    HA443554   0.742   1.681   5.517 -1.2308 -0.6449  0.8117
17899THY    CA543555   0.595   1.664   5.667  1.2042 -0.2984  0.0658
17899THY    CM143556   0.507   1.566   5.584 -0.2773  0.5087 -0.0579
17899THY    HM143557   0.467   1.620   5.497  1.5304 -0.2975  0.0494
17899THY    HM243558   0.420   1.541   5.646  0.1605  1.6396  1.0911
17899THY    HM343559   0.561   1.483   5.537  1.1013  1.5729  0.1912
17899THY    CA643560   0.542   1.710   5.789  0.2753 -0.3569 -0.1925
17899THY    HA643561   0.445   1.680   5.827  1.3483  3.2550  0.4427
17900THY      O43562   1.294   6.318   2.915 -0.1024 -0.3666  1.0430
17900THY     HO43563   1.322   6.375   2.841 -2.7972 -1.1428  1.4918
17900THY    CA143564   1.165   6.340   2.932 -0.0231 -0.8098  0.0223
17900THY    CA243565   1.094   6.271   3.029  0.2553  0.2349 -0.3465
17900THY    CP143566   1.156   6.160   3.110  0.2070 -0.0425 -0.4693
17900THY    HP143567   1.262   6.149   3.082  0.0502 -1.9959  2.1821
17900THY    CP243568   1.085   6.020   3.075  0.3295 -0.7286  0.2574
17900THY    HP243569   1.000   6.005   3.143  1.7709  0.9527 -0.6802
17900THY    HP343570   1.167   5.948   3.088  0.6954  0.1305  0.8085
17900THY    HP443571   1.044   6.009   2.974 -0.7538 -0.2731 -0.0471
17900THY    CP343572   1.146   6.198   3.256  0.2429  0.8929  0.1545
17900THY    HP543573   1.245   6.179   3.298  0.7573 -0.6549 -0.7582
17900THY    HP643574   1.071   6.144   3.315 -0.3140  0.6632  0.6710
17900THY    HP743575   1.130   6.306   3.266 -0.7390 -1.4781  0.2937
17900THY    CA343576   0.959   6.309   3.057 -0.7383 -0.2273  0.0869
17900THY    HA343577   0.893   6.257   3.126 -0.0976  1.0330  0.9042
17900THY    CA443578   0.901   6.414   2.985  0.3924  0.3205  0.4565
17900THY    HA443579   0.806   6.461   3.006  1.1351  3.7770  0.6641
17900THY    CA543580   0.972   6.483   2.885 -0.5383 -0.8717  0.8150
17900THY    CM143581   0.925   6.604   2.807  0.9932 -0.4083  0.3218
17900THY    HM143582   0.981   6.695   2.831 -0.5584  1.1535  0.9173
17900THY    HM243583   0.818   6.618   2.826  1.2031  0.2629  1.1041
17900THY    HM343584   0.936   6.586   2.699  1.5567  0.0324 -2.3769
17900THY    CA643585   1.105   6.442   2.858  0.1878  0.0820 -0.5944
17900THY    HA643586   1.166   6.503   2.791  1.0891  2.7032  1.5967
17901THY      O43587   2.707   8.244   6.475 -0.8666  0.0409  0.2610
17901THY     HO43588   2.738   8.278   6.561  0.2252  0.1789 -0.9898
17901THY    CA143589   2.763   8.327   6.384  1.2837 -0.3864 -0.0832
17901THY    CA243590   2.746   8.307   6.250  0.2670  0.2390  0.3160
17901THY    CP143591   2.654   8.204   6.186  0.3975 -0.0615  0.0042
17901THY    HP143592   2.574   8.178   6.257 -1.4881 -1.4734  1.6603
17901THY    CP243593   2.732   8.076   6.148  0.9394  0.4164 -0.4720
17901THY    HP243594   2.661   7.999   6.115 -0.2278  1.1353  0.2750
17901THY    HP343595   2.774   8.026   6.236  1.2023 -0.4626 -1.8776
17901THY    HP443596   2.802   8.084   6.064 -2.2083 -2.5587 -1.5811
17901THY    CP343597   2.581   8.248   6.073 -0.4131 -0.2922  0.3278
17901THY    HP543598   2.549   8.347   6.108  2.9356 -0.5445  1.6229
17901THY    HP643599   2.493   8.187   6.050 -0.8454  0.1066  0.7899
17901THY    HP743600   2.641   8.265   5.983  2.1818  0.7841 -2.3259
17901THY    CA343601   2.814   8.400   6.164  0.0094  0.3465  0.1654
17901THY    HA343602   2.790   8.407   6.058 -1.4251  0.3835 -2.8083
17901THY    CA443603   2.905   8.498   6.213 -0.2786 -0.3061 -0.5851
17901THY    HA443604   2.963   8.566   6.151  0.7595  2.8615  1.6328
17901THY    CA543605   2.909   8.515   6.350  1.4608 -0.3086  0.5269
17901THY    CM143606   3.004   8.619   6.401 -0.4488  0.1838  0.3411
17901THY    HM143607   2.955   8.650   6.494 -1.2877 -0.0460 -0.2390
17901THY    HM243608   2.995   8.712   6.345  1.3337 -1.7881 -0.5909
17901THY    HM343609   3.109   8.587   6.393 -0.1053 -0.2367  1.5473
17901THY    CA643610   2.837   8.432   6.435  0.0701 -0.3422  0.0722
17901THY    HA643611   2.843   8.462   6.539 -2.0614 -0.3329  0.6584
17902THY      O43612   3.951   7.794   3.906  0.4310  0.3537  0.3594
17902THY     HO43613   3.889   7.867   3.926  1.7399  1.3910  1.2307
17902THY    CA143614   4.076   7.850   3.885 -0.0749  0.1328 -0.0830
17902THY    CA243615   4.191   7.766   3.859 -0.2044  0.0149 -0.0095
17902THY    CP143616   4.182   7.610   3.864  0.4223  0.1457  0.3724
17902THY    HP143617   4.090   7.584   3.917 -0.1297 -1.3070 -0.7768
17902THY    CP243618   4.299   7.538   3.947  0.1130 -0.3351 -0.1432
17902THY    HP243619   4.282   7.433   3.972 -1.9286 -0.5307  0.1017
17902THY    HP343620   4.331   7.602   4.030  3.0506 -1.5360  0.1615
17902THY    HP443621   4.393   7.542   3.890  0.8288  0.8770  2.5704
17902THY    CP343622   4.163   7.542   3.726 -0.0650  0.2003 -0.0496
17902THY    HP543623   4.136   7.437   3.741  0.1907  1.2280  0.0219
17902THY    HP643624   4.256   7.547   3.668 -0.7173 -0.7367  2.6186
17902THY    HP743625   4.081   7.589   3.671 -1.5222  0.5449 -2.0608
17902THY    CA343626   4.312   7.833   3.841 -0.6800  0.2871  0.1192
17902THY    HA343627   4.401   7.771   3.846 -0.6014  1.0170  0.2826
17902THY    CA443628   4.318   7.973   3.847 -0.0845  0.5310  0.2718
17902THY    HA443629   4.409   8.024   3.818 -1.9988 -0.9971  3.0946
17902THY    CA543630   4.203   8.049   3.865 -0.0995 -0.0404 -0.9751
17902THY    CM143631   4.210   8.198   3.852 -1.2842 -1.1387  0.6813
17902THY    HM143632   4.223   8.251   3.947 -1.2076 -1.5606  1.4292
17902THY    HM243633   4.135   8.247   3.789 -1.6624 -1.2864 -0.0795
17902THY    HM343634   4.306   8.227   3.808 -1.6206 -2.7767 -0.5536
17902THY    CA643635   4.085   7.989   3.890 -0.6288 -0.0760 -0.2699
17902THY    HA643636   3.999   8.053   3.909 -0.5443 -0.0400 -0.1695
17903THY      O43637   6.149   7.623   2.477 -0.1269  0.6587 -0.1879
17903THY     HO43638   6.218   7.559   2.453  0.0543  1.7470 -0.4238
17903THY    CA143639   6.085   7.575   2.591 -0.5479  0.0584  0.1256
17903THY    CA243640   5.957   7.624   2.634 -0.0207 -0.4771  0.1158
17903THY    CP143641   5.882   7.727   2.543 -0.3055  0.5201 -0.1854
17903THY    HP143642   5.948   7.763   2.463 -0.8237  0.4148  0.5627
17903THY    CP243643   5.833   7.849   2.629  0.5459  0.7055 -0.1312
17903THY    HP243644   5.894   7.880   2.714 -0.7030  0.8422  2.1606
17903THY    HP343645   5.736   7.823   2.671 -0.4104 -0.3860  1.5007
17903THY    HP443646   5.810   7.930   2.559  2.0603  0.0415 -0.2319
17903THY    CP343647   5.769   7.651   2.473  0.2864 -0.1946  0.0114
17903THY    HP543648   5.695   7.611   2.543  0.1561 -0.1489  0.3326
17903THY    HP643649   5.818   7.568   2.420  0.8930 -0.8220  0.7508
17903THY    HP743650   5.714   7.710   2.399 -0.4994 -0.8714 -1.5118
17903THY    CA343651   5.908   7.582   2.762  0.0117 -0.3245 -0.0146
17903THY    HA343652   5.812   7.622   2.795  0.5207  1.2788 -0.0307
17903THY    CA443653   5.975   7.488   2.841 -0.3472 -0.1640 -0.1112
17903THY    HA443654   5.938   7.455   2.938  2.8932  0.4342 -2.4898
17903THY    CA543655   6.097   7.439   2.790  0.1287 -0.0483  0.6640
17903THY    CM143656   6.178   7.348   2.868  0.0424  0.8389  0.2523
17903THY    HM143657   6.150   7.332   2.973 -1.8246  0.1676 -1.2989
17903THY    HM243658   6.282   7.381   2.870 -0.3205  1.8917  1.4123
17903THY    HM343659   6.174   7.257   2.807 -1.6295 -2.5196  2.4107
17903THY    CA643660   6.148   7.474   2.668  0.0903  0.4628  0.3118
17903THY    HA643661   6.242   7.439   2.626  1.0780  0.8738  2.3144
17904THY      O43662   3.918   0.826   6.990  0.1316 -0.4067 -0.2249
17904THY     HO43663   3.860   0.880   6.935 -1.5142  2.8403  1.6017
17904THY    CA143664   3.929   0.888   7.114  0.4987 -0.4549 -0.7448
17904THY    CA243665   4.032   0.841   7.206 -0.2183 -0.2717  0.2114
17904THY    CP143666   4.140   0.748   7.149 -0.8230  0.2480 -0.1617
17904THY    HP143667   4.160   0.768   7.043 -0.1835  0.1731 -1.1629
17904THY    CP243668   4.085   0.604   7.166  0.1152 -0.6964  0.1919
17904THY    HP243669   4.039   0.570   7.259  2.4642  0.1432 -0.9080
17904THY    HP343670   4.166   0.531   7.155 -1.4444 -0.6556 -1.6339
17904THY    HP443671   4.022   0.592   7.077  0.3452 -1.3468  3.0290
17904THY    CP343672   4.282   0.756   7.210  0.3027  0.0728 -0.5207
17904THY    HP543673   4.343   0.683   7.155 -1.0551  0.3473 -1.9173
17904THY    HP643674   4.289   0.728   7.316 -0.6178  0.0488 -0.8921
17904THY    HP743675   4.327   0.855   7.208 -1.1599 -2.2864  0.1937
17904THY    CA343676   4.044   0.909   7.325 -0.0473  1.0268  0.4827
17904THY    HA343677   4.121   0.874   7.394  1.1075  0.5393  1.9775
17904THY    CA443678   3.954   1.011   7.350 -0.5646 -0.3527  0.0450
17904THY    HA443679   3.961   1.066   7.444 -1.1592 -0.6537  0.6487
17904THY    CA543680   3.840   1.040   7.274 -0.6161 -0.6962  0.2175
17904THY    CM143681   3.724   1.125   7.334  0.5819  0.0216 -0.9716
17904THY    HM143682   3.680   1.079   7.423  0.5203  0.7855  0.5014
17904THY    HM243683   3.646   1.147   7.260  0.6339  0.7252  2.0580
17904THY    HM343684   3.753   1.223   7.373 -0.8759  0.5141 -0.7198
17904THY    CA643685   3.830   0.980   7.156  0.4907  0.0910 -0.2303
17904THY    HA643686   3.747   1.009   7.093 -0.0497  1.5740  1.5605
17905THY      O43687   5.069   8.316   3.823  0.5556  0.0834 -0.0005
17905THY     HO43688   5.012   8.266   3.883 -0.6254  0.8478  2.1218
17905THY    CA143689   5.072   8.245   3.709 -0.8284  0.8152  0.7620
17905THY    CA243690   5.170   8.276   3.608 -0.3074  0.1406  0.1718
17905THY    CP143691   5.277   8.384   3.639 -0.6226 -1.1639 -0.8783
17905THY    HP143692   5.247   8.447   3.723 -0.5944 -0.7507 -1.4050
17905THY    CP243693   5.304   8.481   3.523  0.2420 -0.3538 -0.4024
17905THY    HP243694   5.214   8.542   3.513  0.1240 -1.9000 -0.7914
17905THY    HP343695   5.331   8.433   3.429  2.5507 -0.6998  1.3778
17905THY    HP443696   5.379   8.556   3.554 -0.5170  0.7067 -0.0549
17905THY    CP343697   5.404   8.308   3.667 -0.9016  0.2075 -0.2962
17905THY    HP543698   5.491   8.368   3.697 -0.5680  0.7555 -1.0380
17905THY    HP643699   5.435   8.255   3.576 -1.1145  0.0076 -0.0769
17905THY    HP743700   5.381   8.231   3.741  0.4711  0.3417 -0.6103
17905THY    CA343701   5.187   8.188   3.495  0.1068 -0.0619  0.5790
17905THY    HA343702   5.268   8.193   3.423  1.6992  1.6540  0.6759
17905THY    CA443703   5.096   8.079   3.495 -0.3079 -0.6048 -0.6170
17905THY    HA443704   5.108   8.012   3.411 -0.0975 -1.8192  0.8980
17905THY    CA543705   4.997   8.053   3.589 -0.4897 -0.4145 -0.3823
17905THY    CM143706   4.908   7.935   3.588 -0.3136 -0.2826  0.2495
17905THY    HM143707   4.952   7.855   3.648  0.3263 -1.2701 -0.1583
17905THY    HM243708   4.878   7.910   3.485 -0.2695 -1.0007  2.8705
17905THY    HM343709   4.814   7.964   3.636  0.7503  2.6313 -0.7321
17905THY    CA643710   4.982   8.142   3.697  0.4868 -0.4844 -0.3045
17905THY    HA643711   4.913   8.112   3.776  1.4270 -0.0505 -1.4123
17906THY      O43712   3.624   8.541   2.397 -0.4063  0.4361 -0.0067
17906THY     HO43713   3.552   8.537   2.332 -0.1370  0.1677 -0.5509
17906THY    CA143714   3.670   8.661   2.380 -0.5069 -0.4786 -0.0788
17906THY    CA243715   3.809   8.687   2.359  0.1664  0.6026 -0.7008
17906THY    CP143716   3.906   8.566   2.341  0.0432 -0.3041  0.3524
17906THY    HP143717   3.898   8.500   2.429  1.9906 -0.4868 -0.1975
17906THY    CP243718   4.054   8.618   2.323 -0.1285  0.5819 -0.0196
17906THY    HP243719   4.097   8.670   2.410 -0.4390  0.6000  0.2066
17906THY    HP343720   4.071   8.669   2.228 -0.5106  1.0304  0.9547
17906THY    HP443721   4.102   8.519   2.314 -1.7123 -3.2334 -0.6189
17906THY    CP343722   3.882   8.490   2.210 -0.0389 -0.0167 -0.3335
17906THY    HP543723   3.793   8.428   2.227 -0.5236  0.6273  0.5276
17906THY    HP643724   3.966   8.427   2.176  1.3756 -0.6386  1.7978
17906THY    HP743725   3.863   8.557   2.126  4.8186 -1.6292 -0.5558
17906THY    CA343726   3.850   8.823   2.356  0.3521  0.4219  0.1777
17906THY    HA343727   3.952   8.853   2.334  0.4561  0.4411 -0.1664
17906THY    CA443728   3.752   8.922   2.363 -0.4518  0.5920 -0.4565
17906THY    HA443729   3.787   9.024   2.372 -0.3156 -1.0038 -0.3315
17906THY    CA543730   3.616   8.893   2.381 -0.1207  0.0836  0.7723
17906THY    CM143731   3.514   8.997   2.350 -0.0699  0.4220 -0.4368
17906THY    HM143732   3.542   9.057   2.262 -0.6346 -0.3313 -1.2415
17906THY    HM243733   3.492   9.070   2.428 -2.5072 -0.2085 -0.4096
17906THY    HM343734   3.416   8.950   2.330  0.4142  0.9729 -1.7258
17906THY    CA643735   3.578   8.763   2.391 -0.0674 -0.2235 -0.3522
17906THY    HA643736   3.471   8.746   2.400  0.1595  0.2501 -1.5890
17907THY      O43737   4.554   8.191   4.878 -0.3951  0.2659  0.0033
17907THY     HO43738   4.475   8.230   4.919 -2.2777 -0.9971 -2.2678
17907THY    CA143739   4.513   8.067   4.845  0.7526  0.2422 -0.4169
17907THY    CA243740   4.532   8.023   4.712 -0.1110 -0.0731 -0.1711
17907THY    CP143741   4.595   8.114   4.611  0.1672 -0.4187 -0.0738
17907THY    HP143742   4.634   8.207   4.656  1.7700  2.3548 -1.9450
17907THY    CP243743   4.502   8.150   4.503  0.5124 -0.2253 -0.4819
17907THY    HP243744   4.521   8.240   4.444 -0.6873 -0.2347 -0.2210
17907THY    HP343745   4.409   8.199   4.534  0.0660 -3.3868  0.8932
17907THY    HP443746   4.481   8.070   4.431 -0.5907 -1.8585  1.2084
17907THY    CP343747   4.731   8.060   4.559  0.3012 -0.6319  0.1797
17907THY    HP543748   4.714   7.978   4.488 -0.9442 -0.1824  0.0294
17907THY    HP643749   4.793   8.033   4.646  2.3821 -1.7179  1.1655
17907THY    HP743750   4.789   8.136   4.505 -0.3297 -2.8845 -0.8587
17907THY    CA343751   4.482   7.898   4.672 -1.0002  0.3598  0.5490
17907THY    HA343752   4.485   7.865   4.569  2.2703  0.5951 -0.2689
17907THY    CA443753   4.424   7.819   4.772  0.3033 -0.0834 -0.3099
17907THY    HA443754   4.381   7.724   4.740 -1.8030  2.3810 -0.2803
17907THY    CA543755   4.410   7.864   4.895  0.0597 -0.3691 -0.1005
17907THY    CM143756   4.338   7.784   4.992  0.5748 -0.4084 -0.0482
17907THY    HM143757   4.379   7.802   5.092  0.9123 -0.2698 -1.5392
17907THY    HM243758   4.361   7.678   4.978 -0.1203  1.3058 -0.4647
17907THY    HM343759   4.231   7.806   5.002  0.5184 -0.9736 -0.0556
17907THY    CA643760   4.450   7.992   4.935  0.4671 -0.3018  0.5823
17907THY    HA643761   4.435   8.031   5.036 -0.1162 -0.3887  0.5931
17908THY      O43762   7.545   5.731   2.919 -0.0772 -0.0118 -0.2256
17908THY     HO43763   7.509   5.647   2.951 -0.1338 -0.0708 -0.2240
17908THY    CA143764   7.638   5.761   3.009  0.3214 -0.7414  0.4551
17908THY    CA243765   7.752   5.839   2.972 -0.0784  0.6937 -0.0565
17908THY    CP143766   7.760   5.899   2.830  0.3830  0.8709 -0.3056
17908THY    HP143767   7.672   5.880   2.768 -0.6460  2.4707 -0.9456
17908THY    CP243768   7.880   5.862   2.756  0.4962 -0.2217  0.5812
17908THY    HP243769   7.968   5.923   2.781  1.0417  0.1440 -0.3253
17908THY    HP343770   7.862   5.842   2.650  0.3759 -0.1374  0.2409
17908THY    HP443771   7.903   5.760   2.789 -0.4769  0.0079  0.4293
17908THY    CP343772   7.759   6.059   2.822  0.6811  0.6561 -0.0772
17908THY    HP543773   7.759   6.093   2.717 -1.0765  0.9623  0.9424
17908THY    HP643774   7.839   6.110   2.877  0.6628  1.6606 -1.0993
17908THY    HP743775   7.659   6.093   2.848 -0.5568 -0.5362 -2.5030
17908THY    CA343776   7.859   5.857   3.064  0.2780  0.3907  0.2150
17908THY    HA343777   7.949   5.914   3.047  0.9691  0.0919 -0.9410
17908THY    CA443778   7.842   5.793   3.193  0.0139 -0.1130 -0.4931
17908THY    HA443779   7.923   5.803   3.265 -0.5260  0.7846 -2.2346
17908THY    CA543780   7.729   5.721   3.227 -0.4264  1.1026  0.1268
17908THY    CM143781   7.733   5.643   3.357  0.2507  0.2653 -0.9771
17908THY    HM143782   7.786   5.698   3.436 -1.7131  1.3534 -0.5581
17908THY    HM243783   7.785   5.549   3.339  1.0051  1.4098 -0.8055
17908THY    HM343784   7.636   5.618   3.402  0.8396  1.5043 -1.1392
17908THY    CA643785   7.627   5.699   3.133  0.1017 -0.3618  0.0700
17908THY    HA643786   7.541   5.643   3.168 -1.3022 -1.7845  1.2509
17909THY      O43787   1.787   5.753   6.416 -0.3289 -0.0774 -0.0906
17909THY     HO43788   1.770   5.666   6.456  1.8625  0.9842 -0.1047
17909THY    CA143789   1.918   5.771   6.409 -0.0878  0.9005  0.6126
17909THY    CA243790   1.983   5.819   6.298 -0.2833  0.7291 -0.0678
17909THY    CP143791   1.909   5.861   6.174 -0.1349  0.0998  0.4473
17909THY    HP143792   1.804   5.888   6.192 -0.8250 -2.6484 -0.0829
17909THY    CP243793   1.897   5.746   6.076 -0.1943 -0.0831 -0.0416
17909THY    HP243794   1.822   5.672   6.108 -1.7108 -1.3645  0.8849
17909THY    HP343795   1.993   5.693   6.073  0.3947 -2.5556  1.0315
17909THY    HP443796   1.870   5.788   5.978 -0.4439  0.6338  1.5209
17909THY    CP343797   1.969   5.987   6.097  0.0663 -0.0696 -0.5351
17909THY    HP543798   2.038   5.958   6.017 -0.4664 -1.1738  1.0752
17909THY    HP643799   2.024   6.041   6.175  0.8265 -0.0076 -1.3824
17909THY    HP743800   1.887   6.051   6.062  0.9626 -2.2324 -0.4871
17909THY    CA343801   2.125   5.825   6.301 -0.5180  0.1668  0.6005
17909THY    HA343802   2.182   5.854   6.213 -1.2631 -0.4132  0.3445
17909THY    CA443803   2.196   5.792   6.418 -0.5765  0.3085  0.6843
17909THY    HA443804   2.304   5.789   6.409 -0.7021 -1.1178 -0.7453
17909THY    CA543805   2.124   5.742   6.526  0.2887  0.1533 -0.4804
17909THY    CM143806   2.201   5.712   6.657 -0.6000  0.1390 -0.5420
17909THY    HM143807   2.299   5.760   6.669 -1.4188 -0.9575  1.5561
17909THY    HM243808   2.194   5.608   6.690 -0.2525 -1.0537 -0.9630
17909THY    HM343809   2.148   5.771   6.732 -1.7282  0.2817 -1.6888
17909THY    CA643810   1.985   5.726   6.524 -0.2182 -0.3058  0.5069
17909THY    HA643811   1.926   5.689   6.607 -1.1064 -1.4576 -0.7926
17910THY      O43812   0.074   1.721   4.946  0.1931 -0.3280 -0.4483
17910THY     HO43813   0.076   1.785   4.872  0.2714  0.3281  0.3191
17910THY    CA143814   0.136   1.612   4.909 -0.4033 -0.3386  0.0812
17910THY    CA243815   0.192   1.517   5.001  0.6530 -0.0531 -0.2714
17910THY    CP143816   0.162   1.537   5.158  0.1570 -0.5770  0.0439
17910THY    HP143817   0.062   1.580   5.167  0.6814 -1.1202  1.4393
17910THY    CP243818   0.257   1.640   5.228 -0.0062  0.6559  0.7357
17910THY    HP243819   0.360   1.605   5.219  0.6140  0.4900  2.4942
17910THY    HP343820   0.217   1.646   5.330 -0.5139  1.2061 -5.7170
17910THY    HP443821   0.257   1.732   5.168  0.6283  1.2862  1.1530
17910THY    CP343822   0.170   1.397   5.233  0.6202 -0.2775  0.0461
17910THY    HP543823   0.274   1.382   5.265  0.5279  1.3409  2.3594
17910THY    HP643824   0.139   1.318   5.163 -0.5686 -0.2019  0.4232
17910THY    HP743825   0.113   1.393   5.327  3.4024  1.6354  1.5396
17910THY    CA343826   0.270   1.409   4.949 -0.6160  0.5714 -0.0509
17910THY    HA343827   0.315   1.333   5.013 -0.3898  0.0069 -0.4000
17910THY    CA443828   0.300   1.411   4.813 -0.1833  0.0050 -0.3048
17910THY    HA443829   0.353   1.328   4.769 -1.8154  0.1167 -1.4719
17910THY    CA543830   0.234   1.504   4.726 -0.0800  0.1008  0.8432
17910THY    CM143831   0.275   1.497   4.580 -0.0967  0.4675 -0.8127
17910THY    HM143832   0.368   1.556   4.578 -1.2867  3.3574  1.4460
17910THY    HM243833   0.200   1.549   4.519  0.6666  0.3746  0.2067
17910THY    HM343834   0.289   1.393   4.547 -0.0055  2.3760 -1.4466
17910THY    CA643835   0.163   1.606   4.776  0.2793 -0.9463 -0.4527
17910THY    HA643836   0.135   1.686   4.708 -3.4702 -0.5790 -1.2701
17911THY      O43837   4.253   2.171   4.686  0.8032  0.2881  0.1927
17911THY     HO43838   4.350   2.168   4.692  1.0957 -2.9126  0.0907
17911THY    CA143839   4.223   2.113   4.576  0.5680  0.7295  0.1348
17911THY    CA243840   4.094   2.127   4.520  0.6327 -0.7899  0.1370
17911THY    CP143841   3.989   2.218   4.588  0.1861  0.5503  0.0203
17911THY    HP143842   4.020   2.236   4.692  0.2043  0.3145  1.4752
17911THY    CP243843   3.852   2.157   4.597 -0.1212  0.4046 -0.3028
17911THY    HP243844   3.789   2.152   4.507 -0.0864  0.3545  0.1162
17911THY    HP343845   3.787   2.203   4.673 -1.2892  0.1950 -1.5551
17911THY    HP443846   3.865   2.060   4.646 -0.0939  1.4337  0.1953
17911THY    CP343847   3.974   2.358   4.515 -0.7187  0.0003  0.6830
17911THY    HP543848   3.913   2.419   4.583 -0.4179  0.1191  0.8514
17911THY    HP643849   3.913   2.356   4.424 -0.9375 -0.0467  3.9891
17911THY    HP743850   4.072   2.407   4.509 -0.1169 -1.3220 -0.6235
17911THY    CA343851   4.061   2.067   4.390 -0.3200 -0.2579 -1.2198
17911THY    HA343852   3.964   2.082   4.344 -1.6616  2.3536 -1.3047
17911THY    CA443853   4.164   2.000   4.324  0.4338  0.0461 -0.3356
17911THY    HA443854   4.149   1.960   4.225  1.2268  0.0240 -0.5916
17911THY    CA543855   4.286   1.979   4.389  0.0129 -0.1072 -0.0852
17911THY    CM143856   4.383   1.898   4.309  1.0954 -0.1140  0.4970
17911THY    HM143857   4.469   1.854   4.362  0.1428 -0.7268 -2.3152
17911THY    HM243858   4.418   1.970   4.234 -1.1414  0.8007  2.6526
17911THY    HM343859   4.336   1.811   4.263  2.7808  2.4342 -1.9490
17911THY    CA643860   4.324   2.038   4.510 -0.5735 -0.6418 -0.9111
17911THY    HA643861   4.427   2.023   4.543 -1.1544  0.6353 -2.3783
17912THY      O43862   2.801   2.767   5.769 -0.6055  0.1126  0.0132
17912THY     HO43863   2.888   2.789   5.806 -0.0818 -1.3836  0.5308
17912THY    CA143864   2.823   2.736   5.637 -1.0143  0.3984  0.2171
17912THY    CA243865   2.732   2.662   5.564  0.5632  0.6237  0.8747
17912THY    CP143866   2.594   2.617   5.620  0.0794 -0.5840 -0.6675
17912THY    HP143867   2.587   2.630   5.728  1.8065 -0.6978  2.1763
17912THY    CP243868   2.582   2.469   5.593  0.1082 -0.5645 -0.1593
17912THY    HP243869   2.584   2.444   5.487 -2.4482 -0.5267 -0.8201
17912THY    HP343870   2.496   2.428   5.647  0.6694 -0.1073 -0.7476
17912THY    HP443871   2.669   2.427   5.645 -1.3621  1.5938 -0.7031
17912THY    CP343872   2.468   2.682   5.553  0.0791 -0.1749  1.0616
17912THY    HP543873   2.450   2.631   5.458  0.6085 -0.6453  1.7391
17912THY    HP643874   2.486   2.781   5.510  0.2835 -0.3834  0.9372
17912THY    HP743875   2.380   2.689   5.618 -0.6029 -0.9811  0.2036
17912THY    CA343876   2.755   2.642   5.422  0.7392 -0.5096  0.6168
17912THY    HA343877   2.674   2.603   5.361  0.3555  0.7131 -0.5590
17912THY    CA443878   2.878   2.689   5.367 -0.8976 -0.4760  0.2842
17912THY    HA443879   2.898   2.678   5.261  1.3117  0.0726 -1.9426
17912THY    CA543880   2.967   2.762   5.447 -0.2714  0.1027  0.4059
17912THY    CM143881   3.102   2.804   5.395 -0.4361 -1.1814  0.2189
17912THY    HM143882   3.107   2.798   5.286  0.2003 -1.0711 -2.0467
17912THY    HM243883   3.169   2.726   5.433 -0.7648  1.7477  1.2559
17912THY    HM343884   3.134   2.904   5.427  0.8637  1.2403 -0.8826
17912THY    CA643885   2.944   2.781   5.583  0.2273  0.2643  0.1542
17912THY    HA643886   3.021   2.825   5.647  0.1184  2.1101 -2.1669
17913THY      O43887   7.248   9.487   3.182  0.2395  0.0315 -0.1731
17913THY     HO43888   7.298   9.483   3.265  0.3968 -0.0846 -0.8698
17913THY    CA143889   7.170   9.377   3.193 -1.1028 -0.1679 -0.3871
17913THY    CA243890   7.071   9.344   3.092 -0.2019 -0.4957  0.0321
17913THY    CP143891   7.060   9.422   2.968  0.5982 -0.7915  0.2361
17913THY    HP143892   7.129   9.507   2.972 -0.1434  0.1803  0.8145
17913THY    CP243893   6.914   9.491   2.962 -0.4444  0.3126  0.2703
17913THY    HP243894   6.900   9.553   3.051  0.8140 -0.0665  1.1214
17913THY    HP343895   6.839   9.411   2.970  0.1010  1.2305 -0.1674
17913THY    HP443896   6.897   9.548   2.870 -2.7344 -0.2268 -1.1537
17913THY    CP343897   7.097   9.340   2.838  0.3367 -0.0294 -0.3071
17913THY    HP543898   7.105   9.408   2.753 -0.6423  0.2076  0.1193
17913THY    HP643899   7.017   9.267   2.823  2.1349 -0.0829 -2.3509
17913THY    HP743900   7.190   9.284   2.850 -0.1844  0.7083 -1.0318
17913THY    CA343901   7.011   9.220   3.107 -0.3236  0.9248  0.1877
17913THY    HA343902   6.942   9.187   3.030 -0.6653  0.8679  0.9930
17913THY    CA443903   7.029   9.148   3.229  0.3313  0.1403 -0.6989
17913THY    HA443904   6.971   9.058   3.248 -0.1989 -0.4889 -0.5008
17913THY    CA543905   7.111   9.195   3.328 -0.4863  0.2771  0.2435
17913THY    CM143906   7.150   9.099   3.440 -0.1774  0.4942 -0.1723
17913THY    HM143907   7.222   9.143   3.510  2.1307 -1.0113 -1.3881
17913THY    HM243908   7.197   9.008   3.401 -0.0705  1.6253 -0.6193
17913THY    HM343909   7.063   9.081   3.504 -0.7541 -0.5512 -1.2582
17913THY    CA643910   7.187   9.308   3.310 -0.1442  0.4770  0.1490
17913THY    HA643911   7.268   9.330   3.379  1.5304 -1.3832  0.1093
17914THY      O43912   2.655   0.796   2.747  0.2440 -0.0010  0.2790
17914THY     HO43913   2.649   0.890   2.770 -1.9474 -1.2632  0.4937
17914THY    CA143914   2.541   0.752   2.691 -0.3002 -0.2811  0.3084
17914THY    CA243915   2.533   0.626   2.631  0.0434 -0.3508  0.1763
17914THY    CP143916   2.636   0.518   2.643  0.0574  0.1800 -0.4663
17914THY    HP143917   2.727   0.548   2.697  1.7496 -2.8919  0.3925
17914THY    CP243918   2.703   0.471   2.514  0.1549 -0.1813 -0.7343
17914THY    HP243919   2.749   0.558   2.467 -0.2868  0.3229 -0.2218
17914THY    HP343920   2.624   0.425   2.453 -0.7083 -0.1940  0.7000
17914THY    HP443921   2.787   0.403   2.529  1.8138 -0.7503  1.1239
17914THY    CP343922   2.579   0.393   2.711  0.7879  0.4402  0.3836
17914THY    HP543923   2.512   0.416   2.795  0.2924  1.2235 -3.2660
17914THY    HP643924   2.658   0.332   2.757  1.4841 -1.4941 -0.2462
17914THY    HP743925   2.528   0.338   2.631  1.7792 -1.4726  2.1172
17914THY    CA343926   2.417   0.604   2.558  0.4529 -0.5813 -0.5362
17914THY    HA343927   2.406   0.506   2.511  0.4217 -1.5967 -0.0562
17914THY    CA443928   2.311   0.689   2.549 -0.0399 -0.0040  0.5323
17914THY    HA443929   2.231   0.682   2.475 -0.6642  0.5955  1.1723
17914THY    CA543930   2.324   0.820   2.615  0.4216 -0.2418  0.6584
17914THY    CM143931   2.214   0.926   2.605 -0.0412  0.6384 -0.6673
17914THY    HM143932   2.208   1.000   2.686 -4.1320  0.9832 -1.1513
17914THY    HM243933   2.121   0.869   2.604  0.1247  1.8359 -0.9881
17914THY    HM343934   2.233   0.978   2.510  0.5478  1.7420  1.2337
17914THY    CA643935   2.440   0.848   2.685 -0.3590  0.7924 -0.1101
17914THY    HA643936   2.456   0.948   2.723 -1.5876 -1.3937  0.9865
17915THY      O43937   3.009   1.977   7.654 -0.6790 -0.5399 -0.1036
17915THY     HO43938   2.949   1.954   7.727  0.8214  0.3896 -1.1496
17915THY    CA143939   3.094   1.884   7.640 -0.3976  0.7449  0.3039
17915THY    CA243940   3.217   1.900   7.568  0.1414 -0.1195  0.0439
17915THY    CP143941   3.273   2.031   7.513 -0.1022  0.0955 -0.1170
17915THY    HP143942   3.195   2.107   7.523 -0.4094 -0.1480 -0.3977
17915THY    CP243943   3.307   2.020   7.366 -0.2110  0.0098 -0.4077
17915THY    HP243944   3.407   1.980   7.342  1.1037  1.3961  1.8608
17915THY    HP343945   3.311   2.124   7.332  0.6549 -2.1282 -1.0821
17915THY    HP443946   3.222   1.973   7.316 -0.3140 -0.3361  0.1426
17915THY    CP343947   3.390   2.081   7.597 -0.6019  0.2447  0.8240
17915THY    HP543948   3.466   2.003   7.606 -1.1513 -0.0308  0.2487
17915THY    HP643949   3.348   2.086   7.698  1.6507  1.2558  0.4238
17915THY    HP743950   3.427   2.176   7.556  1.5409 -1.5710 -0.6921
17915THY    CA343951   3.305   1.789   7.555  0.0189  0.2130  0.2355
17915THY    HA343952   3.402   1.801   7.507  0.0340 -0.2252 -1.4298
17915THY    CA443953   3.265   1.666   7.600 -0.3451 -0.9963  0.6950
17915THY    HA443954   3.325   1.576   7.586 -0.6413  0.5788  0.2291
17915THY    CA543955   3.137   1.646   7.656 -0.2921 -0.0832  0.0389
17915THY    CM143956   3.088   1.505   7.697 -0.1516 -0.3410 -0.2778
17915THY    HM143957   3.134   1.483   7.794  1.9612 -0.6350  2.3551
17915THY    HM243958   3.113   1.427   7.624  1.3504  0.5766 -0.6891
17915THY    HM343959   2.981   1.499   7.717  0.0476  0.5435 -1.1121
17915THY    CA643960   3.056   1.759   7.678  0.2766  0.0765  0.4907
17915THY    HA643961   2.955   1.745   7.714 -0.1220 -0.9860  0.5865
17916THY      O43962   3.677   7.640   4.278  0.0950 -0.2844 -0.2849
17916THY     HO43963   3.741   7.614   4.210 -0.3303 -0.1420 -1.7776
17916THY    CA143964   3.573   7.545   4.261  0.4465  0.7426  0.3897
17916THY    CA243965   3.457   7.541   4.347 -0.0189  0.5584  0.6376
17916THY    CP143966   3.444   7.641   4.459 -0.0617  0.1806 -0.5600
17916THY    HP143967   3.532   7.706   4.455 -0.3793  0.5432 -0.1053
17916THY    CP243968   3.465   7.565   4.588  0.6190 -0.5633 -0.2724
17916THY    HP243969   3.566   7.524   4.603  0.6570  2.3664  0.6696
17916THY    HP343970   3.391   7.484   4.586  0.5552 -1.4267 -0.2014
17916THY    HP443971   3.453   7.632   4.673 -0.8092 -0.0918 -1.0652
17916THY    CP343972   3.316   7.726   4.460  0.5590 -0.0278 -0.2483
17916THY    HP543973   3.321   7.786   4.368 -0.9242  1.0868  1.6760
17916THY    HP643974   3.321   7.786   4.551 -1.3809 -1.3311  2.0690
17916THY    HP743975   3.221   7.672   4.456  0.8772  0.0949 -0.8287
17916THY    CA343976   3.348   7.462   4.313 -0.8811  0.2654 -0.9855
17916THY    HA343977   3.258   7.470   4.372 -1.2266 -0.5524  2.3013
17916THY    CA443978   3.352   7.393   4.196  0.1482 -0.0798 -0.5174
17916THY    HA443979   3.267   7.339   4.157  1.1433 -1.8213 -0.9095
17916THY    CA543980   3.461   7.403   4.102 -0.3648  0.4237  0.2190
17916THY    CM143981   3.453   7.334   3.963 -0.0242 -0.2265 -0.2456
17916THY    HM143982   3.345   7.319   3.951 -0.1126  1.0265 -0.7027
17916THY    HM243983   3.507   7.239   3.968  1.0821  1.3006  0.4318
17916THY    HM343984   3.484   7.405   3.885 -0.8395  0.9909  1.5487
17916THY    CA643985   3.567   7.486   4.135 -0.4304  0.3581 -0.0584
17916THY    HA643986   3.638   7.515   4.058 -2.3334 -1.5361 -0.1576
17917THY      O43987   2.042   3.123   6.816  0.1938  0.4197 -0.2562
17917THY     HO43988   2.124   3.166   6.847 -0.0538  1.2571 -0.3724
17917THY    CA143989   2.077   3.004   6.765  0.1589 -0.3902  0.0403
17917THY    CA243990   2.015   2.879   6.814  0.1022 -0.0776  0.0323
17917THY    CP143991   1.904   2.891   6.917  1.0948 -0.0656 -0.1752
17917THY    HP143992   1.839   2.972   6.884  1.5554  1.0913  0.6894
17917THY    CP243993   1.958   2.929   7.061 -0.1984  0.8765  0.1060
17917THY    HP243994   2.023   2.846   7.090  0.2130 -1.1991 -0.3450
17917THY    HP343995   1.876   2.949   7.131  1.7958  3.0696  1.0725
17917THY    HP443996   2.025   3.016   7.062  0.3452 -0.0700 -0.2836
17917THY    CP343997   1.816   2.765   6.939  0.0965 -0.4731 -0.4049
17917THY    HP543998   1.724   2.798   6.988 -0.4938 -0.1394 -2.4313
17917THY    HP643999   1.865   2.681   6.990  0.4261  1.4632  0.8932
17917THY    HP744000   1.782   2.733   6.840 -1.2477  0.0967 -0.7795
17917THY    CA344001   2.070   2.752   6.778 -0.2290 -0.1019 -0.1399
17917THY    HA344002   2.034   2.654   6.808 -0.0519 -0.0721 -0.1962
17917THY    CA444003   2.172   2.753   6.684 -0.1581  0.2541 -0.4581
17917THY    HA444004   2.216   2.657   6.659  0.9623  0.7389 -0.0940
17917THY    CA544005   2.236   2.873   6.642 -0.2503 -0.0429 -0.4391
17917THY    CM144006   2.350   2.874   6.542 -0.1915 -0.5095  0.6041
17917THY    HM144007   2.437   2.917   6.593 -0.5459  0.7364 -0.1112
17917THY    HM244008   2.323   2.917   6.444  1.3956 -1.1649  0.1630
17917THY    HM344009   2.368   2.773   6.506 -1.3809  0.3856  0.0509
17917THY    CA644010   2.180   2.996   6.677  0.3028 -0.4989  0.2216
17917THY    HA644011   2.217   3.087   6.630  2.2292 -0.0289 -0.2777
17918THY      O44012   5.861   2.776   2.867  0.5251  0.1540  0.2135
17918THY     HO44013   5.778   2.816   2.899  0.4496  0.7770 -0.4218
17918THY    CA144014   5.932   2.883   2.829  0.2641  0.7301 -0.2403
17918THY    CA244015   6.065   2.871   2.774  0.9844 -0.0590  0.0649
17918THY    CP144016   6.125   2.733   2.741  0.7037  0.1625  0.5618
17918THY    HP144017   6.078   2.668   2.816  0.2425  1.0819  1.9269
17918THY    CP244018   6.270   2.706   2.750  1.0182  0.0517  0.0112
17918THY    HP244019   6.290   2.598   2.748  0.1699 -0.4524 -0.1441
17918THY    HP344020   6.300   2.744   2.848 -2.8474  1.7648 -0.7995
17918THY    HP444021   6.327   2.747   2.666  1.1211  0.0811 -0.0721
17918THY    CP344022   6.083   2.686   2.600  0.5013  0.3111  0.1892
17918THY    HP544023   6.111   2.745   2.512  0.8682 -0.1336 -0.6352
17918THY    HP644024   5.975   2.667   2.602  0.0095 -0.6605  2.5704
17918THY    HP744025   6.122   2.587   2.575  0.1971  1.8591 -0.3502
17918THY    CA344026   6.136   2.989   2.740 -0.3561 -0.2603  0.1010
17918THY    HA344027   6.231   2.986   2.688 -0.1177  0.1964 -0.8139
17918THY    CA444028   6.071   3.111   2.753  0.1676  0.2805 -0.3830
17918THY    HA444029   6.124   3.206   2.746 -3.1751  2.0164  1.8294
17918THY    CA544030   5.930   3.121   2.786 -0.4911 -0.2166 -0.4761
17918THY    CM144031   5.870   3.252   2.807 -0.2230 -0.0127 -0.5863
17918THY    HM144032   5.760   3.245   2.799 -0.3241  2.2786 -3.3032
17918THY    HM244033   5.908   3.315   2.726  0.8537  1.9809  1.4597
17918THY    HM344034   5.897   3.292   2.905 -0.8048 -0.2634  0.4585
17918THY    CA644035   5.867   3.008   2.838 -0.1787  0.5169  0.3001
17918THY    HA644036   5.762   3.004   2.866 -1.8134 -4.7267 -0.3914
17919THY      O44037   2.537   1.092   6.956  0.1787 -0.2421 -0.2748
17919THY     HO44038   2.628   1.083   6.925 -0.1510 -1.2143 -0.3736
17919THY    CA144039   2.493   0.967   6.963  0.4243  0.3416  0.9611
17919THY    CA244040   2.358   0.946   6.983  0.1503  0.2009 -0.1625
17919THY    CP144041   2.267   1.062   6.949 -0.8271 -0.3551  0.1083
17919THY    HP144042   2.297   1.111   6.855  1.8304  1.4593  2.2607
17919THY    CP244043   2.261   1.168   7.068  0.3172 -0.5307 -0.7161
17919THY    HP244044   2.343   1.182   7.139 -1.5600  1.3342  1.8875
17919THY    HP344045   2.175   1.143   7.132  0.9878  0.8419  0.3588
17919THY    HP444046   2.224   1.261   7.023  0.0026 -2.2028 -1.6053
17919THY    CP344047   2.125   1.015   6.910  0.3107 -0.4309  0.7765
17919THY    HP544048   2.076   0.974   7.000 -0.8180 -1.5189 -0.3311
17919THY    HP644049   2.132   0.931   6.841  0.6596  1.0656 -0.4811
17919THY    HP744050   2.062   1.100   6.881  2.7395 -0.2996  2.7387
17919THY    CA344051   2.314   0.818   7.016  0.1080 -1.0547  0.2627
17919THY    HA344052   2.208   0.799   7.032  0.2390 -0.8931 -0.3512
17919THY    CA444053   2.403   0.709   7.034  0.2224  0.2575 -0.4873
17919THY    HA444054   2.367   0.607   7.040 -0.3445 -1.1076 -0.3810
17919THY    CA544055   2.540   0.736   7.023  0.0189  0.5080  0.6577
17919THY    CM144056   2.631   0.620   7.029  0.8555 -0.2723 -0.3913
17919THY    HM144057   2.588   0.520   7.012  0.3540  1.4074 -0.4786
17919THY    HM244058   2.676   0.606   7.127  0.4118 -0.1400 -0.9354
17919THY    HM344059   2.707   0.626   6.950 -0.2535 -1.3346 -0.0057
17919THY    CA644060   2.585   0.866   6.994  0.1459 -0.2833 -0.0176
17919THY    HA644061   2.692   0.865   6.977  0.1412 -0.3588 -1.3876
17920THY      O44062   3.032   5.284   3.962  0.4791  0.8385  0.1541
17920THY     HO44063   3.083   5.350   3.911  0.4546  0.5280 -0.0638
17920THY    CA144064   2.944   5.347   4.046  0.2237 -0.6049  0.1704
17920THY    CA244065   2.877   5.287   4.156 -0.1261 -0.1172  0.5044
17920THY    CP144066   2.909   5.142   4.186 -0.0725 -0.0215 -0.1057
17920THY    HP144067   2.921   5.083   4.095  2.9975 -0.2524  0.7248
17920THY    CP244068   2.804   5.071   4.272  0.2572 -0.2182  0.3894
17920THY    HP244069   2.702   5.073   4.232 -1.0219  2.7689  1.7223
17920THY    HP344070   2.806   5.111   4.374 -1.7142 -0.4433  1.1638
17920THY    HP444071   2.829   4.966   4.291  0.2967  0.3136  0.4883
17920THY    CP344072   3.049   5.119   4.260 -0.1916  0.0552  0.0742
17920THY    HP544073   3.050   5.176   4.354  1.6038  1.6695 -2.4479
17920THY    HP644074   3.132   5.142   4.193  0.6478  1.1503  0.3110
17920THY    HP744075   3.053   5.013   4.287 -0.7973 -0.1467 -0.0040
17920THY    CA344076   2.791   5.364   4.233  0.1870  0.2220  0.0832
17920THY    HA344077   2.740   5.322   4.319  2.7508  2.5351  1.4163
17920THY    CA444078   2.767   5.495   4.200  0.3257  0.6493 -0.0804
17920THY    HA444079   2.696   5.556   4.255  0.3060  0.0393  0.4523
17920THY    CA544080   2.833   5.561   4.097  0.3672  0.2627  0.2764
17920THY    CM144081   2.819   5.709   4.068  0.3220 -0.0245 -0.3180
17920THY    HM144082   2.801   5.784   4.146 -0.2064 -1.5909  1.2698
17920THY    HM244083   2.744   5.726   3.990  1.5221 -0.8103  1.7682
17920THY    HM344084   2.910   5.742   4.016  0.4370 -0.3127 -1.0635
17920THY    CA644085   2.918   5.482   4.024 -0.0415 -0.1946  0.2078
17920THY    HA644086   2.965   5.528   3.937 -0.1480  1.1078  3.0035
17921THY      O44087   8.040   1.410   7.213  0.6521  0.2951  0.3175
17921THY     HO44088   7.995   1.475   7.270 -2.9774 -1.5012 -0.3321
17921THY    CA144089   7.954   1.310   7.225 -0.5485  0.2220 -0.1644
17921THY    CA244090   7.952   1.201   7.142 -0.5987  0.3346  0.1187
17921THY    CP144091   8.053   1.164   7.039 -0.0825 -0.1670 -0.1896
17921THY    HP144092   8.113   1.255   7.029  0.1597  0.8893 -0.2276
17921THY    CP244093   7.991   1.133   6.901  0.7975 -0.1780 -0.3843
17921THY    HP244094   7.914   1.054   6.902 -0.5663 -0.3499  0.8986
17921THY    HP344095   8.073   1.100   6.836  1.1196  0.5798 -1.1050
17921THY    HP444096   7.944   1.226   6.867  1.5285  0.4941  0.2360
17921THY    CP344097   8.157   1.050   7.080  0.5922  0.3141 -0.0325
17921THY    HP544098   8.155   1.019   7.185 -0.7359  0.7060  1.2307
17921THY    HP644099   8.251   1.065   7.026 -0.0834 -0.4829  1.6084
17921THY    HP744100   8.119   0.958   7.036 -0.8380 -0.1161  0.7334
17921THY    CA344101   7.856   1.099   7.161  0.0400  0.5933  0.1617
17921THY    HA344102   7.846   1.006   7.106 -1.4267 -0.2224  0.7812
17921THY    CA444103   7.768   1.114   7.267 -0.2243  0.0707  0.3515
17921THY    HA444104   7.695   1.036   7.287 -0.9270  0.1756  1.0211
17921THY    CA544105   7.765   1.225   7.350  0.0871  0.0314 -0.4531
17921THY    CM144106   7.670   1.247   7.460 -0.0657  0.1508 -0.0153
17921THY    HM144107   7.621   1.152   7.482 -2.3537  0.7176  1.2309
17921THY    HM244108   7.604   1.327   7.425  1.5881 -0.6690  1.0389
17921THY    HM344109   7.718   1.287   7.551 -0.9865 -0.2053  2.0312
17921THY    CA644110   7.865   1.324   7.331 -0.0666  0.1325 -0.7209
17921THY    HA644111   7.848   1.416   7.386 -1.5477  2.2281 -2.1535
17922THY      O44112   7.975   2.443   6.806  0.5663 -0.2837  0.1523
17922THY     HO44113   8.017   2.462   6.720 -1.5881 -1.5361 -0.4838
17922THY    CA144114   7.868   2.362   6.769  0.3497 -0.0779 -0.4278
17922THY    CA244115   7.744   2.379   6.830 -0.5454  0.9295  0.2916
17922THY    CP144116   7.721   2.491   6.929 -0.2668  0.1282 -0.4347
17922THY    HP144117   7.798   2.566   6.909 -0.9033  3.0722  1.1047
17922THY    CP244118   7.716   2.457   7.078 -0.5111 -0.6483 -0.2110
17922THY    HP244119   7.617   2.438   7.122  0.0664  0.6212 -0.3636
17922THY    HP344120   7.756   2.547   7.127 -1.0964 -1.7387  0.6586
17922THY    HP444121   7.794   2.390   7.117  1.1314  1.6117  2.7448
17922THY    CP344122   7.588   2.571   6.907  0.0936 -0.9137 -0.0516
17922THY    HP544123   7.577   2.653   6.979  2.1685 -0.5801 -0.0059
17922THY    HP644124   7.510   2.494   6.910 -1.0446  0.0184  1.0975
17922THY    HP744125   7.578   2.610   6.806 -1.2172 -2.1162 -3.1432
17922THY    CA344126   7.649   2.274   6.803 -0.4881 -0.5017 -0.3034
17922THY    HA344127   7.557   2.257   6.858 -1.4763 -2.5717 -2.0775
17922THY    CA444128   7.676   2.165   6.714 -0.0212  0.3303  0.9310
17922THY    HA444129   7.601   2.087   6.705 -0.1603  0.2370  1.0745
17922THY    CA544130   7.804   2.155   6.661 -0.0005 -0.1985 -0.1244
17922THY    CM144131   7.856   2.023   6.599 -0.6468  0.0299  0.2315
17922THY    HM144132   7.845   1.943   6.673 -0.9670  0.1703  0.4023
17922THY    HM244133   7.958   2.032   6.559 -1.6632 -2.6830  0.5841
17922THY    HM344134   7.804   2.008   6.504 -1.8264  0.4377  1.5823
17922THY    CA644135   7.898   2.254   6.689  0.6440  0.0643  0.3687
17922THY    HA644136   8.002   2.241   6.661  1.3020  2.0071  1.0242
17923THY      O44137   4.495   1.380   4.734 -0.5939 -0.2323  0.3416
17923THY     HO44138   4.581   1.348   4.765  0.2935 -1.2718  1.6036
17923THY    CA144139   4.468   1.497   4.795  0.2554 -0.2491 -0.1659
17923THY    CA244140   4.359   1.579   4.750  0.5734  0.5551 -0.5917
17923THY    CP144141   4.285   1.553   4.622  0.4259  0.0342 -0.1215
17923THY    HP144142   4.321   1.459   4.579 -0.5074  2.2690 -1.5866
17923THY    CP244143   4.312   1.665   4.521 -0.2803  0.2074  1.1932
17923THY    HP244144   4.265   1.757   4.558  0.2420  1.4356  0.9834
17923THY    HP344145   4.275   1.619   4.428 -1.9198  1.3092  0.1679
17923THY    HP444146   4.415   1.702   4.520  0.1001  2.4212  0.3317
17923THY    CP344147   4.134   1.541   4.651  0.2801 -0.1232  0.0445
17923THY    HP544148   4.131   1.465   4.730 -1.1839  1.5611  1.7439
17923THY    HP644149   4.082   1.510   4.560  0.6752 -1.0819  2.0504
17923THY    HP744150   4.089   1.634   4.688 -0.2855 -0.2019 -0.1965
17923THY    CA344151   4.335   1.700   4.818  0.4145  0.2578 -0.3074
17923THY    HA344152   4.268   1.778   4.781  1.8237  0.2508  0.9475
17923THY    CA444153   4.406   1.728   4.936 -0.7156  0.3331  0.8286
17923THY    HA444154   4.379   1.816   4.995  0.2882  1.1320  0.6307
17923THY    CA544155   4.497   1.635   4.990  0.7171 -0.4118 -0.5307
17923THY    CM144156   4.568   1.670   5.120 -0.7250 -0.5707 -0.1754
17923THY    HM144157   4.660   1.719   5.085 -1.2800 -1.6268  0.1334
17923THY    HM244158   4.600   1.581   5.176 -3.0744  1.5856  0.2306
17923THY    HM344159   4.510   1.740   5.182  0.3332 -0.2521  0.4462
17923THY    CA644160   4.539   1.524   4.910  0.1627  0.0731 -0.5499
17923THY    HA644161   4.604   1.446   4.949 -0.3570 -1.0562 -1.5724
17924THY      O44162   3.026   7.256   1.964  0.3797 -0.1110  0.1204
17924THY     HO44163   2.948   7.265   2.021  0.6110  0.2270  0.0064
17924THY    CA144164   3.050   7.384   1.919  0.0184  0.2107  0.4763
17924THY    CA244165   3.161   7.417   1.843 -0.5116 -0.2667 -0.0515
17924THY    CP144166   3.261   7.308   1.811  0.2558 -0.3485 -0.2114
17924THY    HP144167   3.200   7.219   1.793 -0.5883  2.3634 -0.2641
17924THY    CP244168   3.358   7.292   1.935 -0.7255 -0.2554  0.0893
17924THY    HP244169   3.433   7.220   1.900 -0.5204  0.8681 -0.2462
17924THY    HP344170   3.306   7.253   2.023 -0.5266 -0.7613 -1.3621
17924THY    HP444171   3.400   7.389   1.964  2.9782  0.2560 -1.5239
17924THY    CP344172   3.340   7.334   1.681 -0.0691 -0.2484 -1.2346
17924THY    HP544173   3.281   7.390   1.608  2.1354 -1.1880  0.0010
17924THY    HP644174   3.367   7.236   1.638 -2.4714 -1.2131 -1.5370
17924THY    HP744175   3.422   7.403   1.703 -1.6455 -0.9423  0.9504
17924THY    CA344176   3.185   7.550   1.816  0.7224  0.7569 -0.1319
17924THY    HA344177   3.282   7.582   1.779  0.2576 -0.7309 -0.3303
17924THY    CA444178   3.096   7.645   1.863  0.1968 -0.3834 -0.2991
17924THY    HA444179   3.115   7.750   1.844 -1.6959  1.5586  0.4674
17924THY    CA544180   2.973   7.607   1.921 -0.9893 -0.3161  0.0675
17924THY    CM144181   2.868   7.715   1.938 -0.0944 -0.3057  0.6196
17924THY    HM144182   2.828   7.745   1.840 -1.3611  0.4426  1.4996
17924THY    HM244183   2.897   7.806   1.991  1.0145 -2.3021  1.4906
17924THY    HM344184   2.784   7.666   1.988 -0.0189  0.2227  1.0204
17924THY    CA644185   2.955   7.475   1.950 -0.0769 -0.0084  0.2576
17924THY    HA644186   2.859   7.438   1.984 -0.5020 -1.9510 -0.5407
17925THY      O44187   9.215   2.657   2.467 -0.0992  0.1042 -0.2509
17925THY     HO44188   9.213   2.667   2.370  1.0255  0.1227  0.3440
17925THY    CA144189   9.286   2.543   2.490 -0.1670  0.0635 -0.3484
17925THY    CA244190   9.346   2.513   2.613  0.3875 -0.3581 -0.3809
17925THY    CP144191   9.347   2.610   2.729  0.3056 -0.4685 -0.0184
17925THY    HP144192   9.303   2.702   2.689  1.8816 -1.7953  0.2233
17925THY    CP244193   9.489   2.663   2.767 -0.1315  1.0830 -0.4708
17925THY    HP244194   9.505   2.748   2.700 -4.1128  0.6451  0.0967
17925THY    HP344195   9.574   2.596   2.749  0.5154  1.4137  0.2365
17925THY    HP444196   9.493   2.704   2.869  0.5067  0.3755  1.3265
17925THY    CP344197   9.281   2.557   2.849 -0.1799 -0.3905 -0.7271
17925THY    HP544198   9.323   2.466   2.894 -0.6046  3.7592  0.9114
17925THY    HP644199   9.178   2.528   2.827 -0.4672  1.2254 -1.0473
17925THY    HP744200   9.281   2.626   2.935 -0.1710 -0.0492 -1.1450
17925THY    CA344201   9.416   2.388   2.621 -0.8073  0.5876 -1.0307
17925THY    HA344202   9.467   2.352   2.710  0.4006 -0.3384 -1.6757
17925THY    CA444203   9.421   2.301   2.511 -0.7586 -0.0580  0.2025
17925THY    HA444204   9.488   2.215   2.516 -1.1572  0.3348 -0.0879
17925THY    CA544205   9.371   2.337   2.383  0.1723 -0.4348  0.0528
17925THY    CM144206   9.385   2.246   2.274  0.1124 -0.2045  0.1726
17925THY    HM144207   9.314   2.164   2.289  1.4323  3.2327 -0.4955
17925THY    HM244208   9.490   2.219   2.265  1.1811  0.6568  3.5002
17925THY    HM344209   9.355   2.302   2.184  1.0829  0.1916  1.3632
17925THY    CA644210   9.309   2.457   2.375 -0.3089 -0.2072  0.2354
17925THY    HA644211   9.271   2.488   2.279 -0.0755 -0.3192  0.1744
17926THY      O44212   4.594   8.943   6.822 -0.0421  0.4801 -0.3024
17926THY     HO44213   4.628   8.914   6.736 -0.5673  0.1689 -0.0016
17926THY    CA144214   4.703   8.947   6.911  0.1959  0.1027 -0.0816
17926THY    CA244215   4.681   8.959   7.056  0.4255  0.3318 -0.6194
17926THY    CP144216   4.547   8.978   7.112  0.0037 -0.3175 -0.8155
17926THY    HP144217   4.471   8.970   7.033  0.2509 -0.4133 -2.6574
17926THY    CP244218   4.529   9.123   7.168  1.1459  0.1128 -1.0707
17926THY    HP244219   4.423   9.148   7.173  1.0313 -1.5863 -1.0560
17926THY    HP344220   4.588   9.193   7.107 -0.8837 -0.1870  0.4480
17926THY    HP444221   4.558   9.129   7.273  0.8742  0.2384 -1.8543
17926THY    CP344222   4.503   8.874   7.222  0.3736  0.1345  0.2362
17926THY    HP544223   4.515   8.771   7.186 -2.0363 -0.6161  0.1435
17926THY    HP644224   4.410   8.888   7.279 -0.5314 -0.4740 -2.6054
17926THY    HP744225   4.569   8.875   7.309  0.1774  0.3652 -1.7705
17926THY    CA344226   4.799   8.969   7.136 -0.6035  0.2723 -0.5666
17926THY    HA344227   4.793   8.978   7.244  0.8009  0.4317 -1.2859
17926THY    CA444228   4.925   8.966   7.077  0.5882  0.2205  0.2608
17926THY    HA444229   5.013   8.966   7.140 -0.2947  1.7209 -3.2561
17926THY    CA544230   4.944   8.940   6.942 -0.3911 -0.7302  0.4904
17926THY    CM144231   5.077   8.935   6.888 -0.2392  0.6783 -0.3036
17926THY    HM144232   5.086   9.029   6.832 -0.9899  0.1560 -0.5294
17926THY    HM244233   5.098   8.851   6.822  0.3363  0.8539 -0.2990
17926THY    HM344234   5.154   8.930   6.966 -2.0352  2.5827  0.0860
17926THY    CA644235   4.834   8.934   6.856 -0.1513 -0.3265 -0.2161
17926THY    HA644236   4.847   8.922   6.749 -0.4057 -0.6439  1.9545
17927THY      O44237   6.026   1.963   4.019  0.1743 -0.2971  0.0971
17927THY     HO44238   5.944   1.973   3.968  0.5282 -1.2326 -1.3300
17927THY    CA144239   6.050   1.829   4.023  0.1743 -0.0494 -1.1008
17927THY    CA244240   6.137   1.767   4.103 -0.3848  0.0668 -0.1864
17927THY    CP144241   6.212   1.854   4.203 -0.3680  0.0459 -0.5721
17927THY    HP144242   6.203   1.962   4.191 -0.6050  0.2589 -0.5663
17927THY    CP244243   6.365   1.814   4.206 -0.1394  0.4715 -0.4088
17927THY    HP244244   6.374   1.712   4.243 -2.3996 -2.0354 -1.6495
17927THY    HP344245   6.421   1.870   4.281  0.1859  2.1559 -2.8489
17927THY    HP444246   6.416   1.812   4.109 -0.2435  0.4306 -1.5563
17927THY    CP344247   6.144   1.832   4.336  0.0859  0.1670 -0.2241
17927THY    HP544248   6.187   1.897   4.413 -0.4263 -0.2586  0.6399
17927THY    HP644249   6.155   1.727   4.366 -0.4263  0.6950 -0.1333
17927THY    HP744250   6.038   1.859   4.327  0.8264  0.0653  3.0427
17927THY    CA344251   6.142   1.628   4.101 -0.7668  0.6123  0.4936
17927THY    HA344252   6.210   1.576   4.167  1.6786 -2.7543 -0.9923
17927THY    CA444253   6.072   1.548   4.009 -0.4987  0.0160 -0.2547
17927THY    HA444254   6.073   1.440   4.023  2.9310  0.7861 -0.2596
17927THY    CA544255   5.982   1.621   3.927 -0.7285  0.4927  0.4932
17927THY    CM144256   5.894   1.553   3.833  0.1135  0.2613  0.0762
17927THY    HM144257   5.899   1.580   3.727 -0.1955 -0.6045 -2.9939
17927THY    HM244258   5.792   1.585   3.856 -0.1178 -0.2556 -0.2874
17927THY    HM344259   5.907   1.445   3.823 -0.9204  2.3996 -0.3082
17927THY    CA644260   5.974   1.761   3.937  0.6761  0.5391  0.2419
17927THY    HA644261   5.897   1.808   3.877  0.2726  0.3320 -0.6738
17928THY      O44262   2.674   5.766   3.112 -0.2399 -0.7079 -0.4623
17928THY     HO44263   2.637   5.848   3.151 -4.0411  1.2623 -2.8347
17928THY    CA144264   2.804   5.799   3.089 -0.0798 -0.3877  0.2059
17928THY    CA244265   2.890   5.728   2.996 -0.0035  0.2256 -0.0278
17928THY    CP144266   2.818   5.614   2.924  0.0206  0.0432  0.0295
17928THY    HP144267   2.711   5.634   2.918  0.1689 -0.1084  0.8450
17928THY    CP244268   2.826   5.482   3.004  0.3642 -0.6079  0.4895
17928THY    HP244269   2.762   5.497   3.091 -0.7034 -1.5121  1.3613
17928THY    HP344270   2.924   5.446   3.038  0.2999  2.6061  2.8676
17928THY    HP444271   2.791   5.403   2.937 -0.9487  0.3898  0.1955
17928THY    CP344272   2.867   5.586   2.778  0.2104  0.1487 -0.2144
17928THY    HP544273   2.965   5.536   2.779 -0.4982  0.4869 -1.6453
17928THY    HP644274   2.870   5.676   2.716 -0.6342  0.2209 -0.1342
17928THY    HP744275   2.802   5.514   2.728 -0.6848  0.2355  0.5261
17928THY    CA344276   3.025   5.766   2.970  0.2799 -0.4568  0.1623
17928THY    HA344277   3.079   5.717   2.890  0.1396 -0.8475  0.6386
17928THY    CA444278   3.078   5.872   3.044  0.6592  0.4816 -0.7725
17928THY    HA444279   3.179   5.909   3.026  0.6844 -0.8370 -1.4674
17928THY    CA544280   2.990   5.949   3.129 -0.0965  0.1680 -0.5009
17928THY    CM144281   3.028   6.069   3.201  0.0590 -0.1163 -0.0462
17928THY    HM144282   3.002   6.163   3.152  0.3720  0.7319  0.4892
17928THY    HM244283   3.137   6.080   3.213  0.1889 -1.6281  0.5778
17928THY    HM344284   2.988   6.073   3.303 -1.5705 -0.6805 -0.8645
17928THY    CA644285   2.856   5.915   3.143 -0.5885  0.2550 -0.4224
17928THY    HA644286   2.797   5.979   3.209 -1.8321 -0.5724 -0.6901
17929THY      O44287   7.057   8.997   4.785  0.0297  0.0708 -0.3828
17929THY     HO44288   7.129   9.023   4.725 -0.7737 -1.1867 -0.9944
17929THY    CA144289   7.024   9.112   4.854  0.1533  0.7553 -0.0024
17929THY    CA244290   6.945   9.118   4.970  0.8010  0.2070  0.5671
17929THY    CP144291   6.888   8.984   5.034 -0.2755  0.1550  0.3465
17929THY    HP144292   6.933   8.896   4.986 -2.0607  2.1759 -1.8167
17929THY    CP244293   6.738   8.978   5.008  0.7009  0.3152  0.0262
17929THY    HP244294   6.684   8.925   5.088  0.4948  0.5549  0.5872
17929THY    HP344295   6.711   8.951   4.905 -0.9826  0.3210  1.4594
17929THY    HP444296   6.705   9.079   5.032  0.5425 -0.1637  0.0897
17929THY    CP344297   6.910   8.981   5.185 -0.5668 -0.0495  1.1293
17929THY    HP544298   7.019   8.987   5.193 -0.5916 -0.4574  2.2889
17929THY    HP644299   6.884   8.882   5.224  2.6569 -1.2800 -0.3322
17929THY    HP744300   6.856   9.056   5.242 -0.6989  0.8433  0.3742
17929THY    CA344301   6.932   9.239   5.038 -0.3072 -0.1155  0.0371
17929THY    HA344302   6.869   9.246   5.126 -1.6569 -0.4496 -4.6238
17929THY    CA444303   6.984   9.359   4.978 -0.2912  0.4226  0.4759
17929THY    HA444304   6.967   9.458   5.020  1.0622  0.1287  0.8447
17929THY    CA544305   7.056   9.349   4.864 -0.7699 -0.2294 -0.3737
17929THY    CM144306   7.099   9.485   4.799 -0.9430 -0.3212  0.1304
17929THY    HM144307   7.141   9.460   4.701 -0.5689  0.3989 -2.3313
17929THY    HM244308   7.175   9.529   4.865  2.7346 -2.0273 -3.0792
17929THY    HM344309   7.016   9.556   4.807 -0.9298  0.0686  0.1062
17929THY    CA644310   7.081   9.224   4.806  0.0459 -0.4818 -0.2453
17929THY    HA644311   7.132   9.221   4.710  0.1894 -0.4028 -0.3447
17930THY      O44312   7.223   6.941   2.396 -0.0754  0.3988  0.4652
17930THY     HO44313   7.222   6.851   2.360 -2.5127  1.7269 -0.0996
17930THY    CA144314   7.148   7.001   2.296 -0.0080 -0.0449  0.6845
17930THY    CA244315   7.141   7.140   2.290  0.1682 -0.4738 -0.0683
17930THY    CP144316   7.205   7.227   2.401 -0.2346  0.3077 -0.0078
17930THY    HP144317   7.267   7.164   2.465  0.9965 -2.2578 -1.5940
17930THY    CP244318   7.103   7.293   2.498  0.0509 -0.1478  0.1310
17930THY    HP244319   7.022   7.226   2.530  0.6328  0.6847 -0.1984
17930THY    HP344320   7.064   7.388   2.460 -0.2249 -0.7490 -0.2175
17930THY    HP444321   7.148   7.318   2.595  1.7097 -0.8050 -0.2309
17930THY    CP344322   7.296   7.332   2.344 -0.6662 -0.0323  0.2802
17930THY    HP544323   7.371   7.371   2.415  1.6762 -2.3079  0.1994
17930THY    HP644324   7.252   7.413   2.285  2.7768 -1.1826  1.5091
17930THY    HP744325   7.357   7.288   2.265 -1.2095  0.2165 -0.9654
17930THY    CA344326   7.059   7.199   2.189 -0.6284 -0.2550  0.4303
17930THY    HA344327   7.048   7.307   2.193 -2.1875 -1.3537  0.3447
17930THY    CA444328   6.976   7.120   2.108 -0.5259 -0.1951  0.6257
17930THY    HA444329   6.908   7.172   2.042  0.9394 -1.0305  1.5640
17930THY    CA544330   6.993   6.975   2.109  0.3300  0.3037  0.4274
17930THY    CM144331   6.912   6.882   2.023 -0.8923 -0.3540 -0.1913
17930THY    HM144332   6.826   6.927   1.973 -0.0993 -0.6446  1.0561
17930THY    HM244333   6.863   6.804   2.081  0.5143  0.5644 -0.4348
17930THY    HM344334   6.978   6.829   1.953 -2.0704 -0.5296 -1.4849
17930THY    CA644335   7.076   6.919   2.209 -0.4691 -0.9130  0.3648
17930THY    HA644336   7.073   6.812   2.223  1.9707 -0.8933  0.2556
17931THY      O44337   7.860   6.595   4.738 -0.3855 -0.6904  0.6998
17931THY     HO44338   7.796   6.668   4.746 -2.2587 -1.3238 -0.8065
17931THY    CA144339   7.961   6.658   4.680  0.1927  0.0832 -0.3959
17931THY    CA244340   8.089   6.601   4.667  0.3134 -0.0793  0.0271
17931THY    CP144341   8.122   6.470   4.744 -0.8943 -0.3467  0.2545
17931THY    HP144342   8.052   6.446   4.825 -1.8644 -1.1966  0.1112
17931THY    CP244343   8.255   6.491   4.827 -1.0428  0.0383 -0.5054
17931THY    HP244344   8.290   6.594   4.819 -2.9332  0.9488  0.2457
17931THY    HP344345   8.339   6.425   4.802 -1.0584  1.4193 -1.0885
17931THY    HP444346   8.240   6.482   4.935  0.2639  0.1541 -1.7511
17931THY    CP344347   8.124   6.336   4.661  0.3230  0.2381 -0.3792
17931THY    HP544348   8.189   6.345   4.573  1.5741  1.1277 -0.5313
17931THY    HP644349   8.023   6.324   4.620  0.9808 -1.3120 -0.8924
17931THY    HP744350   8.150   6.249   4.723 -1.8028  0.6526 -0.7689
17931THY    CA344351   8.176   6.666   4.581 -0.0712  0.1824  0.1854
17931THY    HA344352   8.279   6.633   4.577 -0.1410  0.0258 -0.0159
17931THY    CA444353   8.143   6.793   4.525  0.3240  0.5305  0.3491
17931THY    HA444354   8.205   6.842   4.450  1.0822 -0.6179 -2.2315
17931THY    CA544355   8.018   6.848   4.542  0.5070 -0.9157 -0.5009
17931THY    CM144356   7.990   6.983   4.481 -0.0134  0.5881 -0.0426
17931THY    HM144357   7.932   7.040   4.555  0.3163  0.1752  0.8344
17931THY    HM244358   7.942   6.969   4.384 -0.3461  0.8211 -0.5847
17931THY    HM344359   8.088   7.032   4.472 -0.7964  0.1047  1.4858
17931THY    CA644360   7.929   6.782   4.618 -0.0410 -0.4684  0.1145
17931THY    HA644361   7.826   6.816   4.621 -0.2604 -0.7095 -0.5080
17932THY      O44362   4.749   0.696   7.093  0.1324 -0.1940 -0.1487
17932THY     HO44363   4.795   0.656   7.169  1.3387 -1.6503 -1.7145
17932THY    CA144364   4.640   0.623   7.068  0.5681 -0.4027  0.9101
17932THY    CA244365   4.550   0.664   6.968 -0.2625 -0.0326  0.5599
17932THY    CP144366   4.564   0.805   6.908 -0.6594  0.2174  0.3089
17932THY    HP144367   4.643   0.861   6.959 -0.3012 -0.4513  0.4176
17932THY    CP244368   4.444   0.891   6.912 -0.0290 -0.4219 -0.1886
17932THY    HP244369   4.430   0.928   7.015  0.9529 -0.8496  1.4769
17932THY    HP344370   4.351   0.843   6.880 -0.3185 -0.2830  0.2697
17932THY    HP444371   4.453   0.981   6.850  1.9586 -0.8126 -0.6142
17932THY    CP344372   4.611   0.787   6.760  0.0820 -0.1879  0.4772
17932THY    HP544373   4.533   0.734   6.704 -1.4935 -0.3243  2.7858
17932THY    HP644374   4.701   0.725   6.771 -0.9760 -1.0945 -1.2829
17932THY    HP744375   4.632   0.882   6.708 -0.3370 -0.7961  0.2459
17932THY    CA344376   4.448   0.573   6.916 -0.4750 -0.2972 -0.1823
17932THY    HA344377   4.378   0.597   6.837 -0.2029 -0.3971  0.2994
17932THY    CA444378   4.447   0.450   6.972  0.0426  0.3307  0.0459
17932THY    HA444379   4.383   0.373   6.931  0.5037 -0.7159  0.1987
17932THY    CA544380   4.528   0.415   7.086  0.6098 -0.1378  0.0151
17932THY    CM144381   4.524   0.279   7.142  0.5930  0.6965  0.2963
17932THY    HM144382   4.482   0.211   7.067  0.6033 -0.1186  1.1726
17932THY    HM244383   4.475   0.275   7.240  0.7362  0.7851  0.7325
17932THY    HM344384   4.626   0.244   7.162  0.6726  0.6304  0.4949
17932THY    CA644385   4.618   0.504   7.141 -0.6295  0.1090  0.7398
17932THY    HA644386   4.679   0.471   7.225 -2.2500  1.1301  0.2354
17933THY      O44387   4.059   7.229   1.923  0.0917 -1.0043  0.7720
17933THY     HO44388   4.069   7.231   1.826 -0.7005 -1.0843  1.2642
17933THY    CA144389   3.946   7.159   1.946  0.8097  0.1898 -0.4222
17933THY    CA244390   3.882   7.168   2.069 -0.0036 -0.2748 -0.4532
17933THY    CP144391   3.945   7.240   2.188 -0.4597 -0.0329 -0.1835
17933THY    HP144392   3.990   7.329   2.143 -0.6240 -0.7699 -0.4615
17933THY    CP244393   4.054   7.165   2.253 -1.0283 -0.0025  0.2647
17933THY    HP244394   4.027   7.063   2.280 -1.2262  2.1064  0.8196
17933THY    HP344395   4.102   7.215   2.338  0.9564 -1.3758  0.8694
17933THY    HP444396   4.131   7.153   2.176 -0.9346 -0.0286  0.9486
17933THY    CP344397   3.848   7.292   2.292 -0.4561  0.1280 -0.0951
17933THY    HP544398   3.795   7.217   2.352 -1.3213 -0.0885  0.3411
17933THY    HP644399   3.772   7.350   2.239  1.2116 -1.8710  0.3840
17933THY    HP744400   3.908   7.354   2.360 -1.6969  1.0160  0.1561
17933THY    CA344401   3.763   7.091   2.083  0.0187 -0.0143  0.2847
17933THY    HA344402   3.712   7.091   2.179 -1.3160 -0.6796 -0.8127
17933THY    CA444403   3.726   7.002   1.981  0.1560  0.4945 -0.0947
17933THY    HA444404   3.646   6.929   1.989  2.0702  1.1122 -2.2491
17933THY    CA544405   3.788   6.992   1.856  0.5716 -0.7523 -0.1985
17933THY    CM144406   3.737   6.898   1.751  0.4779  0.0952 -0.7108
17933THY    HM144407   3.631   6.911   1.728  0.3397  1.0194 -0.1223
17933THY    HM244408   3.745   6.799   1.798  0.7551  1.5332 -0.0381
17933THY    HM344409   3.797   6.896   1.659  0.4815  0.0961 -0.6624
17933THY    CA644410   3.896   7.076   1.844 -0.0521 -0.3919 -0.6461
17933THY    HA644411   3.945   7.075   1.747  1.5178  0.3656 -0.0651
17934THY      O44412   4.208   7.666   5.392 -0.2624  0.3360  0.3128
17934THY     HO44413   4.118   7.694   5.416  0.4849  1.2075  2.1649
17934THY    CA144414   4.245   7.579   5.489 -0.2712  0.6363  0.0220
17934THY    CA244415   4.356   7.491   5.475  0.1537 -0.1005  0.5352
17934THY    CP144416   4.427   7.485   5.339 -0.4139  0.5102  0.4855
17934THY    HP144417   4.429   7.581   5.285  0.8926  0.7261  0.6032
17934THY    CP244418   4.369   7.379   5.241  0.0994 -0.2661 -0.0569
17934THY    HP244419   4.394   7.274   5.262  2.4869  2.0263  0.8434
17934THY    HP344420   4.400   7.400   5.138  2.2969  0.0934 -1.2438
17934THY    HP444421   4.262   7.399   5.250  0.1369 -0.2139  0.1296
17934THY    CP344422   4.579   7.450   5.357 -0.4529 -0.0072  0.3582
17934THY    HP544423   4.593   7.355   5.410  1.4358  0.5362  0.8965
17934THY    HP644424   4.623   7.528   5.421  0.7380  0.6875 -0.8401
17934THY    HP744425   4.632   7.445   5.261 -1.0492 -0.4005  1.3396
17934THY    CA344426   4.371   7.398   5.584 -0.3575  0.5744  0.0936
17934THY    HA344427   4.449   7.323   5.582  0.1797 -0.7325  0.6628
17934THY    CA444428   4.269   7.392   5.684 -0.0581  0.6491  0.4579
17934THY    HA444429   4.273   7.324   5.769  0.6969 -1.6126 -2.5265
17934THY    CA544430   4.167   7.488   5.699  0.1839 -0.4717  0.3004
17934THY    CM144431   4.065   7.473   5.812 -0.0972 -0.1382 -0.7253
17934THY    HM144432   4.114   7.468   5.910  2.1483 -1.2154 -1.0772
17934THY    HM244433   4.026   7.372   5.794 -2.2296 -1.3742  0.2373
17934THY    HM344434   3.985   7.546   5.799 -1.9163  1.2268 -2.3566
17934THY    CA644435   4.160   7.579   5.596  0.0994  0.2314  0.1358
17934THY    HA644436   4.079   7.650   5.605 -1.7712 -1.3522 -1.6547
17935THY      O44437   5.130   7.049   5.827 -0.5882  0.2612 -0.1687
17935THY     HO44438   5.120   7.048   5.924  1.4751  0.5824  2.2667
17935THY    CA144439   5.162   7.172   5.779 -0.7229  0.3988 -0.1427
17935THY    CA244440   5.134   7.216   5.647 -0.2732 -0.1700  0.1139
17935THY    CP144441   5.067   7.115   5.550 -0.5156  0.5015  0.0715
17935THY    HP144442   5.046   7.018   5.597  1.5237  2.3498  0.4524
17935THY    CP244443   5.164   7.094   5.435 -0.1361 -0.5233 -0.0687
17935THY    HP244444   5.266   7.067   5.464 -0.4235 -0.4985 -1.1642
17935THY    HP344445   5.160   7.183   5.371 -3.5257 -0.4652 -0.0368
17935THY    HP444446   5.114   7.017   5.375  2.2798 -0.3518 -1.8853
17935THY    CP344447   4.930   7.165   5.502 -0.4484 -0.9758  0.0207
17935THY    HP544448   4.856   7.147   5.581  0.5206 -0.6733 -3.2267
17935THY    HP644449   4.908   7.109   5.411 -2.8785  1.6322 -3.7116
17935THY    HP744450   4.932   7.273   5.484 -1.0920  0.5364  0.3186
17935THY    CA344451   5.174   7.346   5.608 -0.8584 -0.4292  0.2191
17935THY    HA344452   5.152   7.388   5.510 -0.9140 -0.0191  1.1820
17935THY    CA444453   5.235   7.429   5.702  0.2051 -0.4263 -0.0211
17935THY    HA444454   5.253   7.533   5.678 -1.0296 -1.1439  0.0388
17935THY    CA544455   5.244   7.386   5.837  0.6857  0.4683 -0.4342
17935THY    CM144456   5.302   7.468   5.940  0.3604 -0.3764 -0.1972
17935THY    HM144457   5.407   7.437   5.941  0.5018  1.5355  0.2416
17935THY    HM244458   5.253   7.451   6.037 -0.3566 -0.1689  2.5157
17935THY    HM344459   5.306   7.577   5.934 -1.4258 -0.2941 -0.0993
17935THY    CA644460   5.212   7.259   5.874 -0.4986 -0.9683  0.3763
17935THY    HA644461   5.232   7.227   5.976 -0.0483 -1.1261  0.1450
17936THY      O44462   1.252   2.482   6.505  0.2203  0.0184  0.3454
17936THY     HO44463   1.336   2.435   6.516  1.0315 -1.5767  1.3111
17936THY    CA144464   1.276   2.612   6.538 -0.4884 -0.3741 -0.5489
17936THY    CA244465   1.182   2.699   6.615  0.2092  0.2283  0.6463
17936THY    CP144466   1.041   2.648   6.651 -0.1831  0.2459 -0.2748
17936THY    HP144467   1.059   2.550   6.697 -1.6415  0.1591 -0.6031
17936THY    CP244468   0.957   2.617   6.522 -0.0770 -0.4606  0.3295
17936THY    HP244469   1.025   2.564   6.454 -0.7205 -0.7666 -0.1198
17936THY    HP344470   0.917   2.711   6.481  0.4195 -0.3282  0.6033
17936THY    HP444471   0.873   2.555   6.554  0.4567  0.7915  0.2329
17936THY    CP344472   0.956   2.747   6.739 -0.7591 -0.5859  0.6359
17936THY    HP544473   0.860   2.693   6.747 -0.5153 -0.3462  0.2334
17936THY    HP644474   0.934   2.845   6.695 -2.5331 -1.2207 -0.0038
17936THY    HP744475   0.996   2.754   6.841  0.5925 -0.9297 -1.3651
17936THY    CA344476   1.229   2.814   6.661  0.0079  0.0074 -1.2345
17936THY    HA344477   1.159   2.885   6.705 -0.3661 -4.8558  1.9206
17936THY    CA444478   1.361   2.861   6.632  0.3003  0.0837  0.8534
17936THY    HA444479   1.390   2.957   6.674  0.0435 -0.6715  1.2648
17936THY    CA544480   1.445   2.785   6.550  0.6051 -0.1451 -0.4398
17936THY    CM144481   1.584   2.837   6.519 -0.0392  0.3406 -0.2307
17936THY    HM144482   1.576   2.942   6.487 -0.4747  1.1700 -0.0041
17936THY    HM244483   1.626   2.792   6.428  0.0920 -0.2794  1.0924
17936THY    HM344484   1.655   2.819   6.600  0.1357  0.1749 -0.2840
17936THY    CA644485   1.400   2.661   6.504 -0.6248 -0.1503 -0.2588
17936THY    HA644486   1.476   2.604   6.452  0.3131  0.3807  0.4908
17937THY      O44487   3.128   3.499   2.269  0.5797 -0.0387  0.1699
17937THY     HO44488   3.071   3.543   2.334 -2.6355 -2.7466  0.3822
17937THY    CA144489   3.250   3.545   2.295 -0.0177  0.4154  0.5481
17937THY    CA244490   3.342   3.578   2.198 -0.0825  0.6788 -0.1472
17937THY    CP144491   3.303   3.562   2.053  0.0942  0.1934  1.4322
17937THY    HP144492   3.199   3.534   2.032  0.5283 -0.7284  0.4416
17937THY    CP244493   3.377   3.445   1.976 -0.1027 -0.8649 -0.2162
17937THY    HP244494   3.354   3.430   1.870  2.0207 -1.3370 -0.4800
17937THY    HP344495   3.353   3.347   2.021 -1.9471  0.9607  0.9983
17937THY    HP444496   3.485   3.453   1.994 -0.4256  0.2045  2.9657
17937THY    CP344497   3.321   3.693   1.976 -0.6932 -0.2483 -0.2875
17937THY    HP544498   3.253   3.775   2.004 -0.0189 -1.1157  0.5895
17937THY    HP644499   3.300   3.678   1.870  0.3582 -0.3117 -1.3719
17937THY    HP744500   3.422   3.732   1.986 -1.2823  0.2828  1.1693
17937THY    CA344501   3.475   3.608   2.238  0.8238  0.4184  0.3384
17937THY    HA344502   3.545   3.626   2.157 -1.8517 -2.5114 -1.3848
17937THY    CA444503   3.510   3.620   2.371  0.0806  0.4893  0.3998
17937THY    HA444504   3.608   3.659   2.396 -0.5227  0.0699  2.2809
17937THY    CA544505   3.414   3.591   2.470  0.5553  0.2162  0.0683
17937THY    CM144506   3.440   3.627   2.615  0.3742  0.2748 -0.0363
17937THY    HM144507   3.418   3.733   2.632  0.6500 -0.6091  0.1676
17937THY    HM244508   3.543   3.622   2.652 -0.8027  4.2165  0.6340
17937THY    HM344509   3.371   3.565   2.673 -0.2739  1.4416  1.6682
17937THY    CA644510   3.287   3.546   2.435  0.0165 -0.1895  0.0549
17937THY    HA644511   3.223   3.522   2.520  1.5615  1.2599  0.8456
17938THY      O44512   4.979   5.237   4.186 -0.1798  0.4392 -0.3672
17938THY     HO44513   5.036   5.316   4.196  0.8843 -1.5928 -0.8157
17938THY    CA144514   5.029   5.178   4.074 -0.7425 -0.0766 -0.5088
17938THY    CA244515   4.946   5.145   3.963 -0.1391  0.6962 -0.3228
17938THY    CP144516   4.810   5.213   3.964  0.0131 -0.8174  1.0887
17938THY    HP144517   4.812   5.300   4.032  2.6095  1.1972 -0.3911
17938THY    CP244518   4.701   5.116   4.018  0.2707 -0.1270 -0.6595
17938THY    HP244519   4.611   5.178   4.030 -0.8128  0.8529 -2.3608
17938THY    HP344520   4.727   5.089   4.121 -0.8072 -0.1494 -1.8482
17938THY    HP444521   4.684   5.024   3.961 -1.1964  1.3771 -1.3688
17938THY    CP344522   4.763   5.259   3.832  0.0245  0.5868  0.2828
17938THY    HP544523   4.753   5.177   3.760 -0.0991 -0.8685  1.5093
17938THY    HP644524   4.822   5.339   3.784  2.3511 -0.6426 -2.0081
17938THY    HP744525   4.663   5.300   3.849 -1.3503 -3.0864 -1.1386
17938THY    CA344526   4.999   5.084   3.849  0.0657 -0.0425  0.6518
17938THY    HA344527   4.944   5.065   3.757  0.8542 -0.5810  0.9448
17938THY    CA444528   5.137   5.059   3.849 -0.0673 -0.4032 -0.4771
17938THY    HA444529   5.187   5.019   3.762 -0.1780 -1.4243  1.4852
17938THY    CA544530   5.219   5.096   3.954  0.4265 -0.3648  0.5405
17938THY    CM144531   5.361   5.057   3.941 -0.1478 -0.1650 -0.3898
17938THY    HM144532   5.394   4.995   4.025 -1.2203 -0.0598 -0.8331
17938THY    HM244533   5.413   5.152   3.955  0.6125  0.2051 -0.8490
17938THY    HM344534   5.393   5.011   3.847 -0.5941  0.5409 -2.2352
17938THY    CA644535   5.170   5.159   4.071  0.6570  0.2424  0.1546
17938THY    HA644536   5.241   5.181   4.151  0.2021  0.4840  0.7909
17939THY      O44537   5.320   3.798   2.994  0.2110  0.2616 -0.2736
17939THY     HO44538   5.266   3.779   3.074 -0.3848 -0.5084 -2.0806
17939THY    CA144539   5.447   3.804   3.040 -0.0852 -0.9948  0.1803
17939THY    CA244540   5.522   3.922   3.039 -0.1026 -0.1223 -0.1236
17939THY    CP144541   5.475   4.052   2.973  0.0860  0.5105  0.6446
17939THY    HP144542   5.373   4.037   2.935 -1.0616  2.9817  1.6757
17939THY    CP244543   5.567   4.094   2.853 -0.2273  0.3857  0.5900
17939THY    HP244544   5.665   4.129   2.885  0.2568 -0.3517 -0.0478
17939THY    HP344545   5.519   4.174   2.795 -3.0606  2.2742  0.4402
17939THY    HP444546   5.586   4.007   2.790  1.4663 -1.0635  1.9298
17939THY    CP344547   5.456   4.172   3.067 -0.0777  0.1250 -0.0222
17939THY    HP544548   5.556   4.203   3.099 -1.0090  2.6099  0.6176
17939THY    HP644549   5.392   4.149   3.152 -1.1527 -0.3953  0.9514
17939THY    HP744550   5.409   4.253   3.010  0.9581 -1.2542 -0.3415
17939THY    CA344551   5.651   3.921   3.086  0.5804 -0.1105 -1.0148
17939THY    HA344552   5.711   4.012   3.083 -2.0999  0.2177  0.8909
17939THY    CA444553   5.710   3.796   3.124  0.5705  0.2317 -0.3560
17939THY    HA444554   5.812   3.801   3.160 -0.0741  1.9708  2.8092
17939THY    CA544555   5.639   3.678   3.126 -0.0247  0.2881  0.0886
17939THY    CM144556   5.701   3.548   3.159  0.7107  0.9195 -0.6964
17939THY    HM144557   5.732   3.497   3.068 -2.5808 -0.5158 -0.3867
17939THY    HM244558   5.624   3.492   3.213  0.2239 -0.6368 -1.5654
17939THY    HM344559   5.795   3.555   3.216  0.6881  1.1129 -1.8451
17939THY    CA644560   5.501   3.687   3.095  0.1262 -0.2320 -0.0861
17939THY    HA644561   5.439   3.598   3.094  0.6912  0.4093 -0.4963
17940THY      O44562   7.860   4.185   6.659  0.3597  0.0254  0.3206
17940THY     HO44563   7.900   4.150   6.577  1.4881  0.2737  0.9802
17940THY    CA144564   7.927   4.302   6.667  0.5273 -0.2145  0.4246
17940THY    CA244565   7.921   4.383   6.773 -0.9961 -0.0892 -0.0156
17940THY    CP144566   7.823   4.349   6.883 -0.3118 -0.2496  0.9837
17940THY    HP144567   7.738   4.288   6.849  0.1276  1.1070 -0.4458
17940THY    CP244568   7.769   4.471   6.956  0.3524 -0.0714 -0.1765
17940THY    HP244569   7.745   4.552   6.885 -0.0723 -0.2385 -0.4457
17940THY    HP344570   7.840   4.505   7.032  0.2187  1.1740 -2.4817
17940THY    HP444571   7.676   4.433   6.998  0.7833 -0.0641 -1.2570
17940THY    CP344572   7.892   4.255   6.986  0.5884 -0.5349  0.2039
17940THY    HP544573   7.925   4.168   6.927 -1.4468 -1.7184  0.1571
17940THY    HP644574   7.825   4.218   7.065  1.0102 -1.3549 -2.5661
17940THY    HP744575   7.978   4.309   7.027 -0.6339 -0.9891  2.6317
17940THY    CA344576   8.010   4.490   6.791  0.1513  0.1405 -0.0392
17940THY    HA344577   7.996   4.553   6.878 -1.6069  2.7849 -3.7019
17940THY    CA444578   8.090   4.520   6.676 -0.4423 -0.5830  0.0838
17940THY    HA444579   8.153   4.609   6.674  2.0012 -0.6979 -1.5640
17940THY    CA544580   8.094   4.438   6.558  0.1883  0.2640 -0.2384
17940THY    CM144581   8.179   4.463   6.432 -0.2257  0.0591  0.4254
17940THY    HM144582   8.169   4.382   6.359  1.8486  1.3399 -1.0729
17940THY    HM244583   8.288   4.462   6.449  0.5267 -3.9157  0.3137
17940THY    HM344584   8.151   4.555   6.379  0.0932  0.3142  0.6772
17940THY    CA644585   8.015   4.320   6.559 -0.1158  0.2752  0.4657
17940THY    HA644586   8.014   4.255   6.472  0.9432 -0.2703  1.1528
17941THY      O44587   3.979   1.900   5.352 -0.3264  0.9290 -0.0044
17941THY     HO44588   3.884   1.899   5.334 -0.5089  0.9489  3.5579
17941THY    CA144589   4.042   1.926   5.236  0.4972  0.2016  0.5255
17941THY    CA244590   4.161   2.002   5.238  0.1137  0.3888  0.1322
17941THY    CP144591   4.231   2.034   5.365  0.0916 -0.3318  0.6291
17941THY    HP144592   4.168   2.023   5.454 -1.9254 -1.6701  0.8140
17941THY    CP244593   4.279   2.183   5.374 -0.0562 -0.5785 -0.0119
17941THY    HP244594   4.344   2.198   5.461  2.1411 -1.6259 -2.6696
17941THY    HP344595   4.190   2.244   5.389 -1.3081 -1.0076 -1.6679
17941THY    HP444596   4.327   2.224   5.284 -0.8513 -0.4824  1.1911
17941THY    CP344597   4.367   1.956   5.373  0.2066  0.2453 -0.3476
17941THY    HP544598   4.453   1.976   5.308 -1.2070 -1.7302 -0.3989
17941THY    HP644599   4.344   1.850   5.390 -0.8635  1.5415  0.0627
17941THY    HP744600   4.400   1.977   5.476 -0.6234  0.4036  0.2376
17941THY    CA344601   4.211   2.048   5.115  0.2880 -0.1537 -0.2342
17941THY    HA344602   4.303   2.106   5.108 -0.3352  1.7974  1.1139
17941THY    CA444603   4.146   2.014   4.992  0.2998  0.1260  0.1558
17941THY    HA444604   4.192   2.032   4.896  2.7337  0.6557 -2.5556
17941THY    CA544605   4.025   1.939   4.996  0.1479  0.4954 -0.5871
17941THY    CM144606   3.953   1.914   4.869  0.8542 -0.0898  0.3265
17941THY    HM144607   3.846   1.920   4.889  0.6632 -0.6495 -0.8326
17941THY    HM244608   3.951   1.809   4.837 -2.6253 -1.3913  0.6508
17941THY    HM344609   3.991   1.969   4.782  3.0285  0.6531  0.1239
17941THY    CA644610   3.969   1.899   5.117  0.3215 -0.0015 -0.0177
17941THY    HA644611   3.880   1.837   5.115  0.2055 -2.5636  0.1295
17942THY      O44612   6.841   3.069   3.320 -0.2258 -0.0452  0.2293
17942THY     HO44613   6.840   2.978   3.354 -1.1218  0.3734  0.3838
17942THY    CA144614   6.914   3.142   3.407 -0.0012 -0.0129  0.4782
17942THY    CA244615   6.993   3.247   3.364  0.1726  0.7286  0.7365
17942THY    CP144616   6.998   3.276   3.217  0.0557 -0.0801 -0.5105
17942THY    HP144617   6.908   3.242   3.164  0.9587 -1.1303 -1.3165
17942THY    CP244618   7.113   3.205   3.156 -0.7480  0.1227 -0.2987
17942THY    HP244619   7.207   3.251   3.189 -0.8549 -1.8168  1.4409
17942THY    HP344620   7.108   3.215   3.047 -0.8114  0.3098  2.4262
17942THY    HP444621   7.115   3.103   3.196 -1.4061 -1.1038 -0.8124
17942THY    CP344622   7.017   3.424   3.184 -0.0288  0.2984 -0.5446
17942THY    HP544623   6.934   3.485   3.222  0.2004  1.5082 -0.9697
17942THY    HP644624   7.018   3.438   3.075 -0.5040  0.2938 -0.5294
17942THY    HP744625   7.108   3.465   3.228  0.7515  0.0728 -1.9834
17942THY    CA344626   7.079   3.307   3.461  0.6878  0.4394  0.2563
17942THY    HA344627   7.153   3.380   3.428  2.4339  2.9289 -0.2654
17942THY    CA444628   7.067   3.276   3.597  0.4681  0.7434  0.2099
17942THY    HA444629   7.123   3.333   3.670  2.6922  0.2502 -1.2278
17942THY    CA544630   6.968   3.182   3.633  0.1409 -0.3954 -0.2997
17942THY    CM144631   6.932   3.167   3.777 -0.2168 -0.4426 -0.2011
17942THY    HM144632   7.023   3.166   3.837  1.3584 -2.7010  0.0061
17942THY    HM244633   6.861   3.083   3.786 -2.4359 -1.3602  1.4689
17942THY    HM344634   6.875   3.254   3.811 -1.1174 -1.4547 -0.3825
17942THY    CA644635   6.899   3.111   3.540 -0.7151 -0.3123  0.0069
17942THY    HA644636   6.839   3.031   3.583 -0.7849  1.3210  0.8842
17943THY      O44637   7.349   4.291   3.141  0.1150 -0.3947  0.6910
17943THY     HO44638   7.365   4.204   3.184  0.8775  1.2814  1.6086
17943THY    CA144639   7.323   4.269   3.011  0.0070 -0.1676  0.1053
17943THY    CA244640   7.253   4.368   2.943  0.8496 -0.6039  0.0206
17943THY    CP144641   7.188   4.491   3.015 -0.3662  0.0756 -0.7024
17943THY    HP144642   7.236   4.519   3.110  2.4313 -1.8709  1.8397
17943THY    CP244643   7.039   4.460   3.039 -0.4716  0.4266 -0.1192
17943THY    HP244644   6.997   4.550   3.087  0.1782 -1.6571  1.3629
17943THY    HP344645   7.039   4.372   3.104  1.3713 -0.2824 -0.6774
17943THY    HP444646   6.975   4.454   2.950 -0.1658 -0.1766  3.2417
17943THY    CP344647   7.200   4.623   2.925 -0.2799 -0.1258  0.1607
17943THY    HP544648   7.120   4.629   2.850 -0.3572 -0.1352 -0.8838
17943THY    HP644649   7.301   4.637   2.886  0.1219  0.6933 -0.3947
17943THY    HP744650   7.182   4.715   2.982  1.2828  0.3328  0.2109
17943THY    CA344651   7.221   4.348   2.805  0.1243 -0.1398  1.5457
17943THY    HA344652   7.162   4.418   2.747  1.7040 -0.3707  2.7351
17943THY    CA444653   7.268   4.230   2.737  0.4365  0.2433 -0.6735
17943THY    HA444654   7.230   4.208   2.638  1.8887 -1.1245  2.3635
17943THY    CA544655   7.342   4.134   2.809  0.4316  0.0612  0.4594
17943THY    CM144656   7.395   4.010   2.742  0.0771 -0.3285 -0.2899
17943THY    HM144657   7.326   3.936   2.785 -0.8104 -2.8957 -1.0694
17943THY    HM244658   7.500   4.003   2.774 -0.4660  1.4707 -0.8440
17943THY    HM344659   7.386   4.012   2.633 -1.6200 -0.2002  1.5082
17943THY    CA644660   7.373   4.156   2.945  0.2064 -0.0081 -0.5573
17943THY    HA644661   7.427   4.080   3.001 -0.0307  1.8230  0.5716
17944THY      O44662   4.302   4.590   5.157 -0.4828 -0.1253  0.0747
17944THY     HO44663   4.236   4.525   5.128  1.3411 -0.1025 -1.8982
17944THY    CA144664   4.387   4.592   5.053  0.2185 -0.0495 -0.0778
17944THY    CA244665   4.476   4.699   5.025  0.4565  1.0824  0.4764
17944THY    CP144666   4.475   4.815   5.118 -0.7615 -0.2998 -0.7398
17944THY    HP144667   4.432   4.793   5.216  0.7240  0.2125 -1.5211
17944THY    CP244668   4.406   4.944   5.065 -0.7604 -0.2427 -0.3893
17944THY    HP244669   4.424   4.971   4.960 -2.7425 -0.2123  1.3221
17944THY    HP344670   4.430   5.033   5.124 -1.3117 -1.3829  0.5419
17944THY    HP444671   4.298   4.930   5.079 -0.5771 -0.1498 -1.8084
17944THY    CP344672   4.616   4.854   5.158 -0.9736 -0.2018 -0.0471
17944THY    HP544673   4.692   4.865   5.079  2.0009  2.2815 -1.1855
17944THY    HP644674   4.655   4.775   5.222  0.7773 -1.0976  0.0444
17944THY    HP744675   4.619   4.947   5.216 -2.4697  0.7763 -0.5701
17944THY    CA344676   4.544   4.692   4.903  0.4947  0.1822  0.4582
17944THY    HA344677   4.602   4.779   4.872  1.4188 -0.6036 -0.4136
17944THY    CA444678   4.547   4.577   4.820  0.1033 -0.2472  0.1338
17944THY    HA444679   4.620   4.570   4.740  0.3051 -0.0437 -0.1157
17944THY    CA544680   4.461   4.471   4.854 -0.3563 -0.2425 -0.6642
17944THY    CM144681   4.459   4.340   4.784 -0.3877  0.0329  0.8810
17944THY    HM144682   4.359   4.296   4.784  0.0962  1.4518 -0.3249
17944THY    HM244683   4.521   4.261   4.827 -0.6616 -2.0493 -0.5353
17944THY    HM344684   4.479   4.348   4.677  0.9057  0.2058  0.3073
17944THY    CA644685   4.378   4.486   4.963  0.4414 -0.4884 -0.4261
17944THY    HA644686   4.319   4.396   4.984  2.2451 -1.9245 -2.0267
17945THY      O44687   7.935   4.022   6.432  0.2802  0.4500  0.2218
17945THY     HO44688   8.002   3.973   6.484 -0.1778  0.1068 -0.7920
17945THY    CA144689   7.912   3.952   6.328  0.0695 -0.1238  0.0068
17945THY    CA244690   7.832   3.996   6.226  0.9113 -0.5522 -0.1156
17945THY    CP144691   7.755   4.128   6.244 -0.1482 -0.1291  0.0372
17945THY    HP144692   7.751   4.151   6.351 -2.1222  0.1456 -1.2869
17945THY    CP244693   7.611   4.120   6.204  0.4498 -0.3274  0.3144
17945THY    HP244694   7.601   4.116   6.095  1.1435 -0.3923  0.1133
17945THY    HP344695   7.560   4.213   6.231  0.5837  0.9456  0.0289
17945THY    HP444696   7.575   4.027   6.250  0.4779 -0.5030  0.2156
17945THY    CP344697   7.822   4.236   6.163 -0.2070 -0.0588  0.0931
17945THY    HP544698   7.829   4.199   6.061 -0.5175 -0.1855  0.3823
17945THY    HP644699   7.919   4.245   6.215 -1.8584  3.1290  1.1953
17945THY    HP744700   7.780   4.335   6.184  0.6398  1.1913  0.2253
17945THY    CA344701   7.806   3.920   6.111 -0.1441 -0.8678 -0.0738
17945THY    HA344702   7.736   3.954   6.035  1.6544 -2.6288 -0.1779
17945THY    CA444703   7.871   3.801   6.100 -0.8208 -0.4874  0.3743
17945THY    HA444704   7.862   3.738   6.012  3.2183  0.1831 -1.4595
17945THY    CA544705   7.955   3.754   6.203  0.2601  0.2691 -0.0767
17945THY    CM144706   8.034   3.627   6.193 -0.7833 -0.4087  0.8769
17945THY    HM144707   8.128   3.619   6.248 -1.7768  1.1179 -1.1285
17945THY    HM244708   8.055   3.618   6.085 -0.1005 -0.2343  0.3055
17945THY    HM344709   7.978   3.539   6.228 -0.7491 -1.6883  0.3211
17945THY    CA644710   7.975   3.831   6.317 -0.6606  0.5113 -0.5152
17945THY    HA644711   8.039   3.798   6.398  1.9555 -1.1985  0.1238
17946THY      O44712   9.003   7.244   3.362 -1.0035  0.1090  0.2788
17946THY     HO44713   8.978   7.338   3.365  0.5771  0.6342  0.7131
17946THY    CA144714   9.137   7.236   3.382  0.4244 -0.1136 -0.2989
17946THY    CA244715   9.205   7.115   3.391 -0.1244  0.1535  0.4233
17946THY    CP144716   9.127   6.980   3.396  0.0173  0.2526  0.9228
17946THY    HP144717   9.032   6.988   3.342  0.1180 -0.5292 -2.0768
17946THY    CP244718   9.092   6.934   3.539 -0.2830  0.2542 -0.3776
17946THY    HP244719   9.032   7.007   3.595 -2.1450 -1.2222 -0.6801
17946THY    HP344720   9.182   6.912   3.597 -1.7988  2.0777 -2.2051
17946THY    HP444721   9.034   6.842   3.527 -0.3147 -1.3087 -0.1727
17946THY    CP344722   9.199   6.861   3.321  0.1393 -0.3341 -0.5544
17946THY    HP544723   9.206   6.888   3.215 -1.3308 -0.6901 -1.4735
17946THY    HP644724   9.134   6.773   3.322  1.4141 -1.9361 -1.5641
17946THY    HP744725   9.298   6.842   3.363  0.4369 -0.9752 -0.4426
17946THY    CA344726   9.342   7.113   3.398  0.4810 -0.2131 -0.0782
17946THY    HA344727   9.400   7.022   3.397  1.4306 -2.1161  0.4826
17946THY    CA444728   9.407   7.238   3.407 -0.2929 -0.8106 -0.4360
17946THY    HA444729   9.515   7.241   3.414 -0.3940  0.6938  0.3923
17946THY    CA544730   9.333   7.355   3.412 -0.0491  0.1836 -0.0176
17946THY    CM144731   9.397   7.485   3.431  0.1162  0.7202 -0.4414
17946THY    HM144732   9.322   7.564   3.417 -1.5127  0.2196 -1.9892
17946THY    HM244733   9.474   7.496   3.354 -0.6678 -0.1092 -0.6466
17946THY    HM344734   9.435   7.496   3.533  0.9313  0.1862  2.4653
17946THY    CA644735   9.198   7.354   3.396 -0.0286 -0.7215  1.0708
17946THY    HA644736   9.135   7.442   3.386  0.7649  3.6985  2.4118
17947THY      O44737   6.497   9.007   6.713  0.3223  0.4946 -0.0273
17947THY     HO44738   6.524   9.099   6.698 -0.1645  0.0216  0.0456
17947THY    CA144739   6.489   8.986   6.848  0.3334  0.4044  0.6584
17947THY    CA244740   6.473   8.852   6.897  0.4655 -0.6325  0.3510
17947THY    CP144741   6.484   8.732   6.801 -0.5935  0.1426 -0.0079
17947THY    HP144742   6.419   8.755   6.715 -0.7492  0.0018 -0.9321
17947THY    CP244743   6.441   8.595   6.864 -1.0256 -0.0345 -0.4269
17947THY    HP244744   6.514   8.571   6.942  1.1935 -0.8499  3.0179
17947THY    HP344745   6.442   8.516   6.788 -1.8765 -0.0662 -0.4168
17947THY    HP444746   6.340   8.611   6.905  0.9670  4.8806  1.7412
17947THY    CP344747   6.626   8.718   6.740 -0.4761 -0.1362 -0.3298
17947THY    HP544748   6.617   8.648   6.657 -0.3725  0.5178 -1.1317
17947THY    HP644749   6.701   8.678   6.809 -0.6680 -0.1755 -0.7672
17947THY    HP744750   6.681   8.803   6.698  1.0465 -2.1784 -2.2176
17947THY    CA344751   6.448   8.834   7.042 -0.3243  0.6542  0.4577
17947THY    HA344752   6.442   8.736   7.088 -2.0173 -1.2187 -0.3959
17947THY    CA444753   6.446   8.945   7.125 -0.1017 -0.1182 -0.1754
17947THY    HA444754   6.446   8.928   7.232  1.2789 -0.0762 -0.0097
17947THY    CA544755   6.475   9.073   7.073  0.1163  0.5003 -0.1739
17947THY    CM144756   6.482   9.181   7.183  0.2531 -0.1616 -0.0870
17947THY    HM144757   6.525   9.146   7.277  2.9236 -1.2242  0.1580
17947THY    HM244758   6.386   9.233   7.197 -0.2788  0.7151 -1.2710
17947THY    HM344759   6.553   9.255   7.144  0.5225 -0.2754 -0.4083
17947THY    CA644760   6.487   9.093   6.936 -0.3691 -0.1787 -1.1847
17947THY    HA644761   6.491   9.197   6.907 -1.7587 -1.1642 -1.3791
17948THY      O44762   3.019   4.130   5.735 -0.3940  0.3025  0.2177
17948THY     HO44763   2.987   4.207   5.684  0.3803 -0.0008  0.3485
17948THY    CA144764   2.926   4.094   5.824  0.2281  0.3229 -0.3254
17948THY    CA244765   2.936   3.986   5.914  0.2079 -0.3315  0.1300
17948THY    CP144766   3.071   3.910   5.911 -0.0461  0.0420 -0.1322
17948THY    HP144767   3.137   3.945   5.831 -0.0244  0.5214  0.9780
17948THY    CP244768   3.062   3.761   5.879 -0.1833 -0.5501 -0.0124
17948THY    HP244769   3.014   3.750   5.780  0.1342 -0.9409  1.8461
17948THY    HP344770   3.003   3.708   5.954  3.1103  1.9308 -0.4693
17948THY    HP444771   3.163   3.721   5.890 -0.0485 -2.0495 -0.1477
17948THY    CP344772   3.142   3.934   6.041  0.8335  0.2464 -0.4381
17948THY    HP544773   3.082   3.885   6.119  0.7830  0.2036 -0.4441
17948THY    HP644774   3.141   4.039   6.072  0.9648 -1.0976 -0.0296
17948THY    HP744775   3.247   3.901   6.046  0.5929  0.5682 -1.1988
17948THY    CA344776   2.829   3.948   6.005 -0.3295  0.2496 -0.0921
17948THY    HA344777   2.836   3.865   6.074 -1.6239  0.3148 -0.1758
17948THY    CA444778   2.717   4.028   6.005 -0.2640  0.4143 -0.8584
17948THY    HA444779   2.630   3.999   6.063  0.2343  0.5633 -2.1037
17948THY    CA544780   2.698   4.132   5.908 -0.5672  0.2535  0.1829
17948THY    CM144781   2.559   4.202   5.895 -0.1175  0.0141 -0.0158
17948THY    HM144782   2.523   4.169   5.797 -0.4806 -0.6351  2.1264
17948THY    HM244783   2.563   4.312   5.889 -0.2594 -0.2626 -0.0250
17948THY    HM344784   2.485   4.169   5.969 -0.3418 -0.6643 -1.0739
17948THY    CA644785   2.808   4.166   5.826  0.3846  0.4353  0.5170
17948THY    HA644786   2.786   4.242   5.751 -0.8555 -1.3936 -1.4966
17949THY      O44787   3.739   7.957   4.019  0.3020  0.0068 -0.6710
17949THY     HO44788   3.729   7.926   4.110 -1.2135  0.8930  2.0702
17949THY    CA144789   3.608   7.960   3.970 -0.5971  0.1826  0.2505
17949THY    CA244790   3.555   8.079   3.928 -0.2398  0.0299 -1.5384
17949THY    CP144791   3.632   8.210   3.926 -0.2912 -0.2169  0.4891
17949THY    HP144792   3.739   8.186   3.924 -0.5621 -2.0325 -0.7582
17949THY    CP244793   3.614   8.279   4.060 -0.5294 -0.8305 -0.1019
17949THY    HP244794   3.637   8.209   4.141  1.2161 -0.0321  1.3058
17949THY    HP344795   3.511   8.315   4.070 -1.4199 -0.3216 -2.6008
17949THY    HP444796   3.684   8.363   4.066 -2.0765 -1.0323  1.2413
17949THY    CP344797   3.596   8.310   3.816 -0.2135 -0.5438  0.2829
17949THY    HP544798   3.673   8.388   3.820  1.5894  3.1501 -1.4577
17949THY    HP644799   3.491   8.341   3.825  0.0903  2.8380  0.7099
17949THY    HP744800   3.614   8.261   3.719 -0.6079 -0.9275  0.8787
17949THY    CA344801   3.417   8.074   3.888  0.3760  0.2633  0.1346
17949THY    HA344802   3.363   8.161   3.850  1.4038  0.8699  1.0594
17949THY    CA444803   3.347   7.954   3.893  0.9081  0.0832  0.6301
17949THY    HA444804   3.244   7.955   3.858  1.1346 -0.6017  0.2808
17949THY    CA544805   3.406   7.830   3.937 -0.8725 -1.3868 -0.5067
17949THY    CM144806   3.324   7.709   3.961 -0.5046  0.4125 -0.2548
17949THY    HM144807   3.224   7.722   3.918 -0.1723  0.0931  1.3469
17949THY    HM244808   3.312   7.673   4.064 -0.7886  0.8169  0.9486
17949THY    HM344809   3.357   7.625   3.899 -0.1851 -1.5909  1.2945
17949THY    CA644810   3.540   7.838   3.978 -0.0682 -0.3104  0.2962
17949THY    HA644811   3.602   7.753   4.006 -0.8840  0.2485 -0.1297
17950THY      O44812   4.449   2.481   2.505 -0.2219 -0.1366  0.4758
17950THY     HO44813   4.490   2.403   2.546 -2.2373  0.5607 -0.2919
17950THY    CA144814   4.531   2.564   2.457 -0.3374 -0.4102  0.3318
17950THY    CA244815   4.529   2.602   2.315  0.9246 -0.3893  0.1491
17950THY    CP144816   4.426   2.552   2.214  0.1589  0.3457  0.2031
17950THY    HP144817   4.332   2.529   2.267 -0.5331 -1.3978 -1.2266
17950THY    CP244818   4.472   2.418   2.147  0.0532 -0.8756  0.3690
17950THY    HP244819   4.397   2.390   2.072 -0.7699 -0.7254  2.0069
17950THY    HP344820   4.473   2.343   2.227 -0.4194  0.8302  2.0916
17950THY    HP444821   4.571   2.423   2.102  0.3367 -0.3640 -0.4965
17950THY    CP344822   4.394   2.657   2.102  0.1063 -0.1207  0.0528
17950THY    HP544823   4.398   2.760   2.139  0.9366  0.0374 -0.0270
17950THY    HP644824   4.297   2.647   2.052  0.3321 -1.0445  2.0326
17950THY    HP744825   4.477   2.648   2.031 -0.7336 -1.4188  2.0205
17950THY    CA344826   4.634   2.686   2.273 -0.4715 -0.1717  0.1459
17950THY    HA344827   4.662   2.708   2.171 -0.5483 -0.5198 -1.2456
17950THY    CA444828   4.728   2.730   2.363  0.6726  0.3419 -0.4473
17950THY    HA444829   4.802   2.801   2.327  1.6410  1.1291 -1.0368
17950THY    CA544830   4.737   2.688   2.497  0.2749 -0.1025  0.0999
17950THY    CM144831   4.845   2.735   2.595  0.1760 -0.5931  0.4446
17950THY    HM144832   4.920   2.788   2.535 -0.4059  0.5668  2.6941
17950THY    HM244833   4.895   2.650   2.643  1.7565  0.2337  1.7975
17950THY    HM344834   4.805   2.789   2.682  1.2053  0.3590 -0.2986
17950THY    CA644835   4.639   2.602   2.543  0.3849  0.3281 -0.4318
17950THY    HA644836   4.634   2.577   2.649 -1.6337  0.6523  1.0377
17951THY      O44837   1.710   8.187   4.659  0.5612  0.2113  0.3160
17951THY     HO44838   1.619   8.219   4.647  0.1024  1.5722 -0.4126
17951THY    CA144839   1.791   8.274   4.597  0.1076 -1.0233 -0.3417
17951THY    CA244840   1.929   8.251   4.595  0.4420  0.0355  0.5948
17951THY    CP144841   1.997   8.121   4.643  0.0689 -0.1447 -0.3046
17951THY    HP144842   1.931   8.073   4.716  1.0257  1.0288  0.1219
17951THY    CP244843   2.128   8.154   4.725  0.5120  0.7130 -0.8008
17951THY    HP244844   2.209   8.180   4.656  0.0972 -0.1657 -1.7521
17951THY    HP344845   2.158   8.057   4.767 -2.3596 -1.4316 -2.8196
17951THY    HP444846   2.113   8.223   4.809  0.1173 -1.5299  2.0405
17951THY    CP344847   2.031   8.024   4.521 -0.3950 -0.1072  0.1971
17951THY    HP544848   2.073   7.930   4.560 -3.0344 -0.3479 -1.1706
17951THY    HP644849   2.096   8.065   4.443  0.3449  0.0897 -0.5736
17951THY    HP744850   1.943   7.990   4.465 -0.2923 -0.0403 -0.1876
17951THY    CA344851   2.007   8.358   4.543 -0.9158  0.8379 -0.3101
17951THY    HA344852   2.115   8.350   4.542 -0.9166  0.2179 -0.2856
17951THY    CA444853   1.949   8.474   4.488 -0.4515 -0.5055 -0.5485
17951THY    HA444854   2.013   8.552   4.446  3.5080  2.8115 -1.6835
17951THY    CA544855   1.809   8.489   4.485 -0.6434  0.7008  0.2177
17951THY    CM144856   1.743   8.612   4.422  0.2877 -0.2019 -0.2847
17951THY    HM144857   1.676   8.587   4.339  0.2002 -0.6462  1.3192
17951THY    HM244858   1.819   8.687   4.401  1.9781  4.1291 -0.4923
17951THY    HM344859   1.678   8.652   4.501  0.2270  0.4101 -1.5350
17951THY    CA644860   1.735   8.386   4.541 -0.4497 -0.2187  0.1111
17951THY    HA644861   1.627   8.402   4.546 -0.3923  0.9127  0.1927
17952THY      O44862   8.912   7.332   6.155  0.0235 -0.0412  0.0479
17952THY     HO44863   8.891   7.263   6.220 -0.4060  0.8241  0.9643
17952THY    CA144864   8.858   7.289   6.043 -0.1763 -0.4761  0.2764
17952THY    CA244865   8.899   7.335   5.911  0.5464  0.4437 -0.4784
17952THY    CP144866   9.010   7.442   5.884  0.3068 -1.2635 -0.3511
17952THY    HP144867   9.063   7.469   5.977  1.0642 -2.0143  0.8226
17952THY    CP244868   8.952   7.576   5.829 -0.4265  0.3600 -0.1554
17952THY    HP244869   8.981   7.587   5.724  0.8699  0.6343 -0.7696
17952THY    HP344870   9.001   7.661   5.878 -0.7889  0.7087 -0.1433
17952THY    HP444871   8.843   7.569   5.834 -0.2943  1.6918 -1.7953
17952THY    CP344872   9.125   7.404   5.791 -0.3086  0.5559  0.2918
17952THY    HP544873   9.089   7.353   5.702 -1.4540 -0.1019  2.1422
17952THY    HP644874   9.188   7.342   5.857  1.6676 -0.4896  1.0761
17952THY    HP744875   9.191   7.490   5.772  0.6886 -1.4823 -0.8480
17952THY    CA344876   8.835   7.284   5.802  0.4385  0.1994  0.6988
17952THY    HA344877   8.855   7.325   5.703 -0.7222 -0.5764 -0.5075
17952THY    CA444878   8.735   7.186   5.814 -0.1978 -0.5160 -0.4564
17952THY    HA444879   8.694   7.148   5.721  0.8169 -0.7566 -1.0081
17952THY    CA544880   8.689   7.144   5.933  0.6425 -0.8303  0.4647
17952THY    CM144881   8.570   7.060   5.940  0.5490 -0.3557 -0.0012
17952THY    HM144882   8.518   7.064   6.036  0.6277 -0.2029 -1.7815
17952THY    HM244883   8.597   6.957   5.914 -0.0788 -0.2655 -0.1952
17952THY    HM344884   8.500   7.089   5.860  2.1546 -1.9272 -0.2747
17952THY    CA644885   8.759   7.189   6.051  0.0809 -0.5041  0.3832
17952THY    HA644886   8.727   7.145   6.145 -0.2509 -0.6018  0.4193
17953THY      O44887   5.249   6.973   1.928  0.6908 -0.7883  0.6292
17953THY     HO44888   5.302   7.048   1.959 -0.1660 -0.3486  1.0713
17953THY    CA144889   5.213   6.905   2.042  0.3762  0.0662  0.5836
17953THY    CA244890   5.170   6.769   2.035  0.5296  0.1806 -0.0835
17953THY    CP144891   5.166   6.696   1.898  0.0966  0.6958 -0.0742
17953THY    HP144892   5.159   6.763   1.810 -1.3750 -0.8420 -2.1219
17953THY    CP244893   5.043   6.609   1.881 -0.8546 -0.0869  0.1861
17953THY    HP244894   5.031   6.548   1.790 -0.6419  1.1537 -1.7948
17953THY    HP344895   4.956   6.675   1.893 -0.0681 -2.2230  1.7416
17953THY    HP444896   5.056   6.535   1.961  1.7273  0.9270  1.5994
17953THY    CP344897   5.293   6.618   1.875 -0.0730  0.1931  0.4623
17953THY    HP544898   5.299   6.530   1.939  0.0119  0.5106  0.6948
17953THY    HP644899   5.393   6.663   1.879 -0.1288  0.3120  0.5795
17953THY    HP744900   5.278   6.575   1.776  0.6363  0.0795  0.4638
17953THY    CA344901   5.135   6.705   2.159 -0.3633  0.0783  0.5062
17953THY    HA344902   5.100   6.602   2.162 -0.3216 -0.8711  0.4563
17953THY    CA444903   5.132   6.787   2.272 -0.3834 -0.1215 -0.1026
17953THY    HA444904   5.112   6.739   2.367  0.2442 -1.1987 -2.6841
17953THY    CA544905   5.190   6.913   2.284  0.6643  0.6501 -1.2034
17953THY    CM144906   5.222   6.972   2.413  0.3238  0.2418 -0.1379
17953THY    HM144907   5.204   6.902   2.496  1.0672 -1.0009 -1.8867
17953THY    HM244908   5.156   7.055   2.439 -0.0522  1.0220 -0.6665
17953THY    HM344909   5.327   7.001   2.402  0.0961 -0.9475  0.2820
17953THY    CA644910   5.227   6.976   2.165  0.4308 -0.4807  1.1489
17953THY    HA644911   5.270   7.075   2.158  0.1847 -1.3719  1.1957
17954THY      O44912   1.869   8.198   4.285 -0.1076 -0.4397 -0.5834
17954THY     HO44913   1.904   8.234   4.368  2.2866 -1.0893 -1.1898
17954THY    CA144914   1.982   8.154   4.222 -0.5881 -0.2545 -0.5805
17954THY    CA244915   1.984   8.026   4.166  1.0955  0.3417 -0.2467
17954THY    CP144916   1.853   7.951   4.140  0.5131 -0.4055 -0.3454
17954THY    HP144917   1.767   8.017   4.153  0.8009 -0.0194 -0.0434
17954THY    CP244918   1.838   7.831   4.222  0.4453 -0.4525  0.3572
17954THY    HP244919   1.855   7.842   4.330 -3.6902  0.9349 -3.8078
17954THY    HP344920   1.900   7.748   4.187  0.1360 -2.6675  0.9963
17954THY    HP444921   1.730   7.812   4.225  0.4401  0.9497  0.5260
17954THY    CP344922   1.826   7.915   3.987 -0.1220  0.6032  0.0726
17954THY    HP544923   1.732   7.861   3.976 -0.6715  2.5633  0.5606
17954THY    HP644924   1.908   7.846   3.962 -0.1658  0.3249  0.1196
17954THY    HP744925   1.817   8.001   3.919  1.0997  0.1819 -0.1082
17954THY    CA344926   2.112   7.977   4.118  0.1852  0.2177 -0.7245
17954THY    HA344927   2.116   7.880   4.069  0.9093 -1.4892  0.1131
17954THY    CA444928   2.222   8.066   4.113 -0.1856  0.5919  0.6575
17954THY    HA444929   2.319   8.031   4.078 -1.2857 -0.5678 -1.3952
17954THY    CA544930   2.215   8.186   4.185  0.4767 -0.2234  0.5214
17954THY    CM144931   2.338   8.266   4.208  0.2672 -0.1036 -0.6681
17954THY    HM144932   2.372   8.309   4.113  3.4933  0.9270 -0.6811
17954THY    HM244933   2.423   8.209   4.247  2.0303 -1.5271  0.8439
17954THY    HM344934   2.308   8.346   4.277  1.1853  1.0132 -1.2600
17954THY    CA644935   2.095   8.232   4.229  0.4055 -0.1798  0.5619
17954THY    HA644936   2.088   8.330   4.275  1.8893 -0.4555  0.8256
17955THY      O44937   7.239   7.920   5.117  0.1264 -0.0979  0.4711
17955THY     HO44938   7.321   7.894   5.162 -0.6948  1.0186 -0.2936
17955THY    CA144939   7.140   7.932   5.212 -0.1481 -0.1959  0.8417
17955THY    CA244940   7.007   7.964   5.183 -0.1063  0.6282 -0.0144
17955THY    CP144941   6.964   7.978   5.029  0.0960 -0.3914  0.1913
17955THY    HP144942   7.039   8.015   4.958 -0.3132  0.0033  1.8498
17955THY    CP244943   6.837   8.062   5.009  0.3440  0.2304  0.6172
17955THY    HP244944   6.823   8.081   4.901  0.3299  0.3642  1.4139
17955THY    HP344945   6.835   8.160   5.057  1.3877  0.3184  0.6117
17955THY    HP444946   6.750   8.010   5.050 -0.0248  2.8709  3.0814
17955THY    CP344947   6.924   7.835   4.990 -0.0536  0.2060 -0.2688
17955THY    HP544948   6.876   7.785   5.075  3.3740  3.5541  1.5553
17955THY    HP644949   7.019   7.782   4.974  0.8162  1.0548  0.9565
17955THY    HP744950   6.871   7.839   4.895  1.8418 -0.8791  2.8631
17955THY    CA344951   6.922   7.992   5.289  0.3188 -0.4815  0.0166
17955THY    HA344952   6.819   8.017   5.265  0.2467  1.0702  1.3767
17955THY    CA444953   6.960   7.990   5.420  0.5556 -0.0612 -0.5713
17955THY    HA444954   6.879   8.006   5.491  0.0185 -1.0094  1.1930
17955THY    CA544955   7.096   7.965   5.447  0.3121  0.9550 -0.5196
17955THY    CM144956   7.142   7.960   5.586 -0.3535  0.5543 -0.3721
17955THY    HM144957   7.075   7.909   5.655  1.2384  1.1128 -1.7946
17955THY    HM244958   7.145   8.065   5.620  1.0098 -0.0887 -0.1778
17955THY    HM344959   7.240   7.912   5.599  0.1067 -0.4209  0.2700
17955THY    CA644960   7.188   7.936   5.344 -0.3083 -0.2252 -0.0535
17955THY    HA644961   7.291   7.919   5.374 -0.4944 -0.1043 -1.0624
17956THY      O44962   5.457   5.187   5.371  0.4135 -0.2106  0.4732
17956THY     HO44963   5.366   5.220   5.362 -0.0550  0.3381 -0.6237
17956THY    CA144964   5.534   5.227   5.264  0.0382 -0.3239 -0.1103
17956THY    CA244965   5.655   5.303   5.272 -0.0791  0.3680  0.0380
17956THY    CP144966   5.709   5.340   5.407  0.2822  0.6946  0.4517
17956THY    HP144967   5.662   5.266   5.473 -0.4356 -1.3777 -1.0581
17956THY    CP244968   5.644   5.468   5.450 -0.1743 -0.0248 -0.0001
17956THY    HP244969   5.690   5.547   5.390  1.3442 -1.8794 -2.1396
17956THY    HP344970   5.674   5.485   5.554 -1.4605  0.7126 -1.8359
17956THY    HP444971   5.535   5.460   5.459 -0.1796 -1.3602 -3.1239
17956THY    CP344972   5.867   5.329   5.421  0.0585  0.2401  0.1492
17956THY    HP544973   5.881   5.334   5.529  1.3740  0.0316  2.2361
17956THY    HP644974   5.921   5.414   5.377  0.7991  0.3714 -0.2466
17956THY    HP744975   5.908   5.242   5.368  0.4999 -0.8086  0.9666
17956THY    CA344976   5.716   5.354   5.155 -0.5145  0.5602  0.6518
17956THY    HA344977   5.790   5.432   5.172 -0.2634  1.1908  0.2842
17956THY    CA444978   5.662   5.310   5.032 -0.1644  0.4066 -0.6762
17956THY    HA444979   5.704   5.332   4.935 -0.2581  0.0005 -2.1772
17956THY    CA544980   5.551   5.223   5.027 -0.2211  0.4550  0.7678
17956THY    CM144981   5.500   5.165   4.896 -0.0627 -0.8772 -0.0112
17956THY    HM144982   5.524   5.058   4.886 -0.1269 -2.2012  0.0814
17956THY    HM244983   5.538   5.222   4.811  0.4531  0.0566  1.0645
17956THY    HM344984   5.390   5.165   4.891 -0.1609  0.2528 -1.7083
17956THY    CA644985   5.482   5.191   5.141  0.5054  0.7501 -0.0504
17956THY    HA644986   5.391   5.133   5.136  0.3301  0.0862  0.2726
17957THY      O44987   9.087   1.365   4.816  0.1292  0.3906  0.0866
17957THY     HO44988   9.091   1.281   4.767 -0.4214  1.2972 -0.4720
17957THY    CA144989   8.987   1.348   4.905  0.7448 -0.4828  0.1156
17957THY    CA244990   8.944   1.442   4.997  0.1454 -0.6798 -0.1498
17957THY    CP144991   9.010   1.582   5.001  0.3332  0.1205  0.2376
17957THY    HP144992   9.088   1.596   4.927 -0.4394 -0.1664  3.9935
17957THY    CP244993   9.062   1.621   5.135 -0.1431 -0.0252  0.3793
17957THY    HP244994   9.120   1.539   5.179 -0.1082  0.0343  0.4356
17957THY    HP344995   8.982   1.640   5.208  1.1797  1.2947  1.1197
17957THY    HP444996   9.118   1.712   5.112  2.7126  3.5048 -0.2648
17957THY    CP344997   8.913   1.688   4.948 -0.7913  0.0983  0.1399
17957THY    HP544998   8.908   1.663   4.841  1.9583 -0.1452  0.3195
17957THY    HP644999   8.955   1.788   4.962  0.5075 -1.2125 -0.1876
17957THY    HP745000   8.815   1.675   4.996 -0.3117  0.5024 -2.8117
17957THY    CA345001   8.841   1.410   5.088 -0.5331  0.6725 -1.0748
17957THY    HA345002   8.813   1.487   5.160 -1.4944 -1.0291  0.2152
17957THY    CA445003   8.776   1.289   5.086 -0.2125 -0.1079  0.7096
17957THY    HA445004   8.703   1.261   5.161  0.5837  0.8583  1.1473
17957THY    CA545005   8.822   1.193   4.993  0.6920 -0.3971 -0.0694
17957THY    CM145006   8.744   1.062   4.993 -0.4696 -0.0711 -0.3899
17957THY    HM145007   8.651   1.052   5.049  1.2785  3.0518 -0.3265
17957THY    HM245008   8.822   0.994   5.028  1.3101 -0.6362  1.2495
17957THY    HM345009   8.722   1.031   4.890 -2.9569  0.2380  0.2086
17957THY    CA645010   8.923   1.224   4.899 -0.2953 -0.8495  0.6952
17957THY    HA645011   8.958   1.141   4.839  1.5718  2.2500 -0.9338
17958THY      O45012   8.783   7.851   1.870 -0.0520 -0.1341  0.4024
17958THY     HO45013   8.770   7.754   1.866  0.3482 -1.5049  0.3828
17958THY    CA145014   8.824   7.881   1.998 -0.3466 -0.7852 -0.2345
17958THY    CA245015   8.833   8.017   2.041 -0.3537 -0.1240 -0.1292
17958THY    CP145016   8.815   8.123   1.932  0.0905  0.1684 -0.6142
17958THY    HP145017   8.754   8.084   1.850  0.3349  0.8174 -2.4836
17958THY    CP245018   8.951   8.161   1.877  0.3620 -0.5206  0.7162
17958THY    HP245019   8.994   8.078   1.820  0.7338  2.1989 -1.0751
17958THY    HP345020   9.015   8.183   1.963 -1.1502  0.8893 -0.1502
17958THY    HP445021   8.940   8.252   1.817 -2.1875  1.6568  2.0001
17958THY    CP345022   8.743   8.247   1.981  0.2760  0.0512  0.4189
17958THY    HP545023   8.818   8.319   2.018  1.1448 -2.4450  0.8995
17958THY    HP645024   8.672   8.213   2.056  1.4067  1.3281  0.7797
17958THY    HP745025   8.688   8.293   1.898 -0.4096 -0.0477 -0.5692
17958THY    CA345026   8.857   8.049   2.180 -0.2497 -0.4091 -0.5504
17958THY    HA345027   8.877   8.151   2.213  1.4816 -3.5059  0.2526
17958THY    CA445028   8.889   7.936   2.267  0.4581 -0.0251 -0.0960
17958THY    HA445029   8.905   7.958   2.373  0.1386  0.2446 -1.1179
17958THY    CA545030   8.867   7.808   2.228 -0.5216  0.2795 -0.8908
17958THY    CM145031   8.875   7.699   2.323 -0.2029 -0.1873  0.2970
17958THY    HM145032   8.953   7.720   2.398 -1.0052  0.1998  2.1579
17958THY    HM245033   8.894   7.602   2.277 -1.4839 -0.7156  0.2826
17958THY    HM345034   8.781   7.712   2.378 -0.2064  0.0372 -0.6428
17958THY    CA645035   8.832   7.784   2.094  0.2068 -0.6593  0.1492
17958THY    HA645036   8.814   7.680   2.067 -1.0203 -0.0826  0.1920
17959THY      O45037   4.346   8.813   6.852  0.2363  0.5366 -0.2939
17959THY     HO45038   4.412   8.883   6.837  0.1466  0.4490 -0.2272
17959THY    CA145039   4.228   8.878   6.857  0.9666  0.7009 -0.3030
17959THY    CA245040   4.112   8.814   6.906 -0.3158  0.4714  0.1353
17959THY    CP145041   4.127   8.674   6.965  0.2589  0.8098  0.2049
17959THY    HP145042   4.230   8.635   6.965  0.5824 -1.1113  0.9607
17959THY    CP245043   4.043   8.575   6.880 -0.3489 -0.8798  0.2725
17959THY    HP245044   4.055   8.587   6.771  0.0129 -1.1219 -1.9146
17959THY    HP345045   3.935   8.570   6.891 -0.2444 -0.3225 -2.2599
17959THY    HP445046   4.075   8.473   6.904 -1.1669 -2.0660 -0.2871
17959THY    CP345047   4.087   8.658   7.112  0.7591  0.3086 -0.6117
17959THY    HP545048   4.140   8.735   7.168  0.0519 -0.4510  0.4662
17959THY    HP645049   4.107   8.557   7.149  0.6957  1.4732 -0.2171
17959THY    HP745050   3.980   8.673   7.132  0.8479  0.3028  0.0309
17959THY    CA345051   3.985   8.878   6.900  0.7708  0.1016 -0.6754
17959THY    HA345052   3.893   8.827   6.928  1.0363  1.7642 -0.2974
17959THY    CA445053   3.980   9.008   6.852  0.4750  0.5632 -0.3571
17959THY    HA445054   3.882   9.052   6.836  0.4355  1.3893 -0.1209
17959THY    CA545055   4.096   9.080   6.822  0.7556 -0.4236  0.4725
17959THY    CM145056   4.095   9.225   6.786  0.0266  0.2636  0.3397
17959THY    HM145057   4.045   9.242   6.690  1.3279 -0.3970  0.5708
17959THY    HM245058   4.198   9.249   6.756  0.0965 -1.3031 -1.6581
17959THY    HM345059   4.066   9.282   6.875 -0.2205  0.5310 -0.1942
17959THY    CA645060   4.217   9.013   6.832 -0.8094  0.4584 -1.0184
17959THY    HA645061   4.312   9.059   6.804 -0.0792  0.7502 -2.2893
17960THY      O45062   4.639   1.135   2.890 -0.5798  0.3043  0.0872
17960THY     HO45063   4.591   1.181   2.819 -1.4150  0.7950 -0.0061
17960THY    CA145064   4.772   1.155   2.865  0.6250  0.4300  0.4452
17960THY    CA245065   4.857   1.193   2.973 -0.4504 -0.0071 -0.7756
17960THY    CP145066   4.812   1.181   3.120 -0.4866  0.0251  0.0284
17960THY    HP145067   4.709   1.142   3.125 -0.5939  0.3737  0.3427
17960THY    CP245068   4.821   1.320   3.184  0.3920 -0.0717 -0.0094
17960THY    HP245069   4.906   1.381   3.149 -0.1005 -0.6194  0.3709
17960THY    HP345070   4.832   1.295   3.290 -0.1987 -0.4101 -1.8348
17960THY    HP445071   4.729   1.373   3.158  0.5103  2.4111  1.5787
17960THY    CP345072   4.910   1.082   3.189  0.3315  0.3034  0.7070
17960THY    HP545073   5.011   1.123   3.192  0.8421  1.5709 -0.5940
17960THY    HP645074   4.916   0.988   3.133 -4.1973 -1.5959  1.2851
17960THY    HP745075   4.881   1.067   3.293 -0.8498  0.4544  3.4627
17960THY    CA345076   4.985   1.212   2.939 -0.0673  0.2407 -0.8805
17960THY    HA345077   5.067   1.243   3.003  1.1811 -1.5344 -0.3744
17960THY    CA445078   5.025   1.201   2.807 -0.2630 -0.0198  0.5809
17960THY    HA445079   5.129   1.224   2.785 -0.3278 -0.1640  0.7432
17960THY    CA545080   4.941   1.176   2.706 -0.1098  0.0699  0.1921
17960THY    CM145081   4.996   1.170   2.568  1.1445  0.0153  0.0488
17960THY    HM145082   4.926   1.220   2.501  0.4041  1.7831  1.5034
17960THY    HM245083   5.024   1.067   2.544 -1.0019  0.1033 -0.6189
17960THY    HM345084   5.090   1.225   2.557  0.6604  1.4555  1.2388
17960THY    CA645085   4.813   1.144   2.739 -0.5705  1.2783  0.3518
17960THY    HA645086   4.744   1.122   2.658 -0.5962  1.2842  0.4115
17961THY      O45087   9.026   5.151   3.211 -0.1545  0.3966 -0.4550
17961THY     HO45088   9.033   5.093   3.289  0.5399 -0.0578 -0.9996
17961THY    CA145089   8.899   5.164   3.165  0.3384 -1.1588  0.5119
17961THY    CA245090   8.861   5.242   3.056  1.0384 -0.7987 -0.3082
17961THY    CP145091   8.967   5.315   2.978  0.1950 -0.1409  0.1510
17961THY    HP145092   9.050   5.339   3.045 -0.8837  1.2276  0.2099
17961THY    CP245093   8.935   5.441   2.912  0.1858  0.1651 -0.6889
17961THY    HP245094   8.903   5.520   2.981  1.7367 -0.2994  0.4162
17961THY    HP345095   8.859   5.434   2.833  0.0639  0.0041  1.6042
17961THY    HP445096   9.026   5.477   2.862 -0.9151  0.3383  2.6846
17961THY    CP345097   9.019   5.218   2.873 -0.2015  0.5608 -0.2765
17961THY    HP545098   8.941   5.182   2.804 -0.7720  1.1900 -0.2828
17961THY    HP645099   9.051   5.133   2.933 -0.1104 -1.7303 -1.9606
17961THY    HP745100   9.103   5.255   2.813 -1.6912 -2.9858 -2.1067
17961THY    CA345101   8.731   5.256   3.020  0.0585  0.0941 -0.7632
17961THY    HA345102   8.707   5.316   2.933  1.5559  1.5163  2.1308
17961THY    CA445103   8.633   5.183   3.093 -0.2406 -0.5006  0.4754
17961THY    HA445104   8.528   5.188   3.066 -0.4938  0.2743 -0.4342
17961THY    CA545105   8.673   5.098   3.199  0.4538  0.2822 -0.2275
17961THY    CM145106   8.579   5.023   3.283  0.3427  0.3513  0.8433
17961THY    HM145107   8.627   4.995   3.377  1.4013  0.4328  2.7943
17961THY    HM245108   8.545   4.931   3.234 -0.6408  2.2733  0.1256
17961THY    HM345109   8.489   5.082   3.308 -0.6868  1.9625 -1.2784
17961THY    CA645110   8.808   5.091   3.238  0.8161  0.2521 -0.1502
17961THY    HA645111   8.836   5.033   3.325 -2.3098  0.2867 -1.8415
17962THY      O45112   3.342   1.864   6.364  0.6251 -0.2464 -0.4486
17962THY     HO45113   3.284   1.868   6.442  0.7639 -0.1867  0.9409
17962THY    CA145114   3.274   1.787   6.276 -0.0311 -0.7074 -0.0445
17962THY    CA245115   3.265   1.646   6.281  0.2522 -0.9179 -0.0891
17962THY    CP145116   3.339   1.571   6.398 -0.1318 -0.2149  0.5220
17962THY    HP145117   3.338   1.634   6.488 -3.7685  1.7385 -1.9341
17962THY    CP245118   3.475   1.542   6.339 -0.5484  0.8411 -0.5837
17962THY    HP245119   3.504   1.646   6.324  0.8837  0.3257 -1.0233
17962THY    HP345120   3.476   1.476   6.251 -0.6379  0.4124 -0.0161
17962THY    HP445121   3.534   1.515   6.428 -0.1167  0.6445 -0.2981
17962THY    CP345122   3.267   1.449   6.456 -0.4002  0.0033  0.2212
17962THY    HP545123   3.166   1.470   6.492 -1.1063  0.4103 -3.3207
17962THY    HP645124   3.319   1.390   6.532  0.3220 -1.4905 -1.1587
17962THY    HP745125   3.258   1.374   6.377  1.0932 -0.0301  0.0490
17962THY    CA345126   3.178   1.585   6.191 -0.8023 -0.3462  0.2349
17962THY    HA345127   3.171   1.476   6.191 -1.9074  0.4827  0.2966
17962THY    CA445128   3.113   1.659   6.091  0.2689  0.3447  0.0525
17962THY    HA445129   3.034   1.613   6.031 -0.4483  1.4147 -0.1456
17962THY    CA545130   3.139   1.795   6.070 -0.7005 -0.5652 -0.3307
17962THY    CM145131   3.085   1.868   5.951 -0.0960 -0.6558 -0.3205
17962THY    HM145132   2.978   1.891   5.962 -0.4212 -0.8358 -1.7018
17962THY    HM245133   3.092   1.805   5.862  0.2498  0.2514 -1.5959
17962THY    HM345134   3.160   1.945   5.927  0.9683 -0.1093 -1.1576
17962THY    CA645135   3.211   1.856   6.168  0.6323 -0.9006 -0.0835
17962THY    HA645136   3.224   1.964   6.170 -1.1636 -2.8395  0.2296
17963THY      O45137   2.496   0.777   6.258 -0.0267  0.1885 -0.2179
17963THY     HO45138   2.500   0.847   6.191  0.4683  2.6906  2.3317
17963THY    CA145139   2.411   0.813   6.360  0.3081  0.3031 -0.3828
17963THY    CA245140   2.438   0.791   6.496  0.4569 -1.2245  0.8578
17963THY    CP145141   2.570   0.729   6.539 -0.1302  0.0814  0.2357
17963THY    HP145142   2.631   0.687   6.457  0.5144  1.3225 -1.3533
17963THY    CP245143   2.555   0.601   6.626 -0.1106 -0.1767  0.1966
17963THY    HP245144   2.488   0.624   6.710 -1.3923 -1.2598  0.5442
17963THY    HP345145   2.656   0.581   6.663 -1.0637  1.4729 -1.9816
17963THY    HP445146   2.510   0.521   6.565 -1.0298  0.0024  0.5735
17963THY    CP345147   2.652   0.842   6.606 -0.4268  0.2411  0.1764
17963THY    HP545148   2.632   0.932   6.547 -0.3417 -2.3798 -1.4343
17963THY    HP645149   2.760   0.829   6.604 -0.5996 -0.9820 -1.2374
17963THY    HP745150   2.618   0.855   6.710 -0.7744  0.2391 -0.6631
17963THY    CA345151   2.332   0.804   6.596  0.3589  0.6687 -0.2868
17963THY    HA345152   2.343   0.788   6.703 -0.0596  0.6129 -0.9925
17963THY    CA445153   2.210   0.861   6.550  0.1691  0.2496  0.5629
17963THY    HA445154   2.134   0.891   6.621  0.1869  0.3177  0.4502
17963THY    CA545155   2.187   0.889   6.419 -0.1309  0.3017 -0.3125
17963THY    CM145156   2.056   0.957   6.385 -0.6040  0.7228  0.0379
17963THY    HM145157   2.062   1.025   6.299  0.4477  0.0350 -0.8930
17963THY    HM245158   2.009   1.006   6.471 -1.8482  0.2870 -0.3721
17963THY    HM345159   1.989   0.878   6.349  0.0511 -1.2523  0.3222
17963THY    CA645160   2.285   0.860   6.323 -0.7967  0.3070 -0.2159
17963THY    HA645161   2.273   0.865   6.216 -0.6782  0.2912 -0.2642
17964THY      O45162   6.848   5.215   2.880  0.8154  0.0205  0.2599
17964THY     HO45163   6.933   5.168   2.879 -0.0600  0.0812 -1.4026
17964THY    CA145164   6.768   5.151   2.978  0.7074 -0.7109 -0.0986
17964THY    CA245165   6.621   5.154   2.983 -0.1949 -0.0227  0.1104
17964THY    CP145166   6.539   5.245   2.886  0.1783  0.2824 -0.0475
17964THY    HP145167   6.595   5.336   2.860 -1.2886 -0.0660  0.7938
17964THY    CP245168   6.410   5.301   2.947 -0.5523  0.1731 -0.6078
17964THY    HP245169   6.332   5.225   2.952  0.4613 -0.3844 -1.7175
17964THY    HP345170   6.376   5.389   2.891  2.8003 -0.7065  0.2762
17964THY    HP445171   6.416   5.330   3.052 -2.2321  0.3191 -0.6669
17964THY    CP345172   6.515   5.169   2.754 -0.0019 -0.0120 -0.4295
17964THY    HP545173   6.471   5.237   2.680 -0.5099  1.9380  1.5183
17964THY    HP645174   6.446   5.086   2.771 -2.4784  2.0681  1.8263
17964THY    HP745175   6.611   5.134   2.715 -0.4103 -1.1364 -0.3375
17964THY    CA345176   6.556   5.084   3.087  0.2128  0.2515  0.5059
17964THY    HA345177   6.450   5.099   3.101 -0.1930 -0.3908 -1.4126
17964THY    CA445178   6.625   4.995   3.165  0.1348 -0.5638  0.6873
17964THY    HA445179   6.578   4.941   3.247 -0.2214 -1.1614  0.0854
17964THY    CA545180   6.762   4.993   3.156  0.1924  0.2456 -0.1092
17964THY    CM145181   6.835   4.890   3.244  0.2647 -0.4897 -0.2228
17964THY    HM145182   6.941   4.919   3.241 -0.3598 -1.5876  2.1842
17964THY    HM245183   6.811   4.791   3.203  1.0099 -2.1449  0.2494
17964THY    HM345184   6.814   4.895   3.351  0.5717 -0.4248 -0.2571
17964THY    CA645185   6.836   5.067   3.062  1.0759  0.0611 -0.2731
17964THY    HA645186   6.944   5.067   3.054  1.0449 -0.9643  1.8309
17965THY      O45187   8.065   5.235   7.541 -0.0547  0.3410 -0.2902
17965THY     HO45188   8.010   5.155   7.543 -1.1647  2.9474  0.4476
17965THY    CA145189   8.123   5.250   7.419  1.1487  0.6304  0.6880
17965THY    CA245190   8.235   5.326   7.401 -0.3495  0.5615 -0.1080
17965THY    CP145191   8.307   5.384   7.523 -0.1170 -0.1252  1.0322
17965THY    HP145192   8.244   5.402   7.610  0.4649  0.7990 -1.1276
17965THY    CP245193   8.374   5.519   7.497 -0.6014  0.0684 -0.2540
17965THY    HP245194   8.394   5.576   7.588 -0.7542 -0.2073  0.2477
17965THY    HP345195   8.309   5.589   7.441 -0.3765  1.1751  0.8774
17965THY    HP445196   8.463   5.517   7.433 -0.4597  0.2921 -1.5862
17965THY    CP345197   8.406   5.284   7.593 -0.0402  0.0599 -0.0390
17965THY    HP545198   8.352   5.192   7.618  1.0460 -0.7222 -0.9119
17965THY    HP645199   8.448   5.329   7.684 -1.4784  1.2409 -0.9881
17965THY    HP745200   8.493   5.269   7.529  0.8322  1.0185  0.7771
17965THY    CA345201   8.288   5.342   7.270  0.3883  0.1011  0.2750
17965THY    HA345202   8.379   5.400   7.258  1.6845 -0.1340 -1.7253
17965THY    CA445203   8.220   5.285   7.164  0.3604  0.1273 -0.4997
17965THY    HA445204   8.247   5.298   7.059  0.3716  0.1737 -0.1342
17965THY    CA545205   8.105   5.210   7.184  0.1029  0.4954 -0.2467
17965THY    CM145206   8.027   5.146   7.076  0.5070  0.3626 -0.1457
17965THY    HM145207   8.039   5.038   7.089 -2.1738  1.0219 -0.4332
17965THY    HM245208   8.047   5.174   6.972  0.1751 -0.6862 -3.4069
17965THY    HM345209   7.921   5.152   7.103  0.0222 -1.3419 -0.5465
17965THY    CA645210   8.060   5.190   7.313  0.7386 -0.8093 -0.5297
17965THY    HA645211   7.973   5.129   7.336  0.6317 -3.1050 -1.3159
17966THY      O45212   3.141   4.619   6.249 -0.3668  0.4419 -0.6457
17966THY     HO45213   3.098   4.664   6.323 -1.6125 -1.4676  1.5466
17966THY    CA145214   3.067   4.505   6.231 -0.3315  0.4741  0.4467
17966THY    CA245215   3.086   4.435   6.110 -0.7416 -0.4982  0.4029
17966THY    CP145216   3.200   4.473   6.015  0.4253 -0.9622  0.2979
17966THY    HP145217   3.212   4.582   6.018 -3.0293 -2.1281  0.8137
17966THY    CP245218   3.167   4.444   5.865  0.0024 -0.3650  0.3288
17966THY    HP245219   3.073   4.487   5.828  0.4212 -1.5559  0.2586
17966THY    HP345220   3.162   4.334   5.861  2.4636 -1.2557  0.1900
17966THY    HP445221   3.250   4.485   5.807  1.3134  1.3720  0.2371
17966THY    CP345222   3.325   4.398   6.061  0.1031 -0.0758  0.2324
17966THY    HP545223   3.348   4.437   6.161  0.5165 -0.0683 -0.0220
17966THY    HP645224   3.411   4.413   5.995 -0.1349 -0.5143 -0.2898
17966THY    HP745225   3.306   4.290   6.067  0.5774  0.7759  0.1857
17966THY    CA345226   3.018   4.314   6.094 -0.1997  0.4671  0.0427
17966THY    HA345227   3.020   4.267   5.996 -0.0160 -1.7896  4.2088
17966THY    CA445228   2.925   4.278   6.196 -0.8432 -0.2202 -0.1116
17966THY    HA445229   2.860   4.192   6.182 -3.1646 -0.9458  1.6403
17966THY    CA545230   2.916   4.350   6.314 -0.1428 -0.7642 -0.3414
17966THY    CM145231   2.819   4.311   6.417  0.7988  0.3213 -0.1004
17966THY    HM145232   2.733   4.378   6.405 -0.3764  2.0315 -1.2052
17966THY    HM245233   2.863   4.306   6.517 -0.3574  0.8133 -1.0736
17966THY    HM345234   2.771   4.214   6.397  0.3381  0.5706  0.0728
17966THY    CA645235   2.982   4.472   6.325  0.2560 -0.3894 -0.8477
17966THY    HA645236   2.956   4.525   6.416 -0.0342 -0.6136 -0.6006
17967THY      O45237   3.936   2.948   7.139 -0.1980 -0.1181 -0.2349
17967THY     HO45238   3.985   2.892   7.201  0.6225 -0.5758 -0.0451
17967THY    CA145239   4.033   3.018   7.072 -0.2601  0.5433 -0.4971
17967THY    CA245240   4.007   3.116   6.979  0.3271  0.4885  0.9065
17967THY    CP145241   3.859   3.127   6.931  0.0602 -0.6217  0.5310
17967THY    HP145242   3.789   3.066   6.989 -0.1422 -0.7509  0.6358
17967THY    CP245243   3.838   3.103   6.776 -0.3733 -0.4855  0.1283
17967THY    HP245244   3.900   3.165   6.712 -0.5281 -0.1604  0.6273
17967THY    HP345245   3.731   3.112   6.754 -0.4965 -0.3269 -0.7808
17967THY    HP445246   3.855   2.996   6.757  1.0737 -1.3119  0.4868
17967THY    CP345247   3.819   3.277   6.949 -0.5717  0.2222  0.4509
17967THY    HP545248   3.717   3.291   6.912 -0.9659  0.9526 -0.3805
17967THY    HP645249   3.883   3.347   6.894  0.2178 -0.9111 -1.0987
17967THY    HP745250   3.810   3.301   7.056 -1.2100  0.3518 -0.3462
17967THY    CA345251   4.111   3.195   6.923 -0.0775  0.6246 -0.0638
17967THY    HA345252   4.085   3.267   6.846 -1.8757  1.1824 -0.0762
17967THY    CA445253   4.241   3.183   6.977  0.4160 -0.0798  1.1709
17967THY    HA445254   4.328   3.238   6.940  0.4058 -1.5018  0.2840
17967THY    CA545255   4.268   3.085   7.075 -0.0023 -0.7110  0.2575
17967THY    CM145256   4.402   3.050   7.114 -0.7384 -0.4068  0.1266
17967THY    HM145257   4.407   3.032   7.222 -1.8956 -0.1145  1.3653
17967THY    HM245258   4.476   3.127   7.088 -1.4617 -0.6574  0.7541
17967THY    HM345259   4.445   2.969   7.056  1.3080 -1.3256  1.7764
17967THY    CA645260   4.162   2.997   7.118 -0.6198 -0.1320 -0.7628
17967THY    HA645261   4.180   2.909   7.179 -3.0241 -0.3866 -1.5185
17968THY      O45262   8.057   1.465   5.579 -0.1409 -0.2131 -0.2792
17968THY     HO45263   8.142   1.426   5.550 -0.5462  2.3392 -3.5587
17968THY    CA145264   7.967   1.457   5.481 -0.0932  0.5095 -0.1025
17968THY    CA245265   7.841   1.521   5.468 -0.0946 -0.3695  0.0557
17968THY    CP145266   7.806   1.626   5.579 -0.7090 -0.0134  0.0162
17968THY    HP145267   7.883   1.626   5.658 -0.2124 -0.4797 -1.4976
17968THY    CP245268   7.673   1.602   5.653 -0.0155 -0.3262 -0.1541
17968THY    HP245269   7.677   1.516   5.720  3.0031 -1.6475 -1.1859
17968THY    HP345270   7.592   1.584   5.581 -0.0305  0.1601 -2.3343
17968THY    HP445271   7.645   1.689   5.712 -0.7149  0.1399 -0.6813
17968THY    CP345272   7.812   1.770   5.526  0.5238  0.3759 -0.6929
17968THY    HP545273   7.757   1.849   5.578  2.1950  0.3479  0.5521
17968THY    HP645274   7.773   1.788   5.425  1.8887  0.1666  1.5135
17968THY    HP745275   7.918   1.794   5.511  1.0836  0.8390 -2.7233
17968THY    CA345276   7.757   1.505   5.357  0.0717 -0.3329 -0.4130
17968THY    HA345277   7.662   1.556   5.359  0.4344 -1.1949  0.3280
17968THY    CA445278   7.811   1.433   5.251 -0.1378  0.3574 -0.4162
17968THY    HA445279   7.757   1.416   5.158  0.8695 -0.0170 -1.7745
17968THY    CA545280   7.940   1.375   5.254 -0.0170  0.4691 -0.2093
17968THY    CM145281   7.991   1.291   5.145 -0.4004 -0.2575  0.9000
17968THY    HM145282   7.940   1.329   5.056 -0.0423 -0.8105  0.0957
17968THY    HM245283   7.946   1.193   5.166  1.0222 -0.5132  0.1630
17968THY    HM345284   8.098   1.267   5.149 -0.6837  1.0467 -0.2748
17968THY    CA645285   8.015   1.385   5.371  0.1312  0.4946 -0.1050
17968THY    HA645286   8.109   1.331   5.375 -0.1319  0.4657 -0.5782
17969THY      O45287   8.017   8.827   7.064 -0.1418  0.1840  0.1359
17969THY     HO45288   8.005   8.772   6.984  0.6555 -1.1853  1.8569
17969THY    CA145289   7.948   8.940   7.048  0.6004 -0.8563 -0.1020
17969THY    CA245290   7.965   9.049   7.141 -0.7225  0.2395  0.2621
17969THY    CP145291   8.072   9.045   7.243  0.3232 -0.9492  0.8392
17969THY    HP145292   8.159   9.007   7.188 -0.2225 -0.8383 -0.6272
17969THY    CP245293   8.047   8.955   7.362  0.5062  0.4226 -0.3658
17969THY    HP245294   8.056   8.852   7.327  1.6821 -1.4490  0.3263
17969THY    HP345295   7.944   8.977   7.394  0.3726 -0.9577  1.1450
17969THY    HP445296   8.117   8.972   7.445 -0.9411  1.4356  0.8963
17969THY    CP345297   8.113   9.185   7.300 -0.7373 -0.0200  0.7588
17969THY    HP545298   8.046   9.212   7.382 -2.3378 -0.4548 -1.5746
17969THY    HP645299   8.102   9.256   7.217  1.5633  0.0315  1.2326
17969THY    HP745300   8.214   9.186   7.342 -0.9336  0.5872 -0.9510
17969THY    CA345301   7.882   9.157   7.121 -0.5829 -0.4435 -0.6129
17969THY    HA345302   7.887   9.250   7.176 -0.8320 -1.4040 -0.0266
17969THY    CA445303   7.785   9.160   7.020  0.9093 -0.2088 -0.1305
17969THY    HA445304   7.715   9.243   7.014 -0.7446  0.5061 -1.4047
17969THY    CA545305   7.775   9.053   6.933  0.1647 -0.3708  0.3381
17969THY    CM145306   7.680   9.055   6.815  0.0346  0.8186  0.2405
17969THY    HM145307   7.638   8.959   6.784 -1.2628 -1.2479  1.4078
17969THY    HM245308   7.727   9.083   6.720  0.2436 -0.2357 -3.2542
17969THY    HM345309   7.595   9.122   6.836 -0.3580 -0.1871  0.0725
17969THY    CA645310   7.852   8.943   6.948  0.8745 -1.0866 -0.3899
17969THY    HA645311   7.855   8.858   6.880  2.0835 -1.8011  0.1957
17970THY      O45312   3.410   8.034   2.331  0.0389  0.9071  0.1661
17970THY     HO45313   3.504   8.051   2.316  0.6453  0.5918 -2.8358
17970THY    CA145314   3.382   7.916   2.274 -0.5960  0.3620 -0.2350
17970THY    CA245315   3.255   7.865   2.270 -0.5440 -0.9112  0.2357
17970THY    CP145316   3.140   7.940   2.328 -0.2289 -0.7041 -0.3744
17970THY    HP145317   3.169   8.039   2.365  0.1361 -0.9692 -0.3805
17970THY    CP245318   3.082   7.869   2.457  0.4262 -0.5321  0.3660
17970THY    HP245319   3.163   7.854   2.530 -0.7838  0.7624 -0.0636
17970THY    HP345320   3.036   7.773   2.433 -0.5036 -1.0277  0.9214
17970THY    HP445321   2.998   7.922   2.505  0.2969  0.7764 -0.9729
17970THY    CP345322   3.022   7.958   2.233  0.3096  0.2032 -0.4537
17970THY    HP545323   2.942   7.888   2.256  0.0015  1.7002  0.3404
17970THY    HP645324   3.068   7.958   2.134 -1.6931 -0.8030  0.9601
17970THY    HP745325   2.986   8.061   2.245  2.4433  1.5643  0.2234
17970THY    CA345326   3.221   7.753   2.197  0.2797 -0.9050 -0.3713
17970THY    HA345327   3.119   7.717   2.186 -0.2515 -1.5772  1.2553
17970THY    CA445328   3.331   7.678   2.154  0.7575  0.3987 -0.6082
17970THY    HA445329   3.309   7.585   2.101 -1.1970 -0.9712  0.5633
17970THY    CA545330   3.460   7.717   2.168  0.0075  0.0205 -0.0730
17970THY    CM145331   3.573   7.640   2.101  0.4411 -0.1118  0.1808
17970THY    HM145332   3.677   7.649   2.134  0.5302  0.5501 -2.4126
17970THY    HM245333   3.562   7.657   1.993  1.2858 -0.2380 -0.0143
17970THY    HM345334   3.557   7.532   2.112  2.4494 -1.6341 -0.3449
17970THY    CA645335   3.486   7.845   2.221 -0.2081  0.6639  0.2135
17970THY    HA645336   3.589   7.877   2.220 -0.1237  0.0358 -0.0616
17971THY      O45337   6.648   8.805   3.437  0.1724 -0.2052  0.0214
17971THY     HO45338   6.651   8.858   3.518 -0.3111 -2.3693  3.6600
17971THY    CA145339   6.781   8.789   3.408 -0.4044 -0.2523  0.4906
17971THY    CA245340   6.826   8.750   3.282  0.3279 -0.3385  0.0361
17971THY    CP145341   6.717   8.742   3.167  0.2618  0.4252  0.0969
17971THY    HP145342   6.616   8.774   3.196 -0.4123 -1.5571 -0.1162
17971THY    CP245343   6.702   8.590   3.114 -0.0868 -0.2886 -0.4902
17971THY    HP245344   6.654   8.538   3.198  0.6923  1.6741  1.7589
17971THY    HP345345   6.799   8.555   3.078  0.1305  0.1543 -0.3612
17971THY    HP445346   6.640   8.576   3.025 -0.1076 -0.1206 -1.5187
17971THY    CP345347   6.756   8.827   3.044  0.2089 -0.0083 -0.1130
17971THY    HP545348   6.856   8.800   3.007 -0.3265 -1.6613  0.0189
17971THY    HP645349   6.746   8.931   3.078  0.6267 -0.7003  0.1609
17971THY    HP745350   6.685   8.808   2.963 -0.5922 -0.1373  2.8865
17971THY    CA345351   6.968   8.738   3.264  0.0808  0.3061  0.5463
17971THY    HA345352   7.005   8.720   3.164 -0.4406  0.0777  0.7173
17971THY    CA445353   7.056   8.744   3.371  0.5404  0.0540 -0.0902
17971THY    HA445354   7.160   8.714   3.361 -0.3875 -2.1049 -3.0974
17971THY    CA545355   7.003   8.779   3.501 -0.3794  0.7077 -0.8379
17971THY    CM145356   7.093   8.761   3.625 -0.3808  0.0323 -0.1143
17971THY    HM145357   7.179   8.828   3.617  0.1103  2.0206 -0.4520
17971THY    HM245358   7.136   8.661   3.632 -1.1036  1.4709 -0.3465
17971THY    HM345359   7.036   8.796   3.712  0.2669  0.3054  0.2802
17971THY    CA645360   6.870   8.808   3.515  0.2792  0.0544  0.0624
17971THY    HA645361   6.839   8.834   3.616 -0.3902 -0.4194  1.1418
17972THY      O45362   1.990   9.323   4.013  0.2968 -0.2759 -0.0823
17972THY     HO45363   1.922   9.337   4.081  1.6858  1.3248 -0.7545
17972THY    CA145364   2.086   9.265   4.079  0.2890 -0.0314 -0.4635
17972THY    CA245365   2.200   9.214   4.017 -0.6013  0.6510 -0.0841
17972THY    CP145366   2.209   9.236   3.865  0.2521 -0.2943 -0.1206
17972THY    HP145367   2.165   9.330   3.830  0.1550 -0.1196 -0.1011
17972THY    CP245368   2.135   9.126   3.801 -0.6370 -0.2404  0.0996
17972THY    HP245369   2.145   9.147   3.694 -1.3392 -0.4387 -0.5576
17972THY    HP345370   2.028   9.129   3.826 -0.2159  1.7075  0.0685
17972THY    HP445371   2.177   9.026   3.819 -1.4122 -1.2698 -0.4302
17972THY    CP345372   2.358   9.242   3.824 -1.1288  1.2275  0.2969
17972THY    HP545373   2.355   9.261   3.716  0.3948  1.3473  1.3346
17972THY    HP645374   2.418   9.151   3.834  1.2337  0.2433  1.6396
17972THY    HP745375   2.426   9.320   3.861 -1.2182 -0.2195  1.1033
17972THY    CA345376   2.305   9.150   4.095 -0.0335  0.2909  0.3986
17972THY    HA345377   2.389   9.100   4.047  0.9637  3.2206 -0.9153
17972THY    CA445378   2.282   9.141   4.234 -1.5977  0.0596  0.2612
17972THY    HA445379   2.342   9.081   4.302 -0.8076 -1.0648 -0.2560
17972THY    CA545380   2.175   9.205   4.295  0.4739 -0.5852  0.2305
17972THY    CM145381   2.165   9.211   4.444 -0.2436  0.0688 -0.1605
17972THY    HM145382   2.074   9.157   4.473 -0.3010  1.6872  0.7220
17972THY    HM245383   2.150   9.315   4.477  0.2761  1.3223 -0.4699
17972THY    HM345384   2.246   9.154   4.491 -0.9424 -0.0814 -1.2985
17972THY    CA645385   2.073   9.265   4.215 -0.3469  0.3114  0.0862
17972THY    HA645386   1.989   9.316   4.261 -0.1123 -1.9357  2.7396
17973THY      O45387   8.230   5.807   4.732  0.1066  0.3479 -0.0625
17973THY     HO45388   8.222   5.732   4.794 -0.2133 -1.0507 -1.2152
17973THY    CA145389   8.219   5.743   4.613  0.4898  0.5815 -0.0499
17973THY    CA245390   8.158   5.806   4.497 -0.5438 -0.9006  0.5700
17973THY    CP145391   8.118   5.955   4.500 -0.2614  0.1172 -0.5421
17973THY    HP145392   8.130   6.002   4.599 -0.2525  0.0094 -0.3152
17973THY    CP245393   7.968   5.978   4.468  0.6013  0.3255 -0.1793
17973THY    HP245394   7.924   5.922   4.551 -0.1784 -0.3235 -0.5365
17973THY    HP345395   7.957   5.925   4.373 -1.3246 -0.2586  1.1701
17973THY    HP445396   7.938   6.082   4.450  1.4385 -5.3041 -0.5967
17973THY    CP345397   8.217   6.038   4.416  0.6667  0.6109  0.2366
17973THY    HP545398   8.306   6.056   4.477 -0.2557  1.0936  4.0342
17973THY    HP645399   8.167   6.130   4.386 -0.7483  0.3564 -0.5891
17973THY    HP745400   8.243   5.975   4.330 -2.5661  0.7284 -1.4667
17973THY    CA345401   8.139   5.726   4.386 -0.2117 -0.1206  0.1548
17973THY    HA345402   8.086   5.758   4.296  0.2775 -0.5547 -0.2372
17973THY    CA445403   8.178   5.595   4.386 -0.5222 -0.1386  1.3637
17973THY    HA445404   8.155   5.527   4.304  0.9305 -1.7367  2.6952
17973THY    CA545405   8.238   5.533   4.494  0.1535  0.1762 -1.0675
17973THY    CM145406   8.251   5.386   4.499  0.4699  0.3788 -0.3307
17973THY    HM145407   8.258   5.352   4.395 -0.8358  0.3105 -0.4542
17973THY    HM245408   8.157   5.342   4.534 -0.2156 -2.2462 -1.1501
17973THY    HM345409   8.337   5.358   4.561  0.1667  0.8851 -0.1587
17973THY    CA645410   8.253   5.610   4.607  0.0405 -0.1641 -0.3349
17973THY    HA645411   8.290   5.558   4.694 -1.3846  1.4769  1.2523
17974THY      O45412   6.323   9.041   3.539 -0.6750  0.2247 -0.0049
17974THY     HO45413   6.304   8.951   3.509  0.6750 -0.4797 -0.0750
17974THY    CA145414   6.226   9.082   3.626  0.7466  0.0631 -0.5033
17974THY    CA245415   6.090   9.039   3.614 -0.7617 -0.4465 -0.3975
17974THY    CP145416   6.043   8.945   3.507  0.1890  0.0417  0.0298
17974THY    HP145417   6.127   8.926   3.438  1.3568  1.1248  1.0857
17974THY    CP245418   5.940   9.017   3.422  0.1940  0.5797 -0.0508
17974THY    HP245419   5.950   8.985   3.318 -1.4941  0.0727  0.9337
17974THY    HP345420   5.967   9.123   3.410 -1.7523 -0.5389  0.3555
17974THY    HP445421   5.839   9.001   3.461  0.2144  0.0231 -1.6898
17974THY    CP345422   6.009   8.805   3.553  0.3721 -0.5953  0.4043
17974THY    HP545423   6.090   8.759   3.611  1.7176 -2.0025  0.8931
17974THY    HP645424   5.995   8.734   3.471  0.1077  1.0351 -1.5350
17974THY    HP745425   5.918   8.806   3.614  0.9454  0.2817  2.4413
17974THY    CA345426   6.008   9.096   3.713  0.0285  0.9972  0.5948
17974THY    HA345427   5.905   9.060   3.716  0.2921  0.1971 -0.2563
17974THY    CA445428   6.051   9.183   3.812 -0.8504 -0.3779 -0.1611
17974THY    HA445429   5.985   9.223   3.888 -0.1685 -0.0683  0.3905
17974THY    CA545430   6.183   9.212   3.825 -0.5185 -0.2283  0.4526
17974THY    CM145431   6.241   9.283   3.946  0.0913  0.1064  0.3981
17974THY    HM145432   6.348   9.304   3.942  1.1583 -0.7790 -4.1222
17974THY    HM245433   6.233   9.230   4.042 -0.6874 -0.2187 -0.1030
17974THY    HM345434   6.190   9.379   3.940 -1.7941 -0.1393 -0.5647
17974THY    CA645435   6.273   9.172   3.724  0.5844 -0.9837  0.6523
17974THY    HA645436   6.380   9.187   3.732  0.5531  1.0815  0.1001
17975THY      O45437   1.000   8.136   5.711  0.4435  0.4148  0.0333
17975THY     HO45438   0.949   8.156   5.791 -0.9888 -0.7573  1.3108
17975THY    CA145439   1.099   8.054   5.751 -0.9310 -0.2355 -0.0725
17975THY    CA245440   1.198   8.004   5.660  1.3956 -0.7300 -0.1272
17975THY    CP145441   1.204   8.060   5.525  0.3060  0.3265  0.1310
17975THY    HP145442   1.108   8.107   5.501  0.1226  0.0491 -0.3668
17975THY    CP245443   1.205   7.938   5.432 -0.5082 -0.4771  0.4067
17975THY    HP245444   1.174   7.972   5.332  0.4556 -0.8760  0.1574
17975THY    HP345445   1.125   7.870   5.463  0.3242  2.3498  0.6057
17975THY    HP445446   1.304   7.891   5.431 -1.1232  0.0107 -0.9397
17975THY    CP345447   1.323   8.142   5.497  0.6465  0.3368  0.5418
17975THY    HP545448   1.420   8.092   5.510  1.5087  0.6963  2.2081
17975THY    HP645449   1.321   8.241   5.544  3.2256 -0.4290  1.0535
17975THY    HP745450   1.322   8.171   5.392  2.8702  0.6193  1.9564
17975THY    CA345451   1.284   7.902   5.710 -0.6251 -0.1386 -0.3105
17975THY    HA345452   1.367   7.876   5.645  1.0101  2.1377 -1.1130
17975THY    CA445453   1.288   7.870   5.848  0.0429  0.2112 -0.0779
17975THY    HA445454   1.358   7.795   5.883  1.2247 -2.0673 -0.1294
17975THY    CA545455   1.191   7.926   5.932  0.0752 -0.0584 -0.9593
17975THY    CM145456   1.206   7.899   6.078  0.4895  0.3991 -0.4663
17975THY    HM145457   1.270   7.811   6.087  0.2276 -3.7520 -1.2659
17975THY    HM245458   1.116   7.864   6.129  0.4331  0.2528 -0.5377
17975THY    HM345459   1.251   7.982   6.133  1.7045 -0.0300 -0.8162
17975THY    CA645460   1.095   8.019   5.882 -0.2983 -0.1509  0.5339
17975THY    HA645461   1.026   8.062   5.954  0.1556  0.8135 -0.3145
17976THY      O45462   4.381   0.838   3.942 -0.1968 -0.3338 -0.1359
17976THY     HO45463   4.306   0.806   3.890 -0.3202 -0.2021 -0.0591
17976THY    CA145464   4.401   0.763   4.049 -0.0017  0.0980 -0.4528
17976THY    CA245465   4.509   0.788   4.133  0.8957 -0.2429  0.1356
17976THY    CP145466   4.612   0.897   4.102 -0.5883  1.0105 -0.2234
17976THY    HP145467   4.552   0.983   4.071 -0.2472  2.2576  0.5022
17976THY    CP245468   4.694   0.857   3.980  0.3985  0.1182  0.0260
17976THY    HP245469   4.733   0.942   3.923 -0.9251 -1.7347 -0.5504
17976THY    HP345470   4.631   0.801   3.909 -0.2405 -0.2461  1.1760
17976THY    HP445471   4.774   0.787   4.009 -0.5529 -0.7814 -1.4986
17976THY    CP345472   4.714   0.942   4.218  0.1204  0.4980  0.3840
17976THY    HP545473   4.653   0.954   4.308  1.5746  1.6181 -0.3019
17976THY    HP645474   4.759   1.037   4.186  0.9241 -0.6816 -0.3607
17976THY    HP745475   4.795   0.869   4.232  0.6198  1.6207  1.1235
17976THY    CA345476   4.510   0.712   4.249  0.1393 -0.1871 -0.2393
17976THY    HA345477   4.597   0.741   4.307 -0.7801 -0.2123  2.8522
17976THY    CA445478   4.422   0.609   4.273 -0.6714  0.0884  0.8610
17976THY    HA445479   4.423   0.547   4.363 -1.4698 -2.2521 -2.8857
17976THY    CA545480   4.327   0.578   4.182  0.6997  0.2516 -0.3793
17976THY    CM145481   4.233   0.460   4.195 -0.4910  0.0267 -0.3773
17976THY    HM145482   4.147   0.503   4.247  0.5292  1.1630  0.3540
17976THY    HM245483   4.281   0.376   4.246  1.4746 -1.0507  0.0240
17976THY    HM345484   4.195   0.420   4.100 -4.4180  0.1005  2.5594
17976THY    CA645485   4.309   0.657   4.070 -0.1172 -0.5370  0.1138
17976THY    HA645486   4.226   0.629   4.006  0.8972 -0.7178 -2.7930
17977THY      O45487   9.082   5.201   5.945 -0.6329  0.5856  0.7032
17977THY     HO45488   9.176   5.219   5.925 -0.4310  0.7530 -0.1235
17977THY    CA145489   9.090   5.067   5.927  0.1677  0.2276 -1.1166
17977THY    CA245490   9.013   4.981   6.008 -0.3431  0.0770 -0.0089
17977THY    CP145491   8.920   5.034   6.115 -0.6207  0.7246  0.3380
17977THY    HP145492   8.953   5.132   6.150 -1.1484 -1.4768  1.3721
17977THY    CP245493   8.906   4.952   6.242  0.2614  0.3514  0.0006
17977THY    HP245494   8.999   4.937   6.298  1.5689 -1.3356  1.3649
17977THY    HP345495   8.856   4.855   6.227  1.5685 -0.2188 -0.6159
17977THY    HP445496   8.842   5.011   6.307 -0.4595 -0.0250 -0.3587
17977THY    CP345497   8.787   5.061   6.054 -0.1523 -0.2831 -0.2012
17977THY    HP545498   8.787   5.142   5.980 -1.2518  0.0965  0.1651
17977THY    HP645499   8.712   5.086   6.130 -1.1673 -2.2416  3.3879
17977THY    HP745500   8.742   4.971   6.011 -1.7303  1.3032 -0.2146
17977THY    CA345501   9.022   4.840   5.980 -0.3991  0.8342 -0.0178
17977THY    HA345502   8.967   4.761   6.030 -0.8283  1.3529  0.6084
17977THY    CA445503   9.103   4.797   5.872  0.4232  0.1081  0.0105
17977THY    HA445504   9.112   4.693   5.839  0.1201 -2.6077  0.7522
17977THY    CA545505   9.173   4.884   5.789  0.3496  0.3386 -0.4890
17977THY    CM145506   9.231   4.842   5.656 -0.5066 -0.0688 -0.1147
17977THY    HM145507   9.181   4.889   5.571  0.8208  0.3093  2.1408
17977THY    HM245508   9.237   4.734   5.636 -0.7875  0.4818 -0.2398
17977THY    HM345509   9.330   4.884   5.634  0.2924 -2.7264 -3.0207
17977THY    CA645510   9.172   5.021   5.821  0.3607  0.6542  0.5523
17977THY    HA645511   9.227   5.098   5.767 -0.3738 -1.2054 -0.1732
17978THY      O45512   6.542   5.339   6.250  0.1621  0.0650  0.4168
17978THY     HO45513   6.490   5.351   6.331 -0.8683 -0.5288  0.0897
17978THY    CA145514   6.618   5.228   6.269  0.0202  0.7169  0.2325
17978THY    CA245515   6.687   5.167   6.160 -0.0637 -0.0086 -0.6254
17978THY    CP145516   6.707   5.243   6.031  0.3591 -0.3327  0.4822
17978THY    HP145517   6.665   5.343   6.044 -0.4636 -0.5472  0.1724
17978THY    CP245518   6.643   5.173   5.918  0.1902  0.4366 -0.3083
17978THY    HP245519   6.644   5.241   5.832 -3.3493 -0.0512 -0.6811
17978THY    HP345520   6.538   5.147   5.935  0.4194 -0.0139 -1.5689
17978THY    HP445521   6.692   5.080   5.889 -2.5864 -2.2196 -1.0963
17978THY    CP345522   6.852   5.273   6.006 -0.0587 -0.5323  0.5579
17978THY    HP545523   6.894   5.328   6.091  0.2125 -1.0664  1.1923
17978THY    HP645524   6.869   5.326   5.911  0.3151 -0.1316  1.1645
17978THY    HP745525   6.912   5.182   5.994  0.5161 -1.2117  1.0109
17978THY    CA345526   6.745   5.042   6.174  0.1103 -0.2911 -0.4259
17978THY    HA345527   6.797   5.000   6.088  0.6582 -0.5191  0.6832
17978THY    CA445528   6.740   4.976   6.294  0.4857 -0.0008  0.0591
17978THY    HA445529   6.788   4.880   6.307  0.8180  0.1195  0.2398
17978THY    CA545530   6.684   5.040   6.406 -0.7528  0.1498 -0.8090
17978THY    CM145531   6.672   4.957   6.527 -0.2177  0.5705 -0.0248
17978THY    HM145532   6.640   5.021   6.610 -2.9503 -1.7072  1.8150
17978THY    HM245533   6.765   4.902   6.547 -0.9117  0.8012 -1.1614
17978THY    HM345534   6.588   4.887   6.513  1.2371 -3.3303 -1.3092
17978THY    CA645535   6.618   5.162   6.389 -0.1819  0.9686  0.3240
17978THY    HA645536   6.569   5.209   6.474 -1.2653  0.0731  0.8407
17979THY      O45537   0.101   2.934   4.492  0.2965  0.1819  0.0652
17979THY     HO45538   0.031   2.928   4.560 -0.1647 -0.3777 -1.4691
17979THY    CA145539   0.217   2.951   4.562  0.4130  0.5670  0.0617
17979THY    CA245540   0.341   2.973   4.494 -0.3671  1.1451  0.0705
17979THY    CP145541   0.342   2.977   4.341  1.0043 -0.2342 -0.4007
17979THY    HP145542   0.254   3.032   4.306  1.6787  1.0224  1.6002
17979THY    CP245543   0.342   2.830   4.281  0.0457 -0.3829 -0.0442
17979THY    HP245544   0.437   2.776   4.292 -0.0696 -3.0181 -0.9442
17979THY    HP345545   0.321   2.820   4.174 -2.1057  0.0295 -0.4433
17979THY    HP445546   0.267   2.766   4.329 -1.1909  0.1842  1.7642
17979THY    CP345547   0.454   3.063   4.279  0.2598  0.1729 -0.8438
17979THY    HP545548   0.421   3.079   4.176 -1.7846  1.0085  0.9598
17979THY    HP645549   0.555   3.024   4.295  0.5737 -0.4062 -0.2953
17979THY    HP745550   0.453   3.165   4.319 -0.5479 -1.0742 -0.3398
17979THY    CA345551   0.455   3.006   4.565 -0.0501  0.1913 -0.2680
17979THY    HA345552   0.548   3.037   4.518 -0.8724  0.4566  2.9636
17979THY    CA445553   0.442   3.035   4.702  0.3633 -0.5252  0.4748
17979THY    HA445554   0.530   3.062   4.759  0.0754 -0.6686  1.7980
17979THY    CA545555   0.313   3.026   4.768 -0.3061 -0.2069 -0.0533
17979THY    CM145556   0.301   3.041   4.919  1.0707 -0.0940 -0.4498
17979THY    HM145557   0.401   3.035   4.964  1.2694 -0.6318 -1.5771
17979THY    HM245558   0.237   2.963   4.962 -0.9682 -0.9542  0.6725
17979THY    HM345559   0.267   3.143   4.939  0.9521  2.8601 -0.9873
17979THY    CA645560   0.200   2.979   4.698 -0.5120 -0.3215  0.1385
17979THY    HA645561   0.104   2.973   4.749  0.9101  2.7417  1.1725
17980THY      O45562   7.139   3.806   5.262  0.7272  0.0232  0.5207
17980THY     HO45563   7.159   3.838   5.352  2.7486  0.3632 -1.4605
17980THY    CA145564   7.131   3.674   5.275 -0.0881  0.1105 -0.0464
17980THY    CA245565   7.063   3.588   5.190  1.0396  0.8648 -0.4456
17980THY    CP145566   6.995   3.644   5.072  0.2478  0.0256 -0.0257
17980THY    HP145567   7.048   3.737   5.050  1.9211 -0.5434 -1.0696
17980THY    CP245568   6.853   3.683   5.105 -0.7195 -0.2701  0.2155
17980THY    HP245569   6.846   3.742   5.197 -0.8604 -0.1607  0.0298
17980THY    HP345570   6.803   3.587   5.124 -1.5402 -1.5183  0.3671
17980THY    HP445571   6.803   3.734   5.022  2.0597 -1.3061  1.4229
17980THY    CP345572   6.994   3.555   4.945 -0.5344  0.6150  0.2924
17980THY    HP545573   6.953   3.455   4.964 -0.4073  1.1361  0.3405
17980THY    HP645574   7.094   3.528   4.908 -1.0051  0.0129 -0.6969
17980THY    HP745575   6.950   3.610   4.861 -1.1191  1.6692  1.4737
17980THY    CA345576   7.042   3.451   5.225  0.4822 -0.4872  0.2764
17980THY    HA345577   6.973   3.396   5.163 -0.2079 -0.5293  1.1582
17980THY    CA445578   7.100   3.400   5.346  0.0789 -0.2159 -0.4962
17980THY    HA445579   7.089   3.298   5.382  2.1963 -0.8945 -1.0165
17980THY    CA545580   7.176   3.488   5.421 -0.0259 -0.3400  0.5216
17980THY    CM145581   7.228   3.447   5.556 -0.9895 -0.8723  0.2980
17980THY    HM145582   7.238   3.536   5.619  0.9678  1.3070 -1.3102
17980THY    HM245583   7.324   3.395   5.545 -1.3034 -0.2318 -0.4448
17980THY    HM345584   7.160   3.382   5.613 -0.7786 -0.3066  0.5618
17980THY    CA645585   7.196   3.619   5.385  0.2791  0.2568  0.0368
17980THY    HA645586   7.244   3.686   5.456  0.4945  0.1506 -0.0021
17981THY      O45587   3.255   0.770   4.476 -0.0658  0.4470  0.4888
17981THY     HO45588   3.317   0.698   4.499  0.3355  0.5932  0.8743
17981THY    CA145589   3.331   0.863   4.429 -0.7586  0.5170 -0.1527
17981THY    CA245590   3.293   0.947   4.320  0.2894  0.1449  0.1405
17981THY    CP145591   3.163   0.918   4.237  0.0739 -0.2993  0.3494
17981THY    HP145592   3.103   0.835   4.273 -0.3940  0.4244  0.9852
17981THY    CP245593   3.194   0.892   4.088  0.6456  0.2034 -0.0649
17981THY    HP245594   3.249   0.973   4.039 -2.2047 -0.2658  1.7527
17981THY    HP345595   3.102   0.881   4.029  0.3989  0.6034 -0.1955
17981THY    HP445596   3.257   0.803   4.085  0.9076 -4.4598  0.0586
17981THY    CP345597   3.063   1.035   4.243  0.0899 -0.0919 -0.6726
17981THY    HP545598   2.974   1.009   4.185  0.6077 -0.5707 -1.4010
17981THY    HP645599   3.108   1.121   4.192  0.3153  0.8717 -0.2019
17981THY    HP745600   3.033   1.070   4.343  1.4839  1.3576 -3.2835
17981THY    CA345601   3.391   1.042   4.273  0.7854 -0.0653  0.4470
17981THY    HA345602   3.362   1.120   4.204  0.8800  1.4144  1.8296
17981THY    CA445603   3.518   1.055   4.329  0.1335 -0.1565  0.4411
17981THY    HA445604   3.580   1.133   4.286 -1.0658  1.0898  2.1723
17981THY    CA545605   3.548   0.973   4.439 -0.2218  0.4503  0.1773
17981THY    CM145606   3.679   0.997   4.506 -0.0330 -0.1591  0.1406
17981THY    HM145607   3.741   0.908   4.489 -0.8384  3.3415 -1.2159
17981THY    HM245608   3.673   1.002   4.615  2.1859  0.2686 -3.2083
17981THY    HM345609   3.741   1.078   4.464  0.8204 -0.2856 -0.5649
17981THY    CA645610   3.458   0.875   4.487 -0.1255  0.2261 -0.7800
17981THY    HA645611   3.474   0.814   4.576 -1.1666  1.0721  0.1478
17982THY      O45612   8.487   4.606   5.975  0.1241  0.4671  0.6834
17982THY     HO45613   8.571   4.655   5.977  1.3199  1.9420 -1.2887
17982THY    CA145614   8.389   4.694   5.993 -0.1662  0.0103  0.0748
17982THY    CA245615   8.251   4.660   5.976 -0.2193 -0.0315  0.5167
17982THY    CP145616   8.201   4.519   5.934 -0.5540  0.1175 -0.0888
17982THY    HP145617   8.291   4.460   5.951  0.1467 -2.4201  0.1253
17982THY    CP245618   8.156   4.506   5.785 -0.1542 -0.0746  1.1320
17982THY    HP245619   8.241   4.521   5.717  0.7339  0.7500 -0.0087
17982THY    HP345620   8.088   4.585   5.752 -2.4477 -0.1901 -0.7806
17982THY    HP445621   8.100   4.413   5.769  0.7959  3.1536 -0.1371
17982THY    CP345622   8.092   4.473   6.033 -0.9747 -0.1777 -0.4183
17982THY    HP545623   8.123   4.482   6.138 -0.6130 -0.4684  2.7832
17982THY    HP645624   8.069   4.366   6.021  1.5565 -2.3250 -0.8053
17982THY    HP745625   7.997   4.527   6.026 -0.5365  0.3033  0.4379
17982THY    CA345626   8.155   4.760   5.997 -0.4670  0.0974 -0.6102
17982THY    HA345627   8.052   4.731   5.980 -0.4126 -0.2268 -0.6097
17982THY    CA445628   8.194   4.896   6.038  0.6567 -0.4033  0.2928
17982THY    HA445629   8.119   4.972   6.055  0.3414  0.3874 -0.1798
17982THY    CA545630   8.325   4.925   6.061 -0.3721 -0.0019 -0.1952
17982THY    CM145631   8.367   5.058   6.114 -0.2981 -0.2006  0.3508
17982THY    HM145632   8.304   5.139   6.077 -3.3625 -0.7340 -2.0597
17982THY    HM245633   8.462   5.091   6.071  1.1417 -0.0656 -3.1600
17982THY    HM345634   8.370   5.052   6.224 -0.8838 -0.2400 -1.3734
17982THY    CA645635   8.420   4.824   6.043  0.3998  0.0802  0.1106
17982THY    HA645636   8.526   4.848   6.045  0.9182 -0.3211 -1.9827
17983THY      O45637   0.607   6.777   3.861  0.2307  0.2232 -0.2965
17983THY     HO45638   0.559   6.772   3.776  0.5279 -0.0012  0.5967
17983THY    CA145639   0.557   6.889   3.909 -0.3476 -0.1078 -0.1458
17983THY    CA245640   0.501   6.881   4.037 -0.0993  0.3135 -0.6197
17983THY    CP145641   0.512   6.759   4.132  0.0449  0.4487 -0.4713
17983THY    HP145642   0.535   6.662   4.087  1.2101  1.6004 -0.7619
17983THY    CP245643   0.385   6.729   4.224 -0.0488  0.4047  0.0178
17983THY    HP245644   0.290   6.730   4.168  0.1651  0.0075  1.8160
17983THY    HP345645   0.372   6.810   4.296  0.9798 -0.2932  0.8352
17983THY    HP445646   0.389   6.639   4.286 -0.2977 -0.3088 -0.4928
17983THY    CP345647   0.631   6.772   4.228 -0.0449 -0.0057  0.2219
17983THY    HP545648   0.628   6.875   4.264 -0.9931  1.7082 -0.3637
17983THY    HP645649   0.722   6.732   4.183 -0.7396 -1.4541  0.2024
17983THY    HP745650   0.620   6.706   4.315 -0.2214  0.1181  0.4127
17983THY    CA345651   0.429   6.997   4.075  0.4395 -1.2745  0.3723
17983THY    HA345652   0.390   7.003   4.176 -0.2116 -1.4153 -1.0599
17983THY    CA445653   0.436   7.114   3.997 -0.1178 -0.8027  0.3502
17983THY    HA445654   0.390   7.202   4.040  0.1212  1.7981 -0.7034
17983THY    CA545655   0.486   7.115   3.871  0.0353  0.3631 -0.5018
17983THY    CM145656   0.466   7.235   3.779 -0.3236  0.9305  0.0705
17983THY    HM145657   0.437   7.199   3.680  1.1354  0.4294  0.2099
17983THY    HM245658   0.564   7.283   3.766 -0.3060 -2.1322 -0.6079
17983THY    HM345659   0.398   7.310   3.822  0.3644  1.1818  0.5623
17983THY    CA645660   0.551   7.003   3.826 -0.1639 -0.0104  0.5726
17983THY    HA645661   0.596   7.003   3.727  0.1764  0.1439  0.4162
17984THY      O45662   6.933   6.279   5.564  0.0679 -0.6034 -0.5112
17984THY     HO45663   6.919   6.211   5.632  1.0492  0.8108  0.6440
17984THY    CA145664   6.985   6.217   5.461  0.0778  0.6789 -0.4559
17984THY    CA245665   6.971   6.077   5.435  1.0249  0.1081  0.2582
17984THY    CP145666   6.893   5.994   5.531  0.0415 -0.2573  0.0219
17984THY    HP145667   6.840   6.059   5.602  2.8292  2.6228 -0.6027
17984THY    CP245668   6.975   5.912   5.623 -0.0607 -0.3670  0.2613
17984THY    HP245669   6.929   5.831   5.680 -0.2225  2.0510  1.9114
17984THY    HP345670   7.026   5.980   5.693 -1.7117  1.3440 -0.1705
17984THY    HP445671   7.053   5.864   5.563  0.2015  0.7109 -0.6969
17984THY    CP345672   6.793   5.913   5.456  0.2025  0.0304  0.2181
17984THY    HP545673   6.843   5.841   5.391  2.8992 -0.3708  2.2657
17984THY    HP645674   6.738   5.973   5.382  1.5564 -0.8721  0.3943
17984THY    HP745675   6.735   5.863   5.534  0.9549 -0.8549 -2.1892
17984THY    CA345676   7.040   6.014   5.332 -0.9463 -0.2961 -0.1481
17984THY    HA345677   7.039   5.907   5.312 -1.5129 -3.7483  0.3899
17984THY    CA445678   7.115   6.098   5.244 -0.1357  0.4330  0.5017
17984THY    HA445679   7.167   6.048   5.162 -0.9341  0.8089 -1.0169
17984THY    CA545680   7.125   6.235   5.268  0.0151 -0.0168  0.7293
17984THY    CM145681   7.208   6.324   5.176  0.2075 -0.2696 -0.1521
17984THY    HM145682   7.254   6.255   5.105  1.7266  0.3716  0.1735
17984THY    HM245683   7.283   6.379   5.234  0.2093 -0.1551 -0.2742
17984THY    HM345684   7.143   6.391   5.119 -1.1294  2.5816  1.1660
17984THY    CA645685   7.065   6.297   5.371  0.3126 -0.1171  1.2353
17984THY    HA645686   7.081   6.403   5.391  0.2420  3.1597  0.7177
17985THY      O45687   3.237   5.668   4.668  0.3653  0.2863 -0.5715
17985THY     HO45688   3.330   5.658   4.642  0.4065 -0.5485  1.4795
17985THY    CA145689   3.188   5.777   4.596 -0.3216 -0.0112 -0.5453
17985THY    CA245690   3.172   5.907   4.646 -0.3930 -0.5772 -0.4861
17985THY    CP145691   3.220   5.918   4.797  0.4607  0.0611 -1.2121
17985THY    HP145692   3.315   5.863   4.802 -0.0186 -2.0220 -2.3536
17985THY    CP245693   3.121   5.860   4.902 -0.1602 -0.2086 -0.0715
17985THY    HP245694   3.052   5.791   4.853  0.1573  2.0349 -2.1255
17985THY    HP345695   3.064   5.944   4.944  0.1711 -1.4551  0.8160
17985THY    HP445696   3.176   5.813   4.985  0.9065 -1.4784 -1.1422
17985THY    CP345697   3.251   6.064   4.835 -0.0254  0.3491  0.3747
17985THY    HP545698   3.314   6.100   4.753  0.3017  0.4824  0.1111
17985THY    HP645699   3.308   6.062   4.928  0.5198  0.0273 -1.8774
17985THY    HP745700   3.162   6.127   4.842 -1.3270  2.1943 -1.5362
17985THY    CA345701   3.141   6.014   4.566 -0.0220  0.5037 -0.6819
17985THY    HA345702   3.130   6.115   4.602 -0.7071 -0.5950 -0.3469
17985THY    CA445703   3.110   5.990   4.433 -0.1382  0.2048  0.0616
17985THY    HA445704   3.072   6.075   4.376  0.4003 -1.9328 -1.0635
17985THY    CA545705   3.116   5.862   4.382 -0.4071  0.1672 -0.0488
17985THY    CM145706   3.093   5.834   4.238  0.2465  0.5682 -0.1442
17985THY    HM145707   3.059   5.927   4.189  0.8815 -1.4556 -0.9206
17985THY    HM245708   3.012   5.763   4.217 -0.0296  1.5518 -0.1303
17985THY    HM345709   3.187   5.801   4.193 -1.3382 -2.6711 -0.7090
17985THY    CA645710   3.156   5.756   4.463  0.3211 -0.2441 -0.1184
17985THY    HA645711   3.183   5.662   4.416  2.2811 -2.9736  1.6538
17986THY      O45712   1.090   3.324   6.472  0.0625  0.4266  0.3575
17986THY     HO45713   1.141   3.244   6.456 -1.5823 -0.4552 -0.5797
17986THY    CA145714   1.084   3.343   6.603 -0.0020 -0.0891 -0.3794
17986THY    CA245715   1.042   3.459   6.667 -0.0598 -0.1396 -0.6721
17986THY    CP145716   1.011   3.583   6.590 -0.3720  0.3916 -0.5759
17986THY    HP145717   0.990   3.563   6.485  0.0657 -0.3990  2.5789
17986THY    CP245718   1.138   3.674   6.583  0.0161 -0.3324 -0.3650
17986THY    HP245719   1.181   3.713   6.676  1.6334 -2.2834  2.9253
17986THY    HP345720   1.095   3.755   6.524 -0.3592  0.6641  0.1804
17986THY    HP445721   1.226   3.628   6.535  0.8614  0.8268 -0.0128
17986THY    CP345722   0.877   3.656   6.638 -0.1855  0.9496  0.4988
17986THY    HP545723   0.789   3.592   6.623 -0.4779  1.4956  0.7710
17986THY    HP645724   0.863   3.746   6.575 -1.3706 -1.2388 -1.0957
17986THY    HP745725   0.886   3.690   6.741  0.8697  0.1664  2.8466
17986THY    CA345726   1.031   3.464   6.811  0.3105  0.1908 -0.4629
17986THY    HA345727   1.011   3.558   6.861 -0.3485  0.0234 -0.5032
17986THY    CA445728   1.051   3.344   6.877 -0.0406 -0.1905 -0.9765
17986THY    HA445729   1.051   3.350   6.986  2.3631  0.0215 -2.9729
17986THY    CA545730   1.100   3.235   6.816  0.2794 -0.4017  0.6064
17986THY    CM145731   1.133   3.113   6.897  0.1228  0.0521  0.1205
17986THY    HM145732   1.051   3.041   6.886  0.8157 -1.4940 -0.4728
17986THY    HM245733   1.167   3.150   6.994  1.0700 -0.9495  2.0542
17986THY    HM345734   1.222   3.056   6.868 -2.1583 -0.7833 -3.2765
17986THY    CA645735   1.117   3.232   6.676  0.2955  0.3819  0.7140
17986THY    HA645736   1.139   3.135   6.631 -0.8715  1.7023 -0.2050
17987THY      O45737   5.609   4.819   4.766  0.6657 -0.2169 -0.4737
17987THY     HO45738   5.687   4.844   4.714  0.1263 -0.4803  0.7296
17987THY    CA145739   5.508   4.829   4.675  1.4842 -0.8864  0.0824
17987THY    CA245740   5.371   4.798   4.712 -0.2120 -0.0629 -0.6065
17987THY    CP145741   5.324   4.771   4.860 -0.7604  0.2216 -0.1988
17987THY    HP145742   5.403   4.786   4.935 -0.2647 -0.3688  0.2320
17987THY    CP245743   5.270   4.630   4.881  0.3081 -0.3904  0.1593
17987THY    HP245744   5.281   4.592   4.983  0.7036 -0.9420 -1.2875
17987THY    HP345745   5.333   4.556   4.830 -1.2225 -0.3757 -1.2146
17987THY    HP445746   5.173   4.598   4.841  2.6559 -3.7358 -3.7395
17987THY    CP345747   5.217   4.860   4.899 -0.1268 -0.7178 -0.0922
17987THY    HP545748   5.249   4.963   4.883 -0.1656  0.6775  0.1559
17987THY    HP645749   5.184   4.849   5.003 -0.8586 -0.9511 -0.1580
17987THY    HP745750   5.124   4.843   4.845 -0.7696  0.1280  0.6378
17987THY    CA345751   5.277   4.788   4.606  0.7825  0.2013 -0.1434
17987THY    HA345752   5.172   4.769   4.626  0.4609  1.0524  2.2816
17987THY    CA445753   5.319   4.818   4.477 -0.0880 -0.0840 -0.1086
17987THY    HA445754   5.247   4.820   4.396  0.5814 -0.7008  2.0796
17987THY    CA545755   5.451   4.848   4.442 -0.1916  0.1767 -0.2217
17987THY    CM145756   5.482   4.881   4.297  0.1375  0.2081 -0.0690
17987THY    HM145757   5.493   4.791   4.235 -1.9963  0.7053 -0.7388
17987THY    HM245758   5.570   4.945   4.293  1.0701 -0.1376 -1.3264
17987THY    HM345759   5.395   4.932   4.254 -1.5237  3.0887 -0.2341
17987THY    CA645760   5.546   4.851   4.548 -0.1134  0.2540  0.2273
17987THY    HA645761   5.649   4.881   4.532  0.8530  0.8768 -2.4370
17988THY      O45762   6.928   0.635   5.961 -0.7170 -0.3087  0.2208
17988THY     HO45763   6.941   0.709   6.023  0.4498  1.0541 -1.0631
17988THY    CA145764   6.876   0.681   5.846 -0.3037 -0.1317  0.0638
17988THY    CA245765   6.850   0.589   5.740 -0.7041 -0.2252  0.2800
17988THY    CP145766   6.904   0.446   5.750 -0.2775  0.9458 -0.2172
17988THY    HP145767   6.951   0.419   5.845  0.1301  0.6006 -0.7702
17988THY    CP245768   7.014   0.419   5.642 -0.0911  0.2072  0.2391
17988THY    HP245769   7.053   0.317   5.647 -3.7013  1.4351 -1.2113
17988THY    HP345770   7.092   0.493   5.663 -1.4380  0.9292  1.4944
17988THY    HP445771   6.979   0.429   5.539 -1.0570  0.5977  1.0282
17988THY    CP345772   6.786   0.343   5.731 -1.3964  0.2192  0.1072
17988THY    HP545773   6.748   0.338   5.628  0.6197 -0.5640 -0.0030
17988THY    HP645774   6.703   0.375   5.795 -0.3877  1.4300  0.3890
17988THY    HP745775   6.816   0.243   5.766 -2.6681  2.0126  0.2979
17988THY    CA345776   6.781   0.638   5.629 -0.0286  0.0380  0.0549
17988THY    HA345777   6.762   0.575   5.543 -0.0901 -0.3767  0.6291
17988THY    CA445778   6.723   0.766   5.642 -0.1106 -0.4095  0.3573
17988THY    HA445779   6.656   0.809   5.568 -2.8380  0.9569 -1.2813
17988THY    CA545780   6.764   0.855   5.740  0.2439  0.9542 -0.1045
17988THY    CM145781   6.730   0.999   5.723 -0.3592  0.3531 -0.9956
17988THY    HM145782   6.809   1.042   5.661 -2.2147 -1.4684 -0.0669
17988THY    HM245783   6.717   1.056   5.816 -2.0675 -0.8053  0.6269
17988THY    HM345784   6.637   1.019   5.669 -0.0320  0.9204  2.8971
17988THY    CA645785   6.840   0.816   5.845 -0.3013 -0.1200 -0.1442
17988THY    HA645786   6.862   0.882   5.928 -1.0449  0.0265 -0.0743
17989THY      O45787   6.174   1.367   2.446 -0.6665  0.1518 -0.1869
17989THY     HO45788   6.207   1.423   2.374 -1.0305  0.1370  0.0072
17989THY    CA145789   6.280   1.341   2.527 -0.3514 -0.3632  1.0910
17989THY    CA245790   6.272   1.281   2.655  0.4757  0.2399 -1.0785
17989THY    CP145791   6.138   1.251   2.720 -0.6746  0.7252  0.0546
17989THY    HP145792   6.066   1.254   2.638  0.3188 -0.1560  0.4527
17989THY    CP245793   6.101   1.366   2.822  0.1710 -1.1467 -0.4830
17989THY    HP245794   6.115   1.467   2.782 -2.8422 -3.3647 -0.8027
17989THY    HP345795   6.174   1.351   2.903 -0.3592 -0.8457 -1.5820
17989THY    HP445796   5.999   1.353   2.862  0.1683 -1.7806 -3.0419
17989THY    CP345797   6.136   1.112   2.779 -0.0939 -0.5771 -0.3877
17989THY    HP545798   6.032   1.098   2.809  0.3130  2.7979  2.4316
17989THY    HP645799   6.206   1.111   2.863  1.2307 -1.6369 -1.5849
17989THY    HP745800   6.167   1.037   2.706  1.1523 -0.8284  0.3353
17989THY    CA345801   6.400   1.253   2.717  0.3614 -0.3822 -0.3468
17989THY    HA345802   6.404   1.204   2.814  1.1614 -0.4453 -0.4141
17989THY    CA445803   6.519   1.293   2.662 -0.3617  0.3768  0.3386
17989THY    HA445804   6.613   1.274   2.714  0.8252 -1.0035  2.1165
17989THY    CA545805   6.516   1.363   2.544  0.1171  0.3491 -0.0181
17989THY    CM145806   6.656   1.395   2.487 -0.2164  0.9102 -0.0339
17989THY    HM145807   6.655   1.504   2.478  1.5740  2.0515  0.1047
17989THY    HM245808   6.669   1.353   2.387  3.0371  0.7588  1.1007
17989THY    HM345809   6.722   1.362   2.568 -0.0428  0.5137 -0.6940
17989THY    CA645810   6.400   1.380   2.473  0.3655  0.5461 -0.3431
17989THY    HA645811   6.409   1.427   2.375  1.9504  1.7070  1.9213
17990THY      O45812   6.238   4.191   2.644 -0.1353 -0.1961  0.1763
17990THY     HO45813   6.191   4.108   2.625  2.0426 -0.0721 -1.1666
17990THY    CA145814   6.352   4.165   2.568  0.0362  0.1603 -0.5704
17990THY    CA245815   6.407   4.264   2.489  0.1172 -0.4254 -0.0293
17990THY    CP145816   6.350   4.405   2.490 -0.0190 -0.1433 -0.2022
17990THY    HP145817   6.266   4.418   2.560  0.9397  1.1029 -0.4337
17990THY    CP245818   6.296   4.423   2.348  0.2667  0.2086 -0.1811
17990THY    HP245819   6.374   4.406   2.272  0.2711  0.2241 -0.2338
17990THY    HP345820   6.259   4.525   2.331  1.6744 -0.1281  0.2963
17990THY    HP445821   6.224   4.352   2.305  1.3615 -3.1527  0.5375
17990THY    CP345822   6.449   4.519   2.511 -0.0158  0.3887  0.3980
17990THY    HP545823   6.398   4.614   2.491  0.9951  1.4296  1.1925
17990THY    HP645824   6.525   4.511   2.433  0.4348  0.9434 -1.3945
17990THY    HP745825   6.496   4.513   2.610 -0.2569  0.5922  1.7043
17990THY    CA345826   6.510   4.226   2.403 -0.0822 -0.0235 -0.2163
17990THY    HA345827   6.556   4.298   2.336 -0.0905  1.7900  1.5958
17990THY    CA445828   6.557   4.097   2.400  0.0412  0.8688  0.4281
17990THY    HA445829   6.646   4.074   2.343  0.4320  2.1149 -1.3840
17990THY    CA545830   6.493   3.998   2.477 -0.9445 -0.2216 -0.0157
17990THY    CM145831   6.556   3.860   2.469 -0.8950  0.0799 -0.7486
17990THY    HM145832   6.572   3.819   2.569  1.1988  1.5413  3.1382
17990THY    HM245833   6.651   3.859   2.414 -0.7675  0.3006 -1.5056
17990THY    HM345834   6.497   3.792   2.405  2.0874 -0.9692 -2.5657
17990THY    CA645835   6.393   4.030   2.567 -0.2673  0.6463 -0.3886
17990THY    HA645836   6.348   3.955   2.632  2.1732 -0.8425 -3.3686
17991THY      O45837   5.952   6.559   6.927 -0.4169 -0.6972 -0.2246
17991THY     HO45838   5.872   6.605   6.959 -1.2890 -4.8213  1.5061
17991THY    CA145839   5.975   6.463   7.025 -0.4851  0.6482 -1.0147
17991THY    CA245840   6.053   6.349   6.996 -0.2740  0.0942  0.0085
17991THY    CP145841   6.126   6.338   6.868 -0.7725  0.2236  0.1444
17991THY    HP145842   6.143   6.437   6.824 -0.6105 -0.0179  0.0104
17991THY    CP245843   6.051   6.255   6.762 -0.4035  0.1827 -0.1647
17991THY    HP245844   5.962   6.312   6.733  2.0909 -3.1908  2.4788
17991THY    HP345845   6.024   6.154   6.795 -0.0438 -2.0654 -1.0564
17991THY    HP445846   6.102   6.248   6.665 -0.2800  0.1663  0.8161
17991THY    CP345847   6.272   6.293   6.889 -0.9351  0.2504  0.1304
17991THY    HP545848   6.304   6.336   6.984 -1.5777  0.5987 -0.1443
17991THY    HP645849   6.341   6.316   6.807  0.1576  0.6069 -1.6357
17991THY    HP745850   6.281   6.184   6.896  1.6246  0.8691  0.3270
17991THY    CA345851   6.054   6.251   7.098  0.6064 -0.2446  0.7320
17991THY    HA345852   6.107   6.158   7.082 -0.8074  1.7353 -0.4938
17991THY    CA445853   5.965   6.264   7.212  0.1814  0.8489 -0.2557
17991THY    HA445854   5.957   6.178   7.278 -0.5760  0.6609 -0.3328
17991THY    CA545855   5.884   6.377   7.230  0.2387 -0.6352 -0.0326
17991THY    CM145856   5.799   6.384   7.348  0.2254  0.1244  0.5710
17991THY    HM145857   5.857   6.392   7.440 -0.7664  0.7234  1.0983
17991THY    HM245858   5.729   6.300   7.352 -0.0862 -0.1603  0.8136
17991THY    HM345859   5.740   6.476   7.348 -1.6362  1.9700 -0.5206
17991THY    CA645860   5.894   6.474   7.136  0.4545  0.3694 -0.4652
17991THY    HA645861   5.848   6.569   7.157 -2.4575  1.4373 -1.9978
17992THY      O45862   8.850   7.487   3.261  0.2450 -0.2434 -0.0488
17992THY     HO45863   8.765   7.467   3.304 -0.2607 -1.8297 -1.6821
17992THY    CA145864   8.894   7.592   3.334 -0.0740  0.1456 -0.6290
17992THY    CA245865   8.985   7.694   3.281  0.5212  0.6040  0.6158
17992THY    CP145866   9.010   7.696   3.129 -0.1917  0.9493  0.2033
17992THY    HP145867   8.939   7.636   3.071  0.7827 -1.6407  1.3605
17992THY    CP245868   9.146   7.636   3.099 -0.1019  0.4099  0.4884
17992THY    HP245869   9.220   7.699   3.149  0.8926 -0.2854 -0.0882
17992THY    HP345870   9.171   7.649   2.993 -2.7406 -0.3831 -0.2733
17992THY    HP445871   9.155   7.532   3.132  0.1828  1.5468  0.8604
17992THY    CP345872   8.986   7.831   3.063  0.5338 -0.3441  0.2431
17992THY    HP545873   8.883   7.860   3.089 -0.0968  0.2100 -2.2270
17992THY    HP645874   9.001   7.834   2.954  0.9170 -0.2778  1.0245
17992THY    HP745875   9.054   7.910   3.096  0.4506 -2.1942  1.1636
17992THY    CA345876   9.047   7.781   3.371  0.2904 -0.7752 -0.2466
17992THY    HA345877   9.123   7.855   3.348  1.1533  1.9005 -0.1980
17992THY    CA445878   9.008   7.777   3.507 -0.1579  0.9175 -0.3187
17992THY    HA445879   9.050   7.855   3.570  1.1913 -0.7201  0.3346
17992THY    CA545880   8.920   7.681   3.552  0.3276 -0.2161  0.0114
17992THY    CM145881   8.889   7.675   3.697  0.3534 -0.1139 -0.4777
17992THY    HM145882   8.976   7.697   3.760 -0.5276  1.2062 -0.6353
17992THY    HM245883   8.849   7.577   3.725  0.8370 -1.2028 -1.0088
17992THY    HM345884   8.811   7.748   3.722 -0.2775 -0.6362 -0.9556
17992THY    CA645885   8.869   7.585   3.471  0.1806 -0.4119 -0.2267
17992THY    HA645886   8.797   7.515   3.512 -1.1113 -0.0505  1.2495
17993THY      O45887   0.866   7.696   4.849 -0.5069 -0.2333 -0.5398
17993THY     HO45888   0.937   7.636   4.822 -0.5892 -0.0243 -0.7367
17993THY    CA145889   0.768   7.664   4.763  0.0691  0.9210  0.0610
17993THY    CA245890   0.643   7.739   4.752  0.0659 -0.0419  0.1586
17993THY    CP145891   0.607   7.851   4.850 -0.6816  0.8131  0.3940
17993THY    HP145892   0.683   7.862   4.929 -1.3169  1.8917 -2.2144
17993THY    CP245893   0.489   7.818   4.933 -0.2388  0.2022  0.1821
17993THY    HP245894   0.474   7.892   5.013 -0.8158  0.5201 -0.2624
17993THY    HP345895   0.505   7.730   4.996 -0.0044  0.5824  0.4947
17993THY    HP445896   0.395   7.799   4.879 -1.4505  2.5836 -1.0798
17993THY    CP345897   0.593   7.986   4.785  0.1726  0.1992 -0.3967
17993THY    HP545898   0.670   8.009   4.710  0.7930  0.3178 -2.0000
17993THY    HP645899   0.599   8.074   4.850 -1.5313 -0.0450 -0.0585
17993THY    HP745900   0.494   7.990   4.738  0.9624 -1.4978  0.5624
17993THY    CA345901   0.552   7.702   4.649 -0.9289  0.2345  0.2370
17993THY    HA345902   0.463   7.765   4.645 -0.5594 -0.2472  0.7389
17993THY    CA445903   0.586   7.596   4.563 -0.1816  0.2615 -0.3856
17993THY    HA445904   0.526   7.568   4.477 -0.6138  1.0381 -1.9829
17993THY    CA545905   0.708   7.530   4.558  0.0097 -0.3636 -0.4082
17993THY    CM145906   0.748   7.433   4.454 -0.0855  0.4725  0.0469
17993THY    HM145907   0.814   7.358   4.499  2.5578  0.0333  1.9799
17993THY    HM245908   0.804   7.479   4.372 -3.4135 -1.2768  1.3184
17993THY    HM345909   0.664   7.392   4.397 -0.4587  2.0561 -1.5083
17993THY    CA645910   0.797   7.567   4.664 -0.5442 -0.0183 -0.0987
17993THY    HA645911   0.893   7.518   4.661 -0.8033 -2.6417 -0.5725
17994THY      O45912   5.977   7.937   7.112 -0.3016  0.4700 -0.1022
17994THY     HO45913   6.042   7.953   7.042 -0.8699 -0.2418 -0.8220
17994THY    CA145914   5.984   8.041   7.204 -0.1141  0.8228 -0.3508
17994THY    CA245915   5.913   8.028   7.328 -0.7432 -0.6145 -0.1315
17994THY    CP145916   5.823   7.912   7.351 -0.0927 -0.7430  0.3651
17994THY    HP145917   5.825   7.845   7.265 -0.4270 -0.2766 -0.2572
17994THY    CP245918   5.680   7.962   7.364  0.6101  0.3604 -0.1341
17994THY    HP245919   5.645   8.003   7.459 -0.2644  0.5192 -1.2092
17994THY    HP345920   5.608   7.882   7.343 -0.8943  2.5082  0.5864
17994THY    HP445921   5.656   8.029   7.280 -0.8344  0.0789 -0.9680
17994THY    CP345922   5.868   7.826   7.478  0.3765  0.5174  0.8392
17994THY    HP545923   5.968   7.784   7.462  0.3798 -1.9944  1.6530
17994THY    HP645924   5.804   7.738   7.491  2.0813  1.7141 -0.2658
17994THY    HP745925   5.854   7.882   7.572 -0.0930  1.2160 -0.4181
17994THY    CA345926   5.933   8.132   7.427  0.4727 -0.2317 -0.6370
17994THY    HA345927   5.899   8.125   7.530  0.8314  0.0052  0.8614
17994THY    CA445928   6.011   8.245   7.392  0.1647 -0.6570 -0.4979
17994THY    HA445929   6.025   8.324   7.465 -2.4226 -1.7295  1.0912
17994THY    CA545930   6.076   8.253   7.269  0.3888  0.1231  0.2875
17994THY    CM145931   6.163   8.365   7.238  0.4747 -0.0380  0.0219
17994THY    HM145932   6.124   8.433   7.161  0.6068 -1.8503 -1.8592
17994THY    HM245933   6.254   8.336   7.183  0.9321 -1.9100  4.2075
17994THY    HM345934   6.190   8.436   7.317  1.0029  0.8654 -1.1541
17994THY    CA645935   6.054   8.155   7.169  0.5545 -0.2902  0.4929
17994THY    HA645936   6.100   8.166   7.071  0.6481 -0.5689 -1.9750
17995THY      O45937   1.853   4.981   4.547  0.6119 -0.1856 -0.0932
17995THY     HO45938   1.815   4.918   4.483  0.1388 -1.4932  1.4551
17995THY    CA145939   1.767   5.092   4.548 -0.3270  0.1602  0.6797
17995THY    CA245940   1.706   5.136   4.666 -0.4132  0.3533 -1.1792
17995THY    CP145941   1.736   5.074   4.801  0.3866 -0.3695  0.2890
17995THY    HP145942   1.804   4.988   4.798  1.0786  0.7923  0.7647
17995THY    CP245943   1.602   5.014   4.863 -0.1571 -0.3031 -0.4308
17995THY    HP245944   1.615   4.976   4.964  1.3805  0.1843  1.2430
17995THY    HP345945   1.580   4.931   4.794  1.8864 -0.8320 -0.5769
17995THY    HP445946   1.525   5.093   4.865  1.6520  0.3481  1.4116
17995THY    CP345947   1.784   5.180   4.899 -0.2013 -0.2574 -0.4798
17995THY    HP545948   1.709   5.259   4.910  2.0765 -2.4838  2.2538
17995THY    HP645949   1.876   5.229   4.863  0.3137  0.1229 -1.1513
17995THY    HP745950   1.808   5.130   4.993  0.9710  0.1267  0.7267
17995THY    CA345951   1.620   5.250   4.653 -0.7584  0.1103  0.0584
17995THY    HA345952   1.575   5.296   4.740 -1.1384 -0.1137  0.1172
17995THY    CA445953   1.601   5.315   4.531  0.7513 -1.1236  0.2296
17995THY    HA445954   1.539   5.402   4.517 -0.2088 -1.5822 -0.5037
17995THY    CA545955   1.657   5.258   4.418  0.1406 -0.0923 -0.4314
17995THY    CM145956   1.632   5.333   4.293  0.0869  0.0827  0.3962
17995THY    HM145957   1.529   5.369   4.293  0.2831  0.6221  0.9758
17995THY    HM245958   1.621   5.276   4.200 -0.3450  1.3823 -1.7649
17995THY    HM345959   1.705   5.415   4.282 -0.3595  0.5378  0.8586
17995THY    CA645960   1.737   5.146   4.423  0.4016  0.5110 -0.2771
17995THY    HA645961   1.774   5.105   4.329 -1.0178  0.1926 -0.8922
17996THY      O45962   5.038   7.261   1.977  0.4270 -0.2026  0.3520
17996THY     HO45963   5.124   7.306   1.980  0.2966 -1.9534  0.8230
17996THY    CA145964   4.961   7.289   2.089  0.6673 -0.3516  1.0095
17996THY    CA245965   4.870   7.193   2.137  0.4025  0.2186 -0.0134
17996THY    CP145966   4.868   7.052   2.074  0.4173  0.5670 -0.3563
17996THY    HP145967   4.959   7.020   2.022 -0.2050 -1.3323  0.7951
17996THY    CP245968   4.751   7.045   1.976  0.0140  1.1121  0.5930
17996THY    HP245969   4.653   7.072   2.017 -2.0626 -1.6147 -2.1974
17996THY    HP345970   4.726   6.945   1.940 -1.9052  0.9811  1.0853
17996THY    HP445971   4.758   7.120   1.896 -1.0364  0.7063  0.2636
17996THY    CP345972   4.842   6.940   2.185 -0.2245  0.2022 -0.0703
17996THY    HP545973   4.914   6.946   2.267 -0.6632  0.9411 -3.0922
17996THY    HP645974   4.864   6.840   2.147  1.2690  0.8493 -0.0121
17996THY    HP745975   4.746   6.944   2.237  0.5168  1.5243  3.2315
17996THY    CA345976   4.791   7.221   2.249  0.8300  0.0764  0.2495
17996THY    HA345977   4.720   7.152   2.291  0.5385 -0.0492  0.4715
17996THY    CA445978   4.801   7.350   2.313  0.3787  0.7917  0.4388
17996THY    HA445979   4.731   7.383   2.389  0.3881  0.8512  0.3216
17996THY    CA545980   4.895   7.441   2.260  0.3909  0.0576 -0.0004
17996THY    CM145981   4.913   7.577   2.322 -0.6715 -0.0344 -0.5240
17996THY    HM145982   5.020   7.597   2.335 -0.5285 -1.5771 -0.1126
17996THY    HM245983   4.856   7.588   2.415  1.7567  1.4928  0.0825
17996THY    HM345984   4.875   7.646   2.246  2.0305 -1.6801 -0.7112
17996THY    CA645985   4.975   7.409   2.153  0.4821 -0.3954 -0.1231
17996THY    HA645986   5.029   7.492   2.107  0.2042 -2.4441 -1.0068
17997THY      O45987   5.973   1.750   3.363 -0.0764 -0.5844  0.4091
17997THY     HO45988   5.910   1.687   3.325 -0.1615  1.2442 -0.6740
17997THY    CA145989   5.920   1.863   3.323 -0.1363 -0.5422 -0.3260
17997THY    CA245990   5.955   1.986   3.388  0.2292  0.6774 -0.2444
17997THY    CP145991   6.076   1.990   3.486  0.2366  1.0948  0.3959
17997THY    HP145992   6.138   1.900   3.479 -0.9273  1.5384 -0.4572
17997THY    CP245993   6.041   1.998   3.629 -0.4444 -0.0221 -0.4949
17997THY    HP245994   5.988   1.909   3.666  2.3181  5.2193 -0.3269
17997THY    HP345995   5.982   2.089   3.646  2.1732  1.8073  0.9697
17997THY    HP445996   6.131   2.000   3.692  1.1512 -2.2157  0.5270
17997THY    CP345997   6.161   2.116   3.453 -0.1516  0.5680  0.3113
17997THY    HP545998   6.241   2.133   3.525  0.7874 -0.7284  1.5992
17997THY    HP645999   6.111   2.212   3.464  0.5947 -0.4041  0.8286
17997THY    HP746000   6.193   2.106   3.349  0.4654  0.9356 -2.3595
17997THY    CA346001   5.887   2.103   3.340  0.5853  0.2164 -0.8270
17997THY    HA346002   5.919   2.196   3.385 -0.2642  2.6822 -1.6295
17997THY    CA446003   5.785   2.093   3.247 -0.3185  0.0933  0.1932
17997THY    HA446004   5.745   2.185   3.206 -0.1882 -0.9924 -0.2191
17997THY    CA546005   5.741   1.966   3.194 -0.4288  0.0136  0.5106
17997THY    CM146006   5.624   1.957   3.105  0.5260 -0.0187 -0.4335
17997THY    HM146007   5.609   1.867   3.044  2.0086 -2.3558  0.8117
17997THY    HM246008   5.611   2.036   3.031  2.0880  0.6820  0.5228
17997THY    HM346009   5.529   1.959   3.159 -1.0781 -2.6442  2.1764
17997THY    CA646010   5.813   1.853   3.230 -0.0713 -0.3220 -0.3399
17997THY    HA646011   5.798   1.760   3.177  1.4013  0.7357 -1.2252
17998THY      O46012   4.256   9.482   7.585  0.4151 -0.7806 -0.0260
17998THY     HO46013   4.197   9.549   7.547 -2.5782  1.4014 -1.2017
17998THY    CA146014   4.180   9.370   7.601 -0.4480 -0.4510  0.3857
17998THY    CA246015   4.237   9.268   7.681  0.0977  0.7525  0.5707
17998THY    CP146016   4.383   9.270   7.726  0.3139 -0.2707  0.1875
17998THY    HP146017   4.422   9.372   7.738  1.0138  0.6049 -0.1750
17998THY    CP246018   4.475   9.203   7.621  0.0093 -0.2007 -0.4244
17998THY    HP246019   4.583   9.200   7.640 -0.4691  2.9138 -0.8391
17998THY    HP346020   4.455   9.255   7.526  0.2117  0.2126  0.4151
17998THY    HP446021   4.447   9.098   7.613  0.5113  0.3886 -0.6062
17998THY    CP346022   4.409   9.210   7.858  0.6487  0.7400  0.1797
17998THY    HP546023   4.339   9.244   7.935 -1.2268 -0.0410 -1.6812
17998THY    HP646024   4.507   9.242   7.895  2.0320 -2.4850  0.0840
17998THY    HP746025   4.409   9.100   7.852  0.3078 -0.3360  0.2283
17998THY    CA346026   4.155   9.151   7.708 -0.0960 -0.5724 -0.4849
17998THY    HA346027   4.195   9.074   7.773 -1.3527 -0.1020 -0.7532
17998THY    CA446028   4.025   9.138   7.657 -0.4240 -0.7219  0.4628
17998THY    HA446029   3.964   9.051   7.678  0.4210  0.8059  0.1983
17998THY    CA546030   3.968   9.239   7.575 -0.1126 -0.2331 -0.8550
17998THY    CM146031   3.824   9.216   7.514 -1.0814 -0.2397  0.5690
17998THY    HM146032   3.748   9.204   7.592 -1.4593 -0.3255  2.0916
17998THY    HM246033   3.818   9.129   7.448 -1.3212 -1.2532  1.3321
17998THY    HM346034   3.797   9.308   7.460  0.0429 -1.6860  0.0886
17998THY    CA646035   4.047   9.358   7.554  0.0584 -0.8665 -0.8986
17998THY    HA646036   4.012   9.437   7.487  0.9336  0.8845  1.0502
17999THY      O46037   5.709   0.986   7.078  0.4290 -0.2566 -0.5594
17999THY     HO46038   5.636   1.025   7.027  0.0715  0.2322 -0.5818
17999THY    CA146039   5.817   1.061   7.081  0.1091 -0.1440  0.0321
17999THY    CA246040   5.926   1.020   7.156 -0.6410 -0.8223  0.7495
17999THY    CP146041   5.924   0.881   7.215  0.0557 -0.1704  0.1592
17999THY    HP146042   5.821   0.860   7.247 -0.3293 -1.4430 -0.0335
17999THY    CP246043   6.005   0.868   7.337 -0.5252  0.0122  0.2727
17999THY    HP246044   5.974   0.939   7.415  0.2337  0.4043  0.1899
17999THY    HP346045   6.111   0.881   7.315 -1.0938 -2.3660  1.2283
17999THY    HP446046   5.990   0.774   7.392  1.9941  0.5163  0.0908
17999THY    CP346047   5.963   0.765   7.115  0.1221 -0.4496 -0.1478
17999THY    HP546048   5.883   0.762   7.040 -0.5776  0.2872 -0.0213
17999THY    HP646049   5.973   0.677   7.180 -0.5639  0.5385  0.4869
17999THY    HP746050   6.067   0.782   7.082  0.5417  0.4676 -0.8306
17999THY    CA346051   6.040   1.104   7.167 -0.4232  0.8001 -0.3889
17999THY    HA346052   6.126   1.083   7.230 -0.9549  1.2564 -1.2344
17999THY    CA446053   6.041   1.223   7.095  0.3120  0.1897  0.3099
17999THY    HA446054   6.127   1.290   7.093  0.7071  0.3145 -0.1848
17999THY    CA546055   5.935   1.262   7.019  0.2762  0.1136  0.0439
17999THY    CM146056   5.931   1.395   6.952 -0.1287 -0.0540 -0.0123
17999THY    HM146057   5.843   1.407   6.888  1.8449 -2.4343  4.4024
17999THY    HM246058   6.008   1.410   6.876 -0.4694 -0.3234  0.4038
17999THY    HM346059   5.926   1.475   7.027 -2.0727 -1.4643  1.2854
17999THY    CA646060   5.822   1.179   7.004 -0.4805  0.3434  0.5826
17999THY    HA646061   5.746   1.198   6.928 -0.5943  0.0509 -0.9243
18000THY      O46062   0.689   0.549   4.830 -0.5110 -0.1862 -0.4914
18000THY     HO46063   0.593   0.565   4.823 -0.3425 -1.1986  0.1254
18000THY    CA146064   0.720   0.529   4.697  0.1045  0.5072  0.1936
18000THY    CA246065   0.854   0.530   4.648  0.0607 -0.4130  0.4177
18000THY    CP146066   0.966   0.561   4.747 -0.2378  0.1074 -0.4853
18000THY    HP146067   0.931   0.591   4.847 -0.0496  0.2624 -0.7790
18000THY    CP246068   1.046   0.685   4.705  0.4545 -0.9322  0.8438
18000THY    HP246069   1.099   0.658   4.614  2.6519  1.1130 -2.4927
18000THY    HP346070   1.129   0.698   4.777 -0.7586  0.5450  0.7019
18000THY    HP446071   0.986   0.776   4.696 -1.4682 -0.3210 -0.3132
18000THY    CP346072   1.040   0.429   4.774 -0.1278  0.2762 -0.7434
18000THY    HP546073   0.997   0.352   4.840  2.2055  0.9640 -1.5541
18000THY    HP646074   1.130   0.449   4.834  0.2868 -0.4705 -0.3512
18000THY    HP746075   1.066   0.370   4.686  0.0785  1.4454 -2.4942
18000THY    CA346076   0.874   0.501   4.517  0.0338  0.8462  0.0718
18000THY    HA346077   0.972   0.500   4.471 -1.7795 -3.6693  1.2590
18000THY    CA446078   0.767   0.458   4.435  0.3281 -0.3113  0.5535
18000THY    HA446079   0.781   0.433   4.331 -0.8790 -0.3664  0.0033
18000THY    CA546080   0.639   0.459   4.483 -0.0339  0.1677 -0.3213
18000THY    CM146081   0.523   0.441   4.393  0.0365  0.3058  0.2224
18000THY    HM146082   0.548   0.355   4.329  4.0934  0.6083  0.9788
18000THY    HM246083   0.515   0.537   4.340 -0.8490  2.7492  1.5735
18000THY    HM346084   0.424   0.427   4.439  0.2567  0.5383 -0.6161
18000THY    CA646085   0.614   0.498   4.614 -0.6943  0.7423 -0.7234
18000THY    HA646086   0.512   0.493   4.653 -0.7009  0.5816 -2.0389
18001THY      O46087   2.821   6.645   6.476 -0.1156  0.2124  0.0915
18001THY     HO46088   2.818   6.554   6.508 -0.5859  0.6373  0.2544
18001THY    CA146089   2.698   6.675   6.429  0.0437 -0.0950 -0.6305
18001THY    CA246090   2.640   6.808   6.445 -0.2818 -0.2983 -0.7296
18001THY    CP146091   2.697   6.925   6.531  0.4500  0.6960  0.8072
18001THY    HP146092   2.782   6.884   6.587  1.7275 -2.7344 -1.6983
18001THY    CP246093   2.593   6.998   6.625  0.8282  0.3493  0.3795
18001THY    HP246094   2.545   6.931   6.697  0.1992  0.3420  0.8184
18001THY    HP346095   2.510   7.047   6.573  1.5400 -1.3889 -0.1707
18001THY    HP446096   2.637   7.078   6.686 -1.7559 -0.4831  2.6013
18001THY    CP346097   2.768   7.026   6.437  0.2652 -0.4000  0.3629
18001THY    HP546098   2.827   6.977   6.359  1.5166 -0.9012  2.5058
18001THY    HP646099   2.825   7.086   6.509 -2.3136  2.4425 -0.3620
18001THY    HP746100   2.696   7.089   6.383  1.4227 -2.1628  0.2315
18001THY    CA346101   2.517   6.836   6.386  0.3581 -0.8575  0.6797
18001THY    HA346102   2.472   6.933   6.405  1.8789 -1.2196  1.4742
18001THY    CA446103   2.453   6.739   6.310  0.3646 -0.5137 -0.5124
18001THY    HA446104   2.349   6.752   6.280 -0.9828  2.8488 -2.1903
18001THY    CA546105   2.510   6.613   6.295  0.8042 -0.8220  0.3864
18001THY    CM146106   2.448   6.516   6.202 -0.3442  0.5012 -0.3006
18001THY    HM146107   2.508   6.507   6.111 -0.7158  0.0957  0.9797
18001THY    HM246108   2.352   6.559   6.172 -0.5498 -1.0014 -1.7137
18001THY    HM346109   2.441   6.418   6.251 -1.7796  1.7290  0.3585
18001THY    CA646110   2.634   6.579   6.345 -0.2270  0.1057  0.0408
18001THY    HA646111   2.684   6.483   6.327  2.1222  1.4893  0.9202
18002THY      O46112   3.429   3.038   3.664 -0.1342 -0.6093 -0.1762
18002THY     HO46113   3.430   3.135   3.662  0.1604  0.4014 -0.1470
18002THY    CA146114   3.560   3.000   3.639 -0.2433 -0.1499 -0.0284
18002THY    CA246115   3.593   2.865   3.611  0.0626  0.1566  0.1823
18002THY    CP146116   3.480   2.778   3.572  0.4148  0.3732  0.3812
18002THY    HP146117   3.392   2.833   3.536 -0.3599  1.8149  0.1312
18002THY    CP246118   3.450   2.693   3.690 -0.6357  0.1093 -0.1267
18002THY    HP246119   3.442   2.759   3.777  0.2253  0.0585  0.0508
18002THY    HP346120   3.529   2.623   3.719  0.6216  0.6582  1.4516
18002THY    HP446121   3.360   2.634   3.670  0.1561  1.3462 -1.8166
18002THY    CP346122   3.516   2.693   3.452 -0.0212  0.1040  0.3245
18002THY    HP546123   3.571   2.745   3.374 -0.1261  0.4296  0.9374
18002THY    HP646124   3.427   2.650   3.405  1.1352 -2.7206  0.7916
18002THY    HP746125   3.576   2.608   3.486  0.9156 -0.1128  0.8842
18002THY    CA346126   3.728   2.830   3.599  0.6402 -0.4042  0.1882
18002THY    HA346127   3.758   2.730   3.569  0.0123  0.8218 -0.3956
18002THY    CA446128   3.831   2.927   3.615  0.2806  0.3817 -0.3784
18002THY    HA446129   3.937   2.904   3.615  0.8812  1.2417  2.0141
18002THY    CA546130   3.795   3.061   3.647 -0.0815 -0.0823 -0.0252
18002THY    CM146131   3.894   3.165   3.679 -0.7277  0.0513  0.0108
18002THY    HM146132   3.995   3.143   3.643 -1.2021 -0.7158 -1.0511
18002THY    HM246133   3.914   3.169   3.787  1.5501 -0.2800 -0.8362
18002THY    HM346134   3.857   3.259   3.638 -1.4177 -0.5846 -0.5207
18002THY    CA646135   3.659   3.101   3.653 -0.3668  0.1581  0.2488
18002THY    HA646136   3.636   3.200   3.689  0.7248  3.3554 -0.5590
18003THY      O46137   9.213   0.887   5.656  0.3128 -0.2214 -0.0023
18003THY     HO46138   9.183   0.826   5.586  2.5627  0.6010 -2.2426
18003THY    CA146139   9.134   0.882   5.763  0.2954  0.6383  0.2330
18003THY    CA246140   9.160   0.955   5.877  0.1837 -0.3096  1.0387
18003THY    CP146141   9.280   1.050   5.888 -0.5201  0.2906 -0.0734
18003THY    HP146142   9.338   1.048   5.795  2.0145  1.7753 -1.0210
18003THY    CP246143   9.370   0.990   5.984 -0.4147  0.1479 -0.4567
18003THY    HP246144   9.402   0.895   5.940  3.0720 -1.1455  1.1595
18003THY    HP346145   9.329   0.961   6.082 -0.9787  0.3382  0.9203
18003THY    HP446146   9.463   1.045   6.001  0.4657 -2.3909 -1.0380
18003THY    CP346147   9.237   1.191   5.930  0.1378  0.2607 -0.5334
18003THY    HP546148   9.210   1.245   5.839  1.8472  0.8171  1.3802
18003THY    HP646149   9.317   1.248   5.977 -0.1397 -0.0385  0.1151
18003THY    HP746150   9.148   1.192   5.994 -0.5197 -0.6233  0.6672
18003THY    CA346151   9.079   0.925   5.991  0.2682  0.4597 -0.0775
18003THY    HA346152   9.092   0.968   6.090  0.0417  0.7343 -0.6341
18003THY    CA446153   8.979   0.828   5.984  0.6291 -0.0718  0.6817
18003THY    HA446154   8.917   0.808   6.071 -1.4782 -1.9224 -1.4631
18003THY    CA546155   8.950   0.759   5.865 -0.5035 -0.0214 -0.0386
18003THY    CM146156   8.844   0.648   5.859  0.0395  0.5319  0.2919
18003THY    HM146157   8.886   0.548   5.873 -0.0253  0.4096  0.2466
18003THY    HM246158   8.784   0.660   5.767  2.8345 -1.3492  0.7926
18003THY    HM346159   8.779   0.664   5.945  1.1904  1.6105 -0.6583
18003THY    CA646160   9.035   0.783   5.752 -0.0033 -0.0563 -0.6825
18003THY    HA646161   9.017   0.730   5.658  0.3647 -0.0605 -0.8055
18004THY      O46162   7.910   3.310   6.954  0.6113  0.1641  0.1145
18004THY     HO46163   7.917   3.330   7.049 -0.2870  0.1449  0.5508
18004THY    CA146164   7.838   3.199   6.948 -0.2261  0.3936  0.4604
18004THY    CA246165   7.797   3.143   6.825  0.5209 -0.1344 -0.1678
18004THY    CP146166   7.837   3.226   6.699 -0.1246  0.0340  0.0160
18004THY    HP146167   7.874   3.327   6.721  0.3242  2.5694 -0.6256
18004THY    CP246168   7.732   3.234   6.589 -0.4678 -0.3887  0.0450
18004THY    HP246169   7.763   3.300   6.507 -1.9657 -0.8573  0.2142
18004THY    HP346170   7.640   3.267   6.640  1.0606  1.0827  2.3091
18004THY    HP446171   7.707   3.135   6.548 -2.8045 -1.9344  1.1653
18004THY    CP346172   7.974   3.179   6.640  0.5844  0.3923  0.3715
18004THY    HP546173   8.052   3.172   6.716  0.5154  0.5031  0.7610
18004THY    HP646174   8.019   3.248   6.568  2.0822  0.1408 -0.8061
18004THY    HP746175   7.965   3.079   6.596 -2.4792  0.8355  0.3558
18004THY    CA346176   7.715   3.026   6.824 -0.3268  0.0706  1.2064
18004THY    HA346177   7.680   2.988   6.728 -0.0702  0.7721 -0.8956
18004THY    CA446178   7.686   2.966   6.944  0.5785 -0.5246  0.1182
18004THY    HA446179   7.627   2.874   6.944 -0.8315  0.0053  0.9894
18004THY    CA546180   7.726   3.018   7.065 -0.4006 -0.0022 -0.6290
18004THY    CM146181   7.687   2.953   7.199  0.3261 -0.2968  0.5263
18004THY    HM146182   7.768   2.949   7.272 -2.0505  2.5014 -0.5807
18004THY    HM246183   7.667   2.848   7.176  0.4022 -1.0193  0.6670
18004THY    HM346184   7.598   3.006   7.235  0.4783 -0.8845  1.1917
18004THY    CA646185   7.802   3.136   7.067 -0.3055 -0.0089 -0.4191
18004THY    HA646186   7.834   3.185   7.158 -2.6229  0.9121 -0.5254
18005THY      O46187   2.105   0.630   7.234  0.5134 -0.4188 -0.5669
18005THY     HO46188   2.118   0.538   7.206  3.1879 -0.3241 -0.2988
18005THY    CA146189   2.073   0.620   7.372 -0.8536 -0.4892  0.0735
18005THY    CA246190   2.103   0.716   7.467 -0.5118 -0.2112  0.3666
18005THY    CP146191   2.165   0.855   7.434  0.0995  0.5984 -0.0500
18005THY    HP146192   2.216   0.847   7.338  0.0020  0.5445 -0.0273
18005THY    CP246193   2.279   0.889   7.527  0.5729 -0.1017  0.3498
18005THY    HP246194   2.350   0.806   7.528  0.3700 -1.6107  0.1302
18005THY    HP346195   2.242   0.916   7.627  0.1040 -0.1738 -0.0035
18005THY    HP446196   2.324   0.980   7.487 -1.6029 -0.9770  1.1199
18005THY    CP346197   2.062   0.968   7.438  0.0123  0.4103  0.0667
18005THY    HP546198   2.107   1.057   7.393 -2.2934  0.2478  1.2014
18005THY    HP646199   2.024   0.994   7.537  0.7612  0.7743 -0.1950
18005THY    HP746200   1.980   0.927   7.377  0.3849 -0.7541  0.9849
18005THY    CA346201   2.064   0.688   7.601  0.1061  1.1738 -0.2701
18005THY    HA346202   2.076   0.767   7.674 -1.3932  1.5300 -0.3422
18005THY    CA446203   2.031   0.558   7.640 -0.7786  0.9754 -0.0523
18005THY    HA446204   2.008   0.530   7.742  0.7091  1.1771 -0.6107
18005THY    CA546205   2.011   0.464   7.543 -0.3171  0.2230  0.5482
18005THY    CM146206   1.983   0.318   7.580  0.6660  0.4259 -0.6995
18005THY    HM146207   1.879   0.313   7.616  0.6070  0.5031  0.6076
18005THY    HM246208   2.049   0.288   7.662  0.0528  0.6728 -1.3966
18005THY    HM346209   1.984   0.241   7.502 -0.8249  1.3391 -1.6890
18005THY    CA646210   2.024   0.491   7.412 -0.0703  0.7003 -0.0593
18005THY    HA646211   2.011   0.410   7.341  2.2150 -0.1272  0.2124
18006THY      O46212   0.967   0.366   7.176 -0.3933  0.3328 -0.1738
18006THY     HO46213   0.895   0.309   7.143  0.4030 -0.6901 -0.6269
18006THY    CA146214   0.954   0.483   7.109 -0.8990  0.3517  0.6739
18006THY    CA246215   1.054   0.581   7.114 -0.2254 -0.6742 -0.7778
18006THY    CP146216   1.185   0.551   7.197  0.8021  0.8394 -0.2237
18006THY    HP146217   1.177   0.457   7.252 -0.5031 -1.0241 -1.2867
18006THY    CP246218   1.205   0.659   7.307 -0.0084  0.4770 -0.1853
18006THY    HP246219   1.213   0.760   7.264  0.2483 -0.9072 -0.7664
18006THY    HP346220   1.289   0.640   7.374  1.2309 -1.5498 -2.4582
18006THY    HP446221   1.112   0.661   7.366  0.4067  1.1981 -1.3210
18006THY    CP346222   1.299   0.558   7.101  0.2989 -0.3423  0.7247
18006THY    HP546223   1.300   0.468   7.038  1.7470  0.2725  0.2961
18006THY    HP646224   1.390   0.557   7.161 -1.6116  2.7681 -1.3514
18006THY    HP746225   1.297   0.645   7.034  0.1139  0.3905  1.2883
18006THY    CA346226   1.034   0.699   7.050 -0.4091  0.2417 -0.5616
18006THY    HA346227   1.100   0.785   7.057 -0.8693 -2.2150  0.0554
18006THY    CA446228   0.913   0.723   6.978  0.1716 -0.1478 -0.1765
18006THY    HA446229   0.900   0.816   6.923  0.9200 -2.2212 -1.2375
18006THY    CA546230   0.808   0.628   6.985 -0.1151  0.5123  0.1617
18006THY    CM146231   0.676   0.656   6.912 -0.2848 -0.2151  0.0926
18006THY    HM146232   0.701   0.664   6.806 -1.6104 -0.4042  3.0959
18006THY    HM246233   0.631   0.751   6.941  2.9621  1.5182  1.2737
18006THY    HM346234   0.609   0.569   6.920  0.2261 -1.3591 -0.4196
18006THY    CA646235   0.831   0.511   7.050  0.1185  0.4171  0.0649
18006THY    HA646236   0.756   0.433   7.056 -0.0962 -0.7583  0.1631
18007THY      O46237   8.224   9.258   2.574 -0.1100  0.1294 -0.1015
18007THY     HO46238   8.246   9.352   2.558  0.2494  2.8018  0.3239
18007THY    CA146239   8.215   9.202   2.451 -0.2621  0.0697 -0.4490
18007THY    CA246240   8.214   9.063   2.432  0.4883  0.3413 -0.0172
18007THY    CP146241   8.204   8.967   2.553 -0.1342 -0.1087 -0.2893
18007THY    HP146242   8.238   9.023   2.640 -0.5225  0.8155 -1.4404
18007THY    CP246243   8.285   8.843   2.554  0.4415  0.2059 -0.2383
18007THY    HP246244   8.381   8.882   2.519 -0.3398  1.0390  2.7310
18007THY    HP346245   8.239   8.770   2.486 -1.4469  1.5384 -0.3499
18007THY    HP446246   8.298   8.791   2.649  2.0035  1.3029  1.9839
18007THY    CP346247   8.058   8.943   2.589  0.5465 -0.2202 -0.0486
18007THY    HP546248   8.050   8.877   2.675  2.0392 -0.4013 -0.4876
18007THY    HP646249   8.006   8.903   2.501  1.9682 -1.0535 -0.1226
18007THY    HP746250   8.008   9.036   2.621 -1.3973  0.1584 -1.1615
18007THY    CA346251   8.212   9.014   2.296  0.3572 -0.1245 -0.1012
18007THY    HA346252   8.204   8.906   2.289  3.1657  1.1674 -0.4780
18007THY    CA446253   8.227   9.108   2.192  0.1101  0.0275  0.4793
18007THY    HA446254   8.221   9.077   2.088  1.5093 -0.1032  0.5966
18007THY    CA546255   8.226   9.250   2.214 -0.0318  0.6997  0.1740
18007THY    CM146256   8.208   9.347   2.095 -1.0044  0.4375  0.5796
18007THY    HM146257   8.237   9.303   1.999  2.9419  1.6649  0.1791
18007THY    HM246258   8.277   9.430   2.111  0.2205  0.7249 -0.4632
18007THY    HM346259   8.103   9.377   2.082 -2.2807 -1.2082 -3.7884
18007THY    CA646260   8.229   9.292   2.344 -1.0571  0.2108  0.5239
18007THY    HA646261   8.240   9.400   2.352 -0.3624  0.4928  0.4378
18008THY      O46262   6.334   9.278   5.532  0.8109 -0.4560 -0.1493
18008THY     HO46263   6.361   9.363   5.492  1.1523  1.3433  0.6178
18008THY    CA146264   6.200   9.270   5.535 -0.0014 -0.1257 -0.0006
18008THY    CA246265   6.135   9.144   5.520 -0.7943 -0.0864 -0.1673
18008THY    CP146266   6.222   9.022   5.483 -0.1219  0.4233  0.3020
18008THY    HP146267   6.326   9.049   5.463  0.4926  2.6910 -0.1921
18008THY    CP246268   6.156   8.953   5.366  0.1080 -0.4990  0.0958
18008THY    HP246269   6.057   8.919   5.399  0.8863  0.9373 -0.9145
18008THY    HP346270   6.215   8.864   5.339 -0.2259 -1.2728  0.1061
18008THY    HP446271   6.151   9.021   5.281 -0.0305  0.2010  0.9710
18008THY    CP346272   6.230   8.920   5.601 -0.5531  0.1777  0.3222
18008THY    HP546273   6.132   8.872   5.615  0.0482  1.9824 -0.4495
18008THY    HP646274   6.258   8.980   5.688  1.2118 -1.3390  1.8461
18008THY    HP746275   6.300   8.836   5.590  1.1790  0.9332  1.6035
18008THY    CA346276   6.000   9.141   5.542  0.1843  0.4508  0.6920
18008THY    HA346277   5.948   9.046   5.533  1.6875 -1.6294  0.0030
18008THY    CA446278   5.933   9.254   5.591 -0.7669 -1.1245  0.4793
18008THY    HA446279   5.831   9.246   5.627 -0.1555  0.4386 -1.0165
18008THY    CA546280   6.003   9.366   5.618  0.0299 -0.4001 -0.3196
18008THY    CM146281   5.946   9.484   5.693  0.1416  0.5097  0.0960
18008THY    HM146282   5.876   9.454   5.772 -2.2146 -1.4244  0.1400
18008THY    HM246283   5.864   9.526   5.632  0.5851 -1.4176 -1.7002
18008THY    HM346284   6.021   9.553   5.734 -0.0979  0.1938  0.5487
18008THY    CA646285   6.135   9.378   5.590 -0.0368 -0.5888 -0.2330
18008THY    HA646286   6.194   9.464   5.622  1.9096  1.3435 -2.1624
18009THY      O46287   3.019   1.911   1.739 -0.1805  0.2927  0.1967
18009THY     HO46288   2.943   1.967   1.716 -0.1822  2.2335  1.0598
18009THY    CA146289   2.965   1.808   1.803  0.8308 -0.1418 -0.5868
18009THY    CA246290   3.049   1.717   1.872  0.4173  0.0101 -1.0781
18009THY    CP146291   3.206   1.737   1.884  0.5155 -0.9633  0.0543
18009THY    HP146292   3.233   1.836   1.845  2.0871  0.1252  0.1027
18009THY    CP246293   3.271   1.620   1.798  0.0295  0.2251 -0.3727
18009THY    HP246294   3.224   1.620   1.699 -1.6775  0.9864  0.1361
18009THY    HP346295   3.243   1.527   1.849  0.4888 -0.4987 -0.9132
18009THY    HP446296   3.380   1.626   1.787 -0.0375 -0.0557  0.3809
18009THY    CP346297   3.254   1.730   2.029  0.8395 -0.9599  0.3403
18009THY    HP546298   3.363   1.739   2.033  1.0567  3.2979 -1.7213
18009THY    HP646299   3.232   1.635   2.080 -2.9284 -0.8413  1.1037
18009THY    HP746300   3.215   1.809   2.095  0.3111 -0.2983 -0.4555
18009THY    CA346301   2.991   1.605   1.939 -0.7668  0.2218 -0.2881
18009THY    HA346302   3.051   1.535   1.997  1.0061 -0.9404  0.2036
18009THY    CA446303   2.858   1.580   1.917  0.0517 -0.1782  0.0614
18009THY    HA446304   2.814   1.508   1.986  2.0318  1.5484  0.3944
18009THY    CA546305   2.783   1.658   1.834  1.2464 -0.0888 -0.1082
18009THY    CM146306   2.630   1.646   1.834 -0.5092 -0.1135  0.6540
18009THY    HM146307   2.591   1.617   1.932 -1.9207 -0.9278 -0.3458
18009THY    HM246308   2.604   1.575   1.754 -0.2994 -0.1808  0.6538
18009THY    HM346309   2.586   1.745   1.815 -1.1665 -0.7643  0.2540
18009THY    CA646310   2.832   1.773   1.788 -0.1986 -0.5233 -0.5926
18009THY    HA646311   2.763   1.833   1.730  2.1386  0.4409  3.3620
18010THY      O46312   8.245   6.849   5.389 -0.0618 -0.4483 -0.1054
18010THY     HO46313   8.316   6.903   5.428  2.1596  0.6549 -3.4794
18010THY    CA146314   8.246   6.851   5.256 -0.5923 -0.2118  0.0769
18010THY    CA246315   8.169   6.762   5.181  0.4225  0.2238  0.7001
18010THY    CP146316   8.071   6.664   5.236  0.1916  0.1761  0.3970
18010THY    HP146317   8.073   6.667   5.346 -0.5310  0.2219 -0.2496
18010THY    CP246318   8.106   6.523   5.198 -0.4330 -0.4906 -0.4991
18010THY    HP246319   8.100   6.492   5.093 -0.4825 -0.6729  0.1182
18010THY    HP346320   8.037   6.451   5.244 -0.1894  0.0364 -0.3973
18010THY    HP446321   8.210   6.507   5.229 -0.3131  0.2812  1.4748
18010THY    CP346322   7.927   6.699   5.196  0.3247 -0.5120  0.3726
18010THY    HP546323   7.926   6.735   5.092  3.0964 -0.6738  0.1845
18010THY    HP646324   7.889   6.775   5.265  0.4901 -0.0020 -0.0048
18010THY    HP746325   7.858   6.613   5.198  0.7557 -1.1116  0.0012
18010THY    CA346326   8.175   6.773   5.042  0.3878 -0.3008 -0.3354
18010THY    HA346327   8.109   6.716   4.977 -2.0817  1.4013  0.4427
18010THY    CA446328   8.270   6.863   4.982 -0.1455  0.2156 -0.1989
18010THY    HA446329   8.255   6.889   4.878 -0.8195  0.2201 -0.5638
18010THY    CA546330   8.343   6.956   5.059 -0.4728  0.3809  0.0704
18010THY    CM146331   8.416   7.074   5.001 -0.2819  0.1914  0.5725
18010THY    HM146332   8.441   7.147   5.080  0.5341 -0.4096  0.9652
18010THY    HM246333   8.353   7.133   4.934  2.3722 -1.4174  1.7738
18010THY    HM346334   8.508   7.049   4.947  0.4474  0.7167  2.0070
18010THY    CA646335   8.326   6.946   5.196 -0.6188 -0.2808  0.6059
18010THY    HA646336   8.392   7.006   5.258 -0.4937  1.1348 -0.9011
18011THY      O46337   4.264   3.873   6.899 -0.2724 -0.0385 -0.4289
18011THY     HO46338   4.285   3.827   6.982  0.2939  0.2666  0.3716
18011THY    CA146339   4.338   3.795   6.813  0.8430 -0.0853 -0.0588
18011THY    CA246340   4.382   3.842   6.686  0.2892 -0.7146  0.2101
18011THY    CP146341   4.355   3.989   6.644  0.6429  0.8305  0.3197
18011THY    HP146342   4.323   4.049   6.731 -0.4946  1.4764 -1.1613
18011THY    CP246343   4.225   4.005   6.559  0.6747  1.2124 -0.0534
18011THY    HP246344   4.145   3.958   6.617 -0.0818  0.7502  0.6367
18011THY    HP346345   4.239   3.958   6.461 -0.9275  0.9693 -0.0825
18011THY    HP446346   4.181   4.104   6.544 -0.1995 -2.3134 -0.8323
18011THY    CP346347   4.477   4.063   6.575 -0.1724 -0.3582  0.0186
18011THY    HP546348   4.560   4.088   6.641 -0.2575 -0.5251  0.7515
18011THY    HP646349   4.433   4.159   6.545 -2.1354  0.8101 -0.4610
18011THY    HP746350   4.519   4.002   6.493  0.5461  1.0036 -1.3810
18011THY    CA346351   4.458   3.762   6.599  0.4070 -0.3345  0.5194
18011THY    HA346352   4.487   3.798   6.501  1.2467 -0.4199 -0.3452
18011THY    CA446353   4.486   3.633   6.649  0.5046 -0.1733  0.0124
18011THY    HA446354   4.533   3.562   6.582 -2.9218 -0.3842 -2.2693
18011THY    CA546355   4.443   3.589   6.774 -0.4243  0.2914  0.2746
18011THY    CM146356   4.476   3.448   6.810  1.0175  0.5454 -0.1297
18011THY    HM146357   4.455   3.445   6.917 -0.1864  0.3092 -1.5591
18011THY    HM246358   4.583   3.427   6.798  0.9115 -2.4821  0.5287
18011THY    HM346359   4.409   3.381   6.755  0.4626  1.0580 -0.0024
18011THY    CA646360   4.371   3.667   6.855 -0.5258  0.2389  0.4011
18011THY    HA646361   4.338   3.633   6.953  0.6266  0.9277  1.1777
18012THY      O46362   6.629   3.085   6.784 -0.6481 -0.5268  0.4913
18012THY     HO46363   6.557   3.019   6.790  0.2307  0.3381 -0.4221
18012THY    CA146364   6.729   3.048   6.864 -0.3799 -0.7197  0.4554
18012THY    CA246365   6.835   3.133   6.893 -0.4893 -0.1482  0.9891
18012THY    CP146366   6.836   3.275   6.837 -0.0804  0.5998  0.0764
18012THY    HP146367   6.735   3.295   6.798  0.6141 -1.2647  0.1208
18012THY    CP246368   6.936   3.283   6.727 -0.1954  0.2800 -0.5268
18012THY    HP246369   7.036   3.288   6.771 -0.9426  2.0861 -0.2945
18012THY    HP346370   6.920   3.377   6.673  0.6794 -1.7036 -1.4739
18012THY    HP446371   6.924   3.187   6.675  0.3912  2.2518 -1.7255
18012THY    CP346372   6.859   3.375   6.948  0.2871  0.2248  0.0669
18012THY    HP546373   6.787   3.365   7.031 -0.5672 -0.7527 -3.0560
18012THY    HP646374   6.859   3.478   6.912 -1.5318  0.8365  0.3143
18012THY    HP746375   6.955   3.364   7.001  0.7470 -0.7308 -0.5902
18012THY    CA346376   6.940   3.091   6.970 -0.3688 -0.0010  0.0003
18012THY    HA346377   7.009   3.167   7.005 -0.9332 -2.5637  1.8201
18012THY    CA446378   6.945   2.961   7.020 -0.1053  0.0717 -0.1160
18012THY    HA446379   7.029   2.945   7.087  2.0948 -1.6807  2.9675
18012THY    CA546380   6.848   2.873   6.982  0.2981  0.0069 -0.0214
18012THY    CM146381   6.850   2.730   7.035  1.0100  0.3444 -0.9845
18012THY    HM146382   6.951   2.706   7.069  1.5383  0.3078  1.0144
18012THY    HM246383   6.815   2.658   6.960 -0.3667  0.6200 -0.6407
18012THY    HM346384   6.786   2.717   7.123  2.2495  1.1854 -1.5312
18012THY    CA646385   6.741   2.917   6.904 -0.0661 -0.0286 -0.3271
18012THY    HA646386   6.664   2.849   6.869 -0.9732  0.7553  0.2879
18013THY      O46387   8.834   3.085   7.471  0.2960 -0.1915 -0.0216
18013THY     HO46388   8.861   3.028   7.397 -1.0064 -0.7641  0.0578
18013THY    CA146389   8.763   3.009   7.561  0.5988  0.7403  0.5099
18013THY    CA246390   8.679   3.060   7.659  0.0465  0.7824 -0.4410
18013THY    CP146391   8.665   3.210   7.673 -0.0217 -0.0296  0.4966
18013THY    HP146392   8.731   3.256   7.598 -0.3882  0.1000  1.2438
18013THY    CP246393   8.731   3.259   7.811  0.6941  0.5799 -0.7394
18013THY    HP246394   8.818   3.194   7.827  0.7849  1.6407 -0.3652
18013THY    HP346395   8.669   3.251   7.900  1.1622  1.2097  1.6815
18013THY    HP446396   8.752   3.366   7.798 -2.0753 -1.1422 -0.3168
18013THY    CP346397   8.522   3.271   7.641  0.0840  0.0700  0.2893
18013THY    HP546398   8.494   3.252   7.537  0.4751  0.2147 -1.2453
18013THY    HP646399   8.538   3.379   7.648 -1.1123 -0.4751  0.5115
18013THY    HP746400   8.451   3.247   7.721  2.4804  1.6554 -2.2892
18013THY    CA346401   8.610   2.977   7.752 -0.3785  0.0498 -0.4651
18013THY    HA346402   8.543   3.024   7.824  1.4482 -0.6902  3.6771
18013THY    CA446403   8.624   2.833   7.732  0.5147  0.1830 -0.3229
18013THY    HA446404   8.577   2.763   7.801 -2.6866 -1.4432  0.0300
18013THY    CA546405   8.699   2.783   7.628  0.3131  0.8487  0.1392
18013THY    CM146406   8.721   2.635   7.628 -0.0116  0.2491 -0.3034
18013THY    HM146407   8.625   2.583   7.631 -0.6987  0.7828  0.9259
18013THY    HM246408   8.756   2.600   7.726 -0.0779  0.2332 -0.4138
18013THY    HM346409   8.779   2.598   7.543 -0.7220  0.2366 -1.4185
18013THY    CA646410   8.768   2.871   7.548  0.3137 -0.0391 -0.3280
18013THY    HA646411   8.837   2.835   7.472 -0.0028 -0.3786 -0.2285
18014THY      O46412   1.613   3.902   5.025  0.5079  0.2111 -0.1406
18014THY     HO46413   1.538   3.945   4.978  0.6971 -2.4541 -2.4196
18014THY    CA146414   1.627   3.936   5.153  0.2083  0.1882  0.4650
18014THY    CA246415   1.707   3.860   5.241  0.0279  0.1796 -0.8612
18014THY    CP146416   1.776   3.741   5.190 -0.2147  0.3760  0.4358
18014THY    HP146417   1.741   3.710   5.091  2.7592 -0.2146 -1.4452
18014THY    CP246418   1.736   3.623   5.281  0.4285  0.1575  0.0510
18014THY    HP246419   1.797   3.613   5.371 -0.7261  1.1982  1.9146
18014THY    HP346420   1.750   3.526   5.231  0.4744 -0.3466  0.3132
18014THY    HP446421   1.629   3.632   5.305  0.7252  1.2500  0.9124
18014THY    CP346422   1.929   3.756   5.171  0.2173 -1.0809 -0.2019
18014THY    HP546423   1.953   3.838   5.103  2.8768  0.6968  0.6231
18014THY    HP646424   1.969   3.664   5.126  0.2723 -0.9636 -0.2357
18014THY    HP746425   1.973   3.764   5.271 -3.8684  0.8388  1.6635
18014THY    CA346426   1.722   3.906   5.374 -0.6036  0.1612 -1.2501
18014THY    HA346427   1.782   3.854   5.449  0.9341 -0.2865 -0.1787
18014THY    CA446428   1.654   4.020   5.418  0.6441  0.3999 -0.0521
18014THY    HA446429   1.667   4.058   5.519 -0.2296  0.0627  1.2167
18014THY    CA546430   1.585   4.098   5.320 -0.4394  0.3070 -0.4645
18014THY    CM146431   1.523   4.236   5.347 -0.1091  0.0359 -0.6380
18014THY    HM146432   1.535   4.292   5.254  4.0598  0.8367  0.1032
18014THY    HM246433   1.576   4.296   5.422  1.3546 -0.1595 -1.6401
18014THY    HM346434   1.419   4.233   5.382 -1.0377 -2.3812  0.4587
18014THY    CA646435   1.565   4.053   5.188  0.7047  0.3625  0.1584
18014THY    HA646436   1.514   4.114   5.114  2.5838  1.5202  3.3551
18015THY      O46437   7.184   3.944   5.490 -0.1695 -0.1244  0.0640
18015THY     HO46438   7.131   3.946   5.571  1.7441  1.1863 -0.4480
18015THY    CA146439   7.287   4.025   5.511 -0.3605  0.2090 -0.4836
18015THY    CA246440   7.312   4.151   5.447  0.0158 -0.3061  0.2281
18015THY    CP146441   7.203   4.203   5.344  0.4074  0.2523  0.1103
18015THY    HP146442   7.131   4.121   5.331  2.3634 -2.3444 -1.3657
18015THY    CP246443   7.260   4.213   5.199 -0.5147 -0.1672  0.2113
18015THY    HP246444   7.336   4.291   5.202  1.4446 -0.6089 -1.6001
18015THY    HP346445   7.176   4.232   5.131 -0.8781  0.3404  0.4615
18015THY    HP446446   7.313   4.122   5.170  1.0821  2.1553  0.3188
18015THY    CP346447   7.136   4.333   5.377 -0.4775  0.4584  0.0617
18015THY    HP546448   7.216   4.401   5.408 -0.5230 -1.2370  0.9465
18015THY    HP646449   7.070   4.314   5.462  0.7563  1.2548 -0.8817
18015THY    HP746450   7.074   4.376   5.297 -1.2964  2.1720  2.2955
18015THY    CA346451   7.429   4.228   5.478 -0.2150  0.2497  0.3926
18015THY    HA346452   7.432   4.330   5.439 -1.9161 -3.9828 -0.9403
18015THY    CA446453   7.534   4.165   5.549 -0.4250 -0.4190 -0.7843
18015THY    HA446454   7.629   4.215   5.567  1.1289 -2.6963 -2.6896
18015THY    CA546455   7.518   4.036   5.605  0.4852 -0.5576 -0.2354
18015THY    CM146456   7.631   3.968   5.686  0.1688  0.1480  0.0492
18015THY    HM146457   7.683   4.032   5.758 -0.5489 -0.1474  0.9905
18015THY    HM246458   7.707   3.918   5.624  1.6524  1.2851  0.8080
18015THY    HM346459   7.583   3.886   5.739  1.0121 -0.4149 -0.8263
18015THY    CA646460   7.393   3.968   5.580  0.8747 -0.6541 -0.6912
18015THY    HA646461   7.380   3.870   5.625  0.8204  0.5694 -0.1344
18016THY      O46462   2.711   2.493   5.119  0.6921  0.1674 -0.2190
18016THY     HO46463   2.743   2.407   5.152  2.6889 -0.6346  0.1516
18016THY    CA146464   2.582   2.493   5.145  0.0419 -0.1719  0.4015
18016THY    CA246465   2.503   2.610   5.132  0.6138  0.2111  0.2036
18016THY    CP146466   2.559   2.745   5.077 -0.2871 -0.2389  0.2633
18016THY    HP146467   2.669   2.746   5.078 -0.1358  1.6598 -2.9698
18016THY    CP246468   2.525   2.860   5.174 -0.6755  0.0616  0.4110
18016THY    HP246469   2.551   2.958   5.131 -0.3322  1.6922  1.0848
18016THY    HP346470   2.586   2.836   5.263  1.6173 -1.3635  0.6385
18016THY    HP446471   2.420   2.865   5.204 -0.6378  0.0100  2.2476
18016THY    CP346472   2.506   2.763   4.938 -0.0822  0.4831  0.9021
18016THY    HP546473   2.526   2.672   4.878  1.1026  1.4420  0.5112
18016THY    HP646474   2.559   2.837   4.878  2.1641 -0.1844 -1.1319
18016THY    HP746475   2.399   2.783   4.923  0.2115 -1.7496  1.1216
18016THY    CA346476   2.362   2.600   5.155  0.5035  0.7085  0.0960
18016THY    HA346477   2.291   2.683   5.159 -2.4232  3.3710 -2.2356
18016THY    CA446478   2.311   2.477   5.201  0.0815 -0.3683 -0.8725
18016THY    HA446479   2.207   2.473   5.233 -0.4705 -1.2083  3.2190
18016THY    CA546480   2.392   2.364   5.214 -0.5564  0.5902  0.0498
18016THY    CM146481   2.330   2.236   5.260 -0.0978 -0.5400 -0.4031
18016THY    HM146482   2.236   2.216   5.208  0.3949 -1.7287  0.2474
18016THY    HM246483   2.318   2.233   5.369 -0.4715 -0.5050  1.4555
18016THY    HM346484   2.394   2.154   5.225  2.5766  1.0566  0.8730
18016THY    CA646485   2.528   2.370   5.185  0.2000  0.1359  0.2632
18016THY    HA646486   2.588   2.282   5.206  0.4339 -0.0704  0.3721
18017THY      O46487   4.795   2.957   3.083  0.1957 -0.4531  0.5838
18017THY     HO46488   4.706   2.941   3.120  0.0972 -1.3974 -1.3094
18017THY    CA146489   4.829   2.836   3.017  0.4666 -0.5159  0.5830
18017THY    CA246490   4.956   2.812   2.956 -0.6426  0.3516 -0.0227
18017THY    CP146491   5.049   2.929   2.935 -0.3476  0.3091 -0.5629
18017THY    HP146492   5.029   3.010   3.007  1.4709  2.4148 -1.8605
18017THY    CP246493   5.027   2.984   2.794  0.1213  0.0900  0.0572
18017THY    HP246494   5.081   3.078   2.779  2.0341  2.4432 -0.5594
18017THY    HP346495   4.919   2.992   2.780  0.0690  0.9070  0.7906
18017THY    HP446496   5.074   2.912   2.725 -0.0045  0.6004 -0.5179
18017THY    CP346497   5.193   2.897   2.961 -0.5765  0.3628  0.1275
18017THY    HP546498   5.199   2.827   3.046  1.2256 -1.3620 -1.9729
18017THY    HP646499   5.245   2.992   2.979  1.6254 -0.6649 -0.8130
18017THY    HP746500   5.234   2.853   2.870 -2.0887  0.0027 -0.5881
18017THY    CA346501   4.989   2.688   2.900  0.1527 -0.0656  0.1505
18017THY    HA346502   5.088   2.686   2.855  0.1442 -0.0738 -0.5703
18017THY    CA446503   4.904   2.584   2.916  0.8764  0.2427 -0.3745
18017THY    HA446504   4.926   2.491   2.864  0.0006 -1.7943  0.4913
18017THY    CA546505   4.771   2.615   2.959  0.4869  0.3290  0.3613
18017THY    CM146506   4.668   2.509   2.949 -0.6293  0.6180  0.4116
18017THY    HM146507   4.708   2.407   2.956  1.1010  1.8847  1.1511
18017THY    HM246508   4.603   2.509   2.860  1.0327 -0.6500  0.4815
18017THY    HM346509   4.590   2.512   3.026 -1.8733 -0.6278  2.8729
18017THY    CA646510   4.733   2.734   3.014  0.2111  0.9889 -0.4424
18017THY    HA646511   4.639   2.744   3.066  0.4775  1.2469  0.8262
18018THY      O46512   1.891   4.915   6.361  0.5340 -0.0297 -0.0027
18018THY     HO46513   1.849   4.828   6.361  0.7751  1.1552 -0.1323
18018THY    CA146514   1.834   4.985   6.468 -0.2597  0.0110 -0.7357
18018THY    CA246515   1.799   5.123   6.465  0.7884 -0.6278  0.0999
18018THY    CP146516   1.839   5.206   6.345  0.7594 -0.1956  0.5011
18018THY    HP146517   1.940   5.175   6.312  1.9081  2.5354  1.0364
18018THY    CP246518   1.854   5.357   6.379 -0.7445 -0.6061  0.1459
18018THY    HP246519   1.912   5.349   6.471 -1.4620 -0.2283 -0.8454
18018THY    HP346520   1.755   5.401   6.397 -0.9608 -1.2678 -0.0592
18018THY    HP446521   1.914   5.415   6.307  0.2104 -0.7521 -0.9855
18018THY    CP346522   1.732   5.171   6.243  0.0655  0.5750 -0.8843
18018THY    HP546523   1.708   5.065   6.236 -1.5887  3.0415 -0.7630
18018THY    HP646524   1.761   5.210   6.145 -2.4324  0.1177  0.0545
18018THY    HP746525   1.633   5.207   6.276 -1.5435 -2.5627 -2.1284
18018THY    CA346526   1.727   5.176   6.577 -0.9424 -0.2964  0.1677
18018THY    HA346527   1.693   5.279   6.573 -1.2292  0.2043  0.0942
18018THY    CA446528   1.698   5.097   6.688 -0.3051  0.4231 -0.1453
18018THY    HA446529   1.634   5.130   6.769 -1.3995  0.5776 -2.4438
18018THY    CA546530   1.731   4.958   6.676  0.0205  0.1520  0.0568
18018THY    CM146531   1.700   4.868   6.793  0.6599 -0.4972 -0.7600
18018THY    HM146532   1.758   4.774   6.794  1.3274  0.1530 -0.3571
18018THY    HM246533   1.593   4.846   6.801  0.1407  2.2879  2.1362
18018THY    HM346534   1.730   4.921   6.884 -2.9706  0.2724  0.2617
18018THY    CA646535   1.799   4.906   6.569  0.4074 -0.0410 -0.2553
18018THY    HA646536   1.826   4.801   6.567  1.3613  1.8886 -0.1009
18019THY      O46537   4.548   2.258   2.613  0.0550  0.0547  0.0471
18019THY     HO46538   4.482   2.233   2.680  0.3101  0.4645  0.4553
18019THY    CA146539   4.682   2.230   2.650  0.2958  0.2226 -0.4080
18019THY    CA246540   4.790   2.236   2.565 -0.0081 -0.2543  0.4526
18019THY    CP146541   4.766   2.280   2.424 -0.0343  0.4544 -0.9048
18019THY    HP146542   4.671   2.336   2.425  0.4801 -1.6473  0.0768
18019THY    CP246543   4.738   2.173   2.326 -0.3043  0.1492  0.7062
18019THY    HP246544   4.713   2.214   2.227 -0.7979  0.8543  2.1651
18019THY    HP346545   4.647   2.123   2.362  0.1872  0.5317  0.0775
18019THY    HP446546   4.830   2.114   2.322  1.0174  1.5211  2.5862
18019THY    CP346547   4.866   2.388   2.368  0.0574 -0.1502 -0.5711
18019THY    HP546548   4.964   2.347   2.344  0.3726 -0.7040  0.4733
18019THY    HP646549   4.889   2.466   2.441 -0.6493 -1.3329  0.8085
18019THY    HP746550   4.838   2.427   2.269 -0.1578  0.1332  0.0103
18019THY    CA346551   4.918   2.209   2.610 -0.2845 -0.5551 -0.5008
18019THY    HA346552   5.002   2.211   2.541  0.7775  0.6268  2.6619
18019THY    CA446553   4.946   2.184   2.744  0.5003 -0.1801 -0.6044
18019THY    HA446554   5.045   2.171   2.787  0.5547 -0.4422 -1.1025
18019THY    CA546555   4.839   2.188   2.837  0.5638 -0.1603 -0.0467
18019THY    CM146556   4.859   2.163   2.986 -0.0190  0.4475  0.5130
18019THY    HM146557   4.895   2.255   3.032 -1.0763 -0.7896  1.5818
18019THY    HM246558   4.924   2.076   3.005  2.8631  0.0279  2.4319
18019THY    HM346559   4.767   2.133   3.037  0.2766  0.6426 -0.0929
18019THY    CA646560   4.711   2.222   2.789  0.6192 -0.5856 -0.0208
18019THY    HA646561   4.632   2.224   2.864  0.5606 -0.6468  1.6909
18020THY      O46562   1.374   6.517   5.757  0.3534  0.6982 -0.4774
18020THY     HO46563   1.359   6.424   5.732 -0.7696 -1.4717  0.2103
18020THY    CA146564   1.442   6.514   5.873  0.4784 -0.6811 -0.1012
18020THY    CA246565   1.363   6.492   5.995  0.0663  0.0555 -0.4854
18020THY    CP146566   1.210   6.461   5.999  0.0373 -0.6786  0.2310
18020THY    HP146567   1.173   6.438   5.898 -0.9840  0.0902 -1.7899
18020THY    CP246568   1.135   6.565   6.062  0.0196  0.3530  0.1105
18020THY    HP246569   1.028   6.541   6.058  0.0519  2.8632 -0.7303
18020THY    HP346570   1.148   6.658   6.005  1.1988 -1.4169 -1.0836
18020THY    HP446571   1.173   6.574   6.164 -0.8790  0.6872  0.1981
18020THY    CP346572   1.194   6.327   6.076  0.3072  0.1550 -0.0867
18020THY    HP546573   1.222   6.329   6.182 -3.6459  1.3255  1.1391
18020THY    HP646574   1.251   6.252   6.019  0.7223  2.6419 -1.7917
18020THY    HP746575   1.092   6.288   6.070  0.6978  1.4600 -1.4138
18020THY    CA346576   1.437   6.479   6.116  0.0100  0.0907 -0.5561
18020THY    HA346577   1.386   6.466   6.212 -0.5217  0.2678  2.2573
18020THY    CA446578   1.582   6.490   6.112 -0.2634 -0.1616 -0.0553
18020THY    HA446579   1.643   6.474   6.201  2.8239 -2.4954 -2.5227
18020THY    CA546580   1.652   6.516   5.996 -0.1604  0.1594  0.3488
18020THY    CM146581   1.798   6.521   5.990 -0.3931 -0.3677 -0.4792
18020THY    HM146582   1.831   6.597   5.918 -2.1530 -0.7090  0.0046
18020THY    HM246583   1.848   6.425   5.974  1.1963  0.0158  0.2466
18020THY    HM346584   1.836   6.555   6.087 -1.1577 -0.0259 -0.5830
18020THY    CA646585   1.581   6.524   5.872  0.1861 -0.1348 -1.0012
18020THY    HA646586   1.635   6.545   5.781  2.4265  1.5344  1.0525
18021THY      O46587   8.988   6.402   3.059  0.4238 -0.0050 -0.1669
18021THY     HO46588   8.966   6.353   3.141 -1.9929 -0.8426 -0.6477
18021THY    CA146589   8.962   6.535   3.085 -0.0942 -0.7300  0.3431
18021THY    CA246590   8.989   6.645   2.996  0.3264 -0.2258 -0.3373
18021THY    CP146591   9.051   6.620   2.863  0.2219  0.3902 -0.0074
18021THY    HP146592   9.089   6.518   2.854  0.3992  0.6007  0.0402
18021THY    CP246593   9.158   6.723   2.843  0.0143 -0.4612  0.5150
18021THY    HP246594   9.121   6.816   2.798  2.1877 -0.7064  1.3171
18021THY    HP346595   9.236   6.689   2.775 -0.0816 -1.3944  2.0345
18021THY    HP446596   9.213   6.751   2.934 -0.1808  0.1886 -1.0759
18021THY    CP346597   8.937   6.618   2.766  0.0306  0.2243 -0.1311
18021THY    HP546598   8.876   6.709   2.773 -0.8284  0.9110 -0.7423
18021THY    HP646599   8.865   6.535   2.779  1.6780  0.1171 -1.6359
18021THY    HP746600   8.973   6.608   2.663 -0.8990  0.0503 -2.7512
18021THY    CA346601   8.935   6.766   3.030  0.2419  0.4372  0.1842
18021THY    HA346602   8.938   6.849   2.960 -0.8316  0.8485  0.5806
18021THY    CA446603   8.877   6.793   3.156  0.3411 -0.0296 -0.0445
18021THY    HA446604   8.843   6.895   3.175  0.7288 -1.7735  0.4430
18021THY    CA546605   8.868   6.690   3.253  0.2907  0.3229  0.3372
18021THY    CM146606   8.791   6.708   3.382 -0.7377  0.3190  0.2621
18021THY    HM146607   8.683   6.710   3.366 -0.6461 -0.4131 -0.3872
18021THY    HM246608   8.813   6.808   3.423 -0.2184 -0.5847  0.5374
18021THY    HM346609   8.812   6.617   3.439  2.2339 -0.1619  0.5446
18021THY    CA646610   8.910   6.562   3.211  0.6790  0.2604  0.5136
18021THY    HA646611   8.891   6.471   3.267  0.0280 -2.0653 -0.8844
18022THY      O46612   6.351   0.783   7.051 -0.0467  0.1403  0.7434
18022THY     HO46613   6.321   0.720   6.983 -1.9403  2.3220 -0.8823
18022THY    CA146614   6.470   0.834   7.020 -0.2260 -1.0496  0.2167
18022THY    CA246615   6.521   0.947   7.079 -0.1978  0.3278 -0.0294
18022THY    CP146616   6.436   1.036   7.170  0.2217 -0.2483 -0.0681
18022THY    HP146617   6.335   0.996   7.180  0.7225  1.7972 -0.9542
18022THY    CP246618   6.422   1.190   7.135 -0.4686  0.0021  0.5029
18022THY    HP246619   6.379   1.196   7.035  0.2035 -0.3771 -0.5701
18022THY    HP346620   6.516   1.245   7.147 -0.8166  0.5361  0.9965
18022THY    HP446621   6.353   1.237   7.206 -0.4070  0.5668 -0.2379
18022THY    CP346622   6.471   1.018   7.317 -0.2488 -0.3175  0.3379
18022THY    HP546623   6.578   1.020   7.339 -0.4607  1.0253 -1.0061
18022THY    HP646624   6.446   0.915   7.347  2.6457  0.4174 -0.2250
18022THY    HP746625   6.407   1.085   7.376 -1.2705 -1.2520  0.2225
18022THY    CA346626   6.643   0.999   7.034  0.6631  0.2507  0.7711
18022THY    HA346627   6.690   1.091   7.068  0.7983  1.2738  0.3428
18022THY    CA446628   6.706   0.937   6.929  0.0797  0.1518  0.1534
18022THY    HA446629   6.795   0.973   6.879 -1.3588 -2.2302  0.7032
18022THY    CA546630   6.660   0.807   6.877 -0.3361 -0.7509  0.2231
18022THY    CM146631   6.737   0.715   6.780  0.8303  0.4709 -0.7144
18022THY    HM146632   6.799   0.636   6.824  1.1930  1.6574  0.2101
18022THY    HM246633   6.789   0.775   6.704  1.3458 -0.7393 -2.6033
18022THY    HM346634   6.668   0.657   6.718  1.8459 -0.8262 -0.5901
18022THY    CA646635   6.536   0.767   6.918 -0.4018  0.8671  0.1975
18022THY    HA646636   6.494   0.676   6.879 -1.6032  0.3838  0.9381
18023THY      O46637   8.369   7.867   4.323  0.1244 -0.6366  0.9331
18023THY     HO46638   8.455   7.841   4.285 -0.1068 -0.4625 -0.1254
18023THY    CA146639   8.273   7.844   4.238  0.1596 -0.3364 -0.1822
18023THY    CA246640   8.140   7.875   4.266  0.5834 -0.3267 -0.9203
18023THY    CP146641   8.093   7.923   4.404 -0.8990 -0.3973 -0.5537
18023THY    HP146642   8.165   7.914   4.486 -0.9632 -0.1562  0.9164
18023THY    CP246643   7.971   7.831   4.438 -0.0060  0.2454  0.0547
18023THY    HP246644   7.950   7.850   4.543  0.0863 -0.1830  2.9699
18023THY    HP346645   7.998   7.726   4.420  0.3467 -0.6267  0.2802
18023THY    HP446646   7.881   7.863   4.385  1.9886 -2.9864  0.8535
18023THY    CP346647   8.063   8.073   4.407  0.4026  0.0630  0.3933
18023THY    HP546648   8.145   8.127   4.359  0.3007 -1.2907 -0.6024
18023THY    HP646649   8.034   8.110   4.506  0.8653  0.4317 -0.2206
18023THY    HP746650   7.976   8.084   4.341  0.1905  0.4735  1.3393
18023THY    CA346651   8.043   7.875   4.160 -0.1525 -0.1533  1.2597
18023THY    HA346652   7.938   7.891   4.180 -0.5888 -0.4850 -0.8869
18023THY    CA446653   8.086   7.849   4.030  0.0716  0.0456 -0.4359
18023THY    HA446654   8.018   7.858   3.945 -1.0122  0.9694  0.4050
18023THY    CA546655   8.215   7.811   4.008 -0.5882 -0.0424  0.4135
18023THY    CM146656   8.246   7.765   3.873  0.9184 -0.5659 -0.1190
18023THY    HM146657   8.235   7.657   3.865  2.8257 -1.2853 -0.2975
18023THY    HM246658   8.351   7.786   3.850  1.0118 -1.9945 -1.9490
18023THY    HM346659   8.191   7.809   3.789  2.6198 -1.6980 -0.0651
18023THY    CA646660   8.309   7.807   4.110  0.5970  0.6099  0.6062
18023THY    HA646661   8.407   7.764   4.093  1.6035  0.2273  2.8717
18024THY      O46662   5.715   6.428   4.997  0.6765  0.4883  0.0468
18024THY     HO46663   5.720   6.524   5.013  0.0480 -0.8853  0.3327
18024THY    CA146664   5.774   6.377   5.106  0.5307 -0.1825  0.0286
18024THY    CA246665   5.763   6.244   5.145  0.6175 -0.2363  0.7835
18024THY    CP146666   5.655   6.159   5.065 -0.6415 -0.2337 -0.1343
18024THY    HP146667   5.653   6.197   4.962  0.3203  0.0857  0.8556
18024THY    CP246668   5.514   6.177   5.114  0.4786 -0.0619 -0.3891
18024THY    HP246669   5.448   6.115   5.051  0.2338  0.1692 -0.3677
18024THY    HP346670   5.493   6.282   5.094  2.5899 -1.4162 -0.1906
18024THY    HP446671   5.516   6.138   5.217  0.7595 -1.1237 -3.5262
18024THY    CP346672   5.694   6.012   5.064  0.0983 -0.2175  0.2408
18024THY    HP546673   5.620   5.975   4.993 -2.3010  2.3665 -0.2691
18024THY    HP646674   5.676   5.962   5.160 -2.5679  0.1961  1.7973
18024THY    HP746675   5.795   6.005   5.023  0.3145  0.5575 -2.0811
18024THY    CA346676   5.828   6.199   5.261  0.6676  0.2332 -0.2930
18024THY    HA346677   5.826   6.094   5.286  1.6260 -0.3507 -0.4595
18024THY    CA446678   5.915   6.287   5.329  0.7385  0.1108  0.0150
18024THY    HA446679   5.977   6.259   5.414 -2.3561  2.6766  0.3327
18024THY    CA546680   5.921   6.418   5.290  0.4098  0.4195 -0.1634
18024THY    CM146681   6.009   6.503   5.369 -0.3126  0.0722  0.1840
18024THY    HM146682   5.956   6.534   5.460  0.8452  0.8152  0.0371
18024THY    HM246683   6.043   6.592   5.315  1.1738  2.5081  1.1879
18024THY    HM346684   6.098   6.449   5.403  0.3499 -2.5226 -0.5401
18024THY    CA646685   5.849   6.467   5.183 -1.1276 -0.0782  0.3455
18024THY    HA646686   5.864   6.571   5.155  0.2671  0.7844  0.4083
18025THY      O46687   8.478   3.088   6.018  0.2744 -0.2116 -0.3119
18025THY     HO46688   8.535   3.132   6.084  0.6561 -1.3717  0.9853
18025THY    CA146689   8.357   3.148   6.028 -0.0083 -0.5453 -0.2415
18025THY    CA246690   8.272   3.186   5.920  0.2183  0.9125 -0.0649
18025THY    CP146691   8.323   3.155   5.780 -0.2005 -0.1686 -0.2204
18025THY    HP146692   8.373   3.059   5.760  1.9274 -0.4945  0.8979
18025THY    CP246693   8.435   3.255   5.743 -1.1455  0.4866 -1.1587
18025THY    HP246694   8.447   3.255   5.634  2.4061  0.7654 -1.0626
18025THY    HP346695   8.526   3.215   5.789  0.1118  0.3292  1.3568
18025THY    HP446696   8.409   3.358   5.770  0.4191 -0.1626 -0.5639
18025THY    CP346697   8.209   3.165   5.673  0.0535  0.7464 -0.0255
18025THY    HP546698   8.163   3.265   5.670 -0.5505  0.6791 -0.3028
18025THY    HP646699   8.130   3.091   5.690 -0.2058 -1.9671 -0.4891
18025THY    HP746700   8.245   3.144   5.572 -0.3886  0.1544  1.8190
18025THY    CA346701   8.159   3.269   5.952  0.1157  0.0340 -0.2912
18025THY    HA346702   8.098   3.309   5.871 -0.7084  0.5288 -0.5263
18025THY    CA446703   8.120   3.291   6.080  0.5750  0.1109  0.3195
18025THY    HA446704   8.027   3.344   6.097  0.2431  1.4498 -0.6403
18025THY    CA546705   8.193   3.238   6.193 -0.1626  0.2160  0.5529
18025THY    CM146706   8.142   3.240   6.331  0.2423 -0.4101 -0.2320
18025THY    HM146707   8.034   3.249   6.348  0.4035  0.9176 -0.4506
18025THY    HM246708   8.182   3.332   6.375  1.6828 -3.9578  0.9939
18025THY    HM346709   8.173   3.150   6.387 -1.1229  2.0735  0.7263
18025THY    CA646710   8.316   3.178   6.164 -0.1900 -1.4246  0.2921
18025THY    HA646711   8.384   3.167   6.247  0.6346 -2.2383 -1.0436
18026THY      O46712   2.231   5.087   6.195  0.6815  0.1512 -0.0613
18026THY     HO46713   2.182   5.013   6.235 -0.4895  0.1639  0.6892
18026THY    CA146714   2.238   5.173   6.297  0.1450 -0.0108 -0.4153
18026THY    CA246715   2.265   5.310   6.286  0.1740  0.6982  0.4833
18026THY    CP146716   2.313   5.366   6.147  0.7892 -0.9642 -0.3303
18026THY    HP146717   2.258   5.312   6.069 -0.6242 -0.3668  0.2139
18026THY    CP246718   2.463   5.322   6.142 -0.1837 -0.9278  0.3857
18026THY    HP246719   2.522   5.366   6.061  0.0086  1.1856  4.5030
18026THY    HP346720   2.464   5.213   6.129 -1.6426 -0.9234  0.3609
18026THY    HP446721   2.524   5.348   6.229  1.5637 -1.8856 -0.3283
18026THY    CP346722   2.309   5.513   6.123  0.3799  0.1671 -0.1871
18026THY    HP546723   2.397   5.564   6.164  1.3370 -0.7428 -1.0479
18026THY    HP646724   2.218   5.565   6.152 -0.3080 -0.3311 -1.0836
18026THY    HP746725   2.319   5.532   6.015 -1.9358  0.1223  1.0265
18026THY    CA346726   2.233   5.393   6.393  0.0371  0.4790 -0.2750
18026THY    HA346727   2.242   5.500   6.381  0.6621 -1.0473 -0.4753
18026THY    CA446728   2.187   5.336   6.513  0.0034  0.7060  0.1359
18026THY    HA446729   2.165   5.401   6.597 -2.2008  0.5584 -0.3224
18026THY    CA546730   2.158   5.206   6.525  0.0671 -0.1555  0.3544
18026THY    CM146731   2.118   5.142   6.661 -0.6366  0.0016 -0.5877
18026THY    HM146732   2.214   5.117   6.707  0.5453 -0.9041  1.9578
18026THY    HM246733   2.066   5.047   6.643  2.0656 -1.1963 -1.9585
18026THY    HM346734   2.065   5.213   6.726  2.4686  1.6140  0.4338
18026THY    CA646735   2.186   5.127   6.415 -0.6741 -0.2711  0.3025
18026THY    HA646736   2.153   5.024   6.423 -1.4629 -0.5348  0.5344
18027THY      O46737   8.736   4.691   5.928  0.1066  0.1461 -0.1458
18027THY     HO46738   8.759   4.754   5.857  0.6736 -0.4164 -0.9511
18027THY    CA146739   8.824   4.592   5.901  0.3119 -0.3486  0.2281
18027THY    CA246740   8.863   4.499   6.007  0.3170 -0.0527 -0.1792
18027THY    CP146741   8.801   4.504   6.149  0.0281  0.4319 -0.1234
18027THY    HP146742   8.742   4.595   6.163  0.1489  1.7848 -0.2439
18027THY    CP246743   8.920   4.527   6.237  0.0620 -0.6621 -0.5871
18027THY    HP246744   8.882   4.528   6.340  1.9449  0.1162 -2.0553
18027THY    HP346745   8.977   4.618   6.217  0.1405  1.6076 -0.0900
18027THY    HP446746   8.985   4.440   6.251  0.6698 -0.7174 -0.1469
18027THY    CP346747   8.721   4.375   6.186  0.2905  0.6392  0.1240
18027THY    HP546748   8.686   4.380   6.290 -2.2145 -0.1652  0.9302
18027THY    HP646749   8.789   4.289   6.187  0.2359 -0.3203  0.0641
18027THY    HP746750   8.639   4.339   6.123  0.1824  1.8216 -1.8431
18027THY    CA346751   8.957   4.403   5.975 -0.0908  0.2853  0.0073
18027THY    HA346752   8.995   4.337   6.053 -1.9393  2.3495  1.2170
18027THY    CA446753   9.010   4.401   5.845 -0.3853  0.1892  0.4978
18027THY    HA446754   9.093   4.334   5.826  0.1876  0.8017  1.0241
18027THY    CA546755   8.963   4.479   5.742  0.1459 -0.0479 -0.3031
18027THY    CM146756   9.014   4.465   5.600 -0.0720 -0.6796 -0.3681
18027THY    HM146757   8.966   4.379   5.550 -0.6565  2.0414 -1.7525
18027THY    HM246758   9.123   4.453   5.600  0.2327  0.3913  1.8646
18027THY    HM346759   8.991   4.556   5.543  1.5557 -1.3345 -0.3367
18027THY    CA646760   8.875   4.585   5.774  0.0009  0.2127 -0.2865
18027THY    HA646761   8.844   4.651   5.694 -1.3590  0.4916 -0.5544
18028THY      O46762   1.687   4.072   4.654  0.7052 -0.7400 -0.4322
18028THY     HO46763   1.730   4.028   4.729 -1.2851  0.7095 -0.0458
18028THY    CA146764   1.675   3.976   4.562 -0.2524  0.1999  0.0246
18028THY    CA246765   1.656   4.005   4.424 -0.1046 -0.0463 -0.2614
18028THY    CP146766   1.625   4.141   4.374  0.6023 -0.1770  0.2125
18028THY    HP146767   1.607   4.202   4.464 -2.4426  2.7536 -4.4217
18028THY    CP246768   1.482   4.145   4.306 -0.6741 -0.3870  0.1550
18028THY    HP246769   1.450   4.248   4.288 -2.3285  0.2638 -0.1980
18028THY    HP346770   1.414   4.105   4.383  0.5700  0.7403  0.1523
18028THY    HP446771   1.469   4.087   4.214 -1.9792  0.0282 -0.2547
18028THY    CP346772   1.734   4.214   4.293 -0.3591  0.4828  0.0777
18028THY    HP546773   1.724   4.195   4.186 -0.8414  0.8976 -2.3435
18028THY    HP646774   1.836   4.203   4.332 -1.3850  3.6881  0.7546
18028THY    HP746775   1.705   4.319   4.285  1.6320 -3.0813  0.5212
18028THY    CA346776   1.646   3.891   4.334 -0.1020  0.2509  0.1155
18028THY    HA346777   1.616   3.903   4.231 -0.4394  0.3256 -0.0668
18028THY    CA446778   1.681   3.765   4.382  0.3986 -0.0715 -0.1757
18028THY    HA446779   1.691   3.679   4.316  0.8239 -1.1281  0.6801
18028THY    CA546780   1.717   3.738   4.516 -0.6224  0.5558  0.3386
18028THY    CM146781   1.759   3.606   4.574  0.4577  0.5835  0.8332
18028THY    HM146782   1.851   3.620   4.632  2.4941 -2.0794 -0.5654
18028THY    HM246783   1.784   3.552   4.482 -1.8476 -0.0691  0.7658
18028THY    HM346784   1.683   3.557   4.635  2.5333  0.8585 -2.3111
18028THY    CA646785   1.705   3.845   4.604 -0.2686 -0.0826  0.5565
18028THY    HA646786   1.720   3.820   4.708 -1.6527 -0.2721 -1.2426
18029THY      O46787   7.406   7.448   6.273  0.1781 -0.0380 -0.2696
18029THY     HO46788   7.353   7.387   6.327  1.4043  0.6893 -0.7185
18029THY    CA146789   7.429   7.372   6.161  0.2031 -0.1993  0.0796
18029THY    CA246790   7.556   7.346   6.105  0.2000  0.0536  0.0776
18029THY    CP146791   7.674   7.393   6.192  0.8830  0.2728  0.3947
18029THY    HP146792   7.643   7.419   6.293  2.1075  0.2233  2.2006
18029THY    CP246793   7.720   7.523   6.137  0.2620 -0.3346 -0.2935
18029THY    HP246794   7.729   7.518   6.028 -1.4750 -0.4926 -0.2861
18029THY    HP346795   7.805   7.568   6.190  0.1511 -0.0255 -0.4417
18029THY    HP446796   7.640   7.596   6.151  1.1089 -0.9447  0.7784
18029THY    CP346797   7.779   7.281   6.203  0.3850  0.1296  0.5387
18029THY    HP546798   7.735   7.187   6.238 -2.0939 -0.0173  1.5548
18029THY    HP646799   7.853   7.300   6.282  1.1450 -0.0644 -1.3749
18029THY    HP746800   7.832   7.267   6.108 -0.2841 -0.3621  1.2502
18029THY    CA346801   7.568   7.283   5.985  0.0433  0.1730 -0.3012
18029THY    HA346802   7.665   7.276   5.937 -0.0275  0.1781 -1.4020
18029THY    CA446803   7.454   7.241   5.917  0.0641 -0.5571 -0.5965
18029THY    HA446804   7.453   7.199   5.817  1.8279 -0.2986 -1.3296
18029THY    CA546805   7.327   7.267   5.973  0.5566 -0.6462  0.7644
18029THY    CM146806   7.203   7.220   5.908  0.4518 -0.1129 -0.2492
18029THY    HM146807   7.210   7.213   5.799 -1.4928 -0.2780 -0.2974
18029THY    HM246808   7.118   7.287   5.930 -0.7933 -0.3295 -1.7208
18029THY    HM346809   7.174   7.118   5.937  0.1024  0.5326  0.0213
18029THY    CA646810   7.314   7.332   6.097  0.1849 -0.3606  0.3511
18029THY    HA646811   7.216   7.343   6.142  0.3837  0.8777 -2.1661
18030THY      O46812   5.396   7.454   5.226 -0.1820  0.0294 -1.0893
18030THY     HO46813   5.489   7.483   5.234 -0.1671 -1.9671 -0.4575
18030THY    CA146814   5.373   7.446   5.093  0.5085  1.0404  0.5045
18030THY    CA246815   5.237   7.433   5.049  0.7055  0.2162 -0.0290
18030THY    CP146816   5.120   7.435   5.156 -0.2575  0.4026 -0.1118
18030THY    HP146817   5.154   7.447   5.260 -0.2635  0.1982  2.0525
18030THY    CP246818   5.035   7.308   5.141  0.2928 -0.7067  0.1600
18030THY    HP246819   5.105   7.223   5.146 -0.9954 -2.0834 -1.0299
18030THY    HP346820   4.975   7.307   5.049 -2.6382  1.0777 -0.2427
18030THY    HP446821   4.952   7.296   5.212 -1.1111 -2.2430  0.4128
18030THY    CP346822   5.032   7.554   5.140  0.8826 -0.0395 -0.3272
18030THY    HP546823   4.980   7.561   5.044 -0.0795  0.5259  0.6025
18030THY    HP646824   5.092   7.645   5.134  0.1838  0.9398  0.2231
18030THY    HP746825   4.948   7.570   5.209  1.7150  1.1276 -0.8483
18030THY    CA346826   5.212   7.441   4.913  0.3592  0.2413 -0.4728
18030THY    HA346827   5.109   7.453   4.880  0.2297  0.8368  0.1021
18030THY    CA446828   5.316   7.441   4.822 -0.0695  0.1671  0.2409
18030THY    HA446829   5.303   7.443   4.715  0.6185  0.0902  1.6739
18030THY    CA546830   5.450   7.438   4.862  0.1809 -0.4931  0.9863
18030THY    CM146831   5.558   7.450   4.759 -0.3312 -0.3717 -0.3529
18030THY    HM146832   5.627   7.530   4.789 -0.2827 -0.9127 -0.1907
18030THY    HM246833   5.522   7.475   4.658 -0.1829 -0.2868  0.2277
18030THY    HM346834   5.617   7.359   4.755 -1.4860  1.4924 -1.2353
18030THY    CA646835   5.473   7.448   5.004 -1.1557  0.4406  0.3570
18030THY    HA646836   5.574   7.474   5.032 -0.4576 -1.8404  0.3450
18031THY      O46837   3.481   5.583   4.621  0.1459 -0.4421 -0.0849
18031THY     HO46838   3.445   5.493   4.629 -2.3858  3.4027  1.0160
18031THY    CA146839   3.588   5.588   4.538 -0.0232 -0.4752  0.8297
18031THY    CA246840   3.619   5.703   4.473  0.1740  0.1582  0.4861
18031THY    CP146841   3.550   5.833   4.514 -0.0591  0.2101 -0.6504
18031THY    HP146842   3.443   5.811   4.515  0.0142 -1.1753 -1.2129
18031THY    CP246843   3.548   5.932   4.396 -0.4264 -0.6095 -0.0491
18031THY    HP246844   3.487   6.022   4.408  0.7454  1.9603  0.4915
18031THY    HP346845   3.515   5.870   4.312  0.7744  0.0716 -1.6885
18031THY    HP446846   3.652   5.962   4.377 -0.6566  0.7172  1.7225
18031THY    CP346847   3.612   5.905   4.639  0.9112  0.3935  0.0511
18031THY    HP546848   3.633   5.836   4.722  2.7306  0.5057  0.6869
18031THY    HP646849   3.543   5.981   4.677  1.3674  1.1198  0.1175
18031THY    HP746850   3.715   5.936   4.614  0.8094  0.8221  0.7551
18031THY    CA346851   3.722   5.699   4.384 -0.5596 -0.0200 -0.2519
18031THY    HA346852   3.750   5.785   4.325 -0.7520  0.7027  0.3104
18031THY    CA446853   3.784   5.579   4.351 -0.6160  0.5511 -0.3122
18031THY    HA446854   3.864   5.587   4.279 -1.8130 -0.7417  0.4801
18031THY    CA546855   3.752   5.459   4.415 -0.6237  0.6745  0.1615
18031THY    CM146856   3.820   5.327   4.379  0.3471 -0.0438 -1.2543
18031THY    HM146857   3.770   5.247   4.435 -1.0118 -2.2744 -2.0817
18031THY    HM246858   3.927   5.332   4.401  0.6207 -1.1910 -1.6115
18031THY    HM346859   3.816   5.294   4.274  1.0757 -1.0191  1.5048
18031THY    CA646860   3.654   5.464   4.510  0.1014 -0.3578 -0.2083
18031THY    HA646861   3.614   5.380   4.565  1.2187 -0.3910 -0.7762
18032THY      O46862   1.374   2.493   7.431 -0.0910  0.4821 -0.1839
18032THY     HO46863   1.296   2.448   7.395  1.2117 -3.5038  0.3125
18032THY    CA146864   1.391   2.594   7.340 -0.1371 -0.9848  0.4652
18032THY    CA246865   1.517   2.640   7.304 -0.5308 -0.1938 -1.1027
18032THY    CP146866   1.649   2.581   7.362 -0.0908  0.1418  1.3744
18032THY    HP146867   1.624   2.525   7.453  0.3584 -0.0668  0.8153
18032THY    CP246868   1.757   2.686   7.394  0.0907  0.1118 -0.0584
18032THY    HP246869   1.801   2.725   7.302 -2.0730 -0.6591  0.7011
18032THY    HP346870   1.829   2.644   7.466 -1.9104  0.9520 -2.2691
18032THY    HP446871   1.711   2.772   7.445 -0.3839 -0.1661 -0.1486
18032THY    CP346872   1.721   2.476   7.256 -0.0187 -0.3982 -0.1603
18032THY    HP546873   1.791   2.403   7.299  0.3213  0.0416  0.4193
18032THY    HP646874   1.780   2.511   7.171  0.8980 -0.6256 -2.1101
18032THY    HP746875   1.638   2.409   7.231 -1.5676  2.9641  0.3094
18032THY    CA346876   1.526   2.746   7.218  0.7009 -0.1976 -0.4813
18032THY    HA346877   1.620   2.791   7.189  0.2541 -2.2734 -0.7479
18032THY    CA446878   1.408   2.800   7.162 -0.2805 -0.3410 -0.1448
18032THY    HA446879   1.405   2.882   7.091 -1.6341  0.8008  0.8632
18032THY    CA546880   1.282   2.752   7.196  0.2975  0.4102 -0.1925
18032THY    CM146881   1.150   2.800   7.136  0.1759  0.4655  0.1007
18032THY    HM146882   1.145   2.794   7.027  1.7729  0.4272 -1.1216
18032THY    HM246883   1.150   2.906   7.163  0.0166 -1.9436  0.7547
18032THY    HM346884   1.065   2.745   7.178  0.8321 -1.0676 -2.2269
18032THY    CA646885   1.278   2.648   7.288  0.5039  0.8717  1.1206
18032THY    HA646886   1.183   2.604   7.319 -0.0720 -1.6123  0.4598
18033THY      O46887   6.802   4.517   5.201 -0.0668  0.5724  0.5033
18033THY     HO46888   6.829   4.518   5.107  1.1817  0.8780 -0.7951
18033THY    CA146889   6.787   4.391   5.229  0.0169  0.2724  0.2279
18033THY    CA246890   6.711   4.344   5.333  0.3228 -0.1409 -0.2792
18033THY    CP146891   6.633   4.437   5.424 -0.4073 -0.4184 -0.9022
18033THY    HP146892   6.632   4.543   5.397 -0.3590 -2.5825 -1.4030
18033THY    CP246893   6.671   4.442   5.574  0.0277 -0.3071 -0.2616
18033THY    HP246894   6.616   4.511   5.638  2.0438  0.9215  0.2987
18033THY    HP346895   6.774   4.477   5.588  0.2849 -0.4638 -0.9412
18033THY    HP446896   6.655   4.343   5.617  1.0072 -1.2969 -0.8816
18033THY    CP346897   6.481   4.410   5.402 -0.1808  0.1489  0.8878
18033THY    HP546898   6.449   4.412   5.297 -0.6474  0.1701 -1.5357
18033THY    HP646899   6.421   4.478   5.463 -1.8514  1.1459 -1.3352
18033THY    HP746900   6.459   4.305   5.426 -2.5832 -0.8753  1.0796
18033THY    CA346901   6.697   4.206   5.352 -0.2041  0.1141  0.0534
18033THY    HA346902   6.627   4.164   5.424  1.0966  0.0280 -2.3955
18033THY    CA446903   6.769   4.119   5.274  0.0414  0.2748  0.5398
18033THY    HA446904   6.753   4.013   5.289 -0.9420  1.5429  0.8364
18033THY    CA546905   6.852   4.164   5.175 -0.9885  0.2168 -0.5514
18033THY    CM146906   6.937   4.059   5.102  0.3751  0.0324 -0.0012
18033THY    HM146907   6.992   4.107   5.020  0.8456  0.8139  0.8241
18033THY    HM246908   6.875   3.986   5.048 -0.9633  1.7639 -0.2004
18033THY    HM346909   7.012   4.004   5.158  0.6739 -0.2836  0.0819
18033THY    CA646910   6.858   4.300   5.147  0.0797  0.4634  0.6536
18033THY    HA646911   6.926   4.342   5.073  1.9353  1.1861 -0.9463
18034THY      O46912   7.050   1.078   4.136 -0.0662  0.2044 -0.0412
18034THY     HO46913   7.101   1.159   4.155 -1.0697 -0.7199  0.8554
18034THY    CA146914   7.125   0.969   4.166 -0.6333  0.5871 -0.0005
18034THY    CA246915   7.076   0.841   4.186  0.1366 -0.7332  0.1883
18034THY    CP146916   6.930   0.806   4.158  0.2100  0.2017 -0.3587
18034THY    HP146917   6.872   0.898   4.148  2.4115  1.5332  1.2534
18034THY    CP246918   6.862   0.724   4.271 -0.4202  0.4714 -0.4189
18034THY    HP246919   6.905   0.755   4.367 -1.4211  0.7034  0.2955
18034THY    HP346920   6.873   0.616   4.255  2.2230 -0.9340 -0.0017
18034THY    HP446921   6.753   0.741   4.270 -0.5618  1.5190 -1.1598
18034THY    CP346922   6.921   0.736   4.022 -0.2564 -0.4190 -0.0124
18034THY    HP546923   6.974   0.640   4.030  2.0548  0.2951  1.2372
18034THY    HP646924   6.963   0.792   3.937 -1.4446 -0.2489  1.1756
18034THY    HP746925   6.814   0.722   4.005 -0.5569 -1.5494  2.9417
18034THY    CA346926   7.165   0.737   4.232  0.3008 -0.5402 -0.8180
18034THY    HA346927   7.136   0.633   4.242  0.1689 -0.8945 -0.8188
18034THY    CA446928   7.297   0.772   4.258 -0.6454  0.5201  0.9312
18034THY    HA446929   7.364   0.697   4.300 -2.1361  1.7359  0.2172
18034THY    CA546930   7.348   0.898   4.230 -0.6010  0.1591 -0.1723
18034THY    CM146931   7.497   0.923   4.240  0.0213  0.6906  0.2850
18034THY    HM146932   7.529   0.920   4.345  2.3112  0.0715  1.1022
18034THY    HM246933   7.512   1.022   4.196  1.3123  1.4208  0.4291
18034THY    HM346934   7.549   0.844   4.185 -2.7023 -0.5902 -0.7626
18034THY    CA646935   7.258   0.997   4.185 -0.5379  0.6198  0.0365
18034THY    HA646936   7.295   1.096   4.163 -0.0385 -1.0363 -0.4841
18035THY      O46937   8.585   0.802   7.079  0.1995  0.0272  0.6509
18035THY     HO46938   8.595   0.842   7.167 -0.1956  0.1443  0.4985
18035THY    CA146939   8.529   0.902   7.010 -0.2999 -0.5318 -0.3627
18035THY    CA246940   8.444   0.884   6.902 -0.2199 -0.1117  0.7211
18035THY    CP146941   8.385   0.739   6.858  0.4927 -0.4224  0.5735
18035THY    HP146942   8.410   0.654   6.922  1.3357 -1.6355 -0.1166
18035THY    CP246943   8.447   0.696   6.719 -0.1653  0.5061  0.0961
18035THY    HP246944   8.423   0.771   6.643 -0.1809 -0.1737 -0.5846
18035THY    HP346945   8.402   0.599   6.692  0.4542  0.6232 -0.2318
18035THY    HP446946   8.555   0.685   6.733 -0.2991  0.8476 -0.8712
18035THY    CP346947   8.233   0.737   6.858  0.5458  0.2479 -0.0839
18035THY    HP546948   8.192   0.815   6.793  0.2775 -0.5615 -0.8869
18035THY    HP646949   8.194   0.734   6.960 -2.0162 -0.6792 -2.4119
18035THY    HP746950   8.193   0.644   6.816  0.1595  1.4554 -0.4811
18035THY    CA346951   8.402   0.995   6.834 -0.0831  0.3720  0.1602
18035THY    HA346952   8.325   0.988   6.757  1.9755 -1.6340 -2.0636
18035THY    CA446953   8.457   1.125   6.863 -0.1069 -0.4623  0.3741
18035THY    HA446954   8.437   1.214   6.805  0.4568  0.1215  0.8974
18035THY    CA546955   8.541   1.137   6.971 -0.7808 -0.3461  0.4919
18035THY    CM146956   8.610   1.266   7.000  0.5363  0.1238  0.6103
18035THY    HM146957   8.669   1.255   7.092 -0.1755  0.7153  1.5403
18035THY    HM246958   8.554   1.360   6.993  0.3845 -1.0236  0.4413
18035THY    HM346959   8.696   1.272   6.932  1.7786  1.4676 -1.0605
18035THY    CA646960   8.571   1.026   7.049  0.0796  0.1890  0.9365
18035THY    HA646961   8.643   1.034   7.130  0.0631  0.2177  0.7894
18036THY      O46962   7.358   0.950   4.604  0.4284  0.0189  0.2433
18036THY     HO46963   7.350   0.903   4.519  2.7458  0.1329 -0.5109
18036THY    CA146964   7.243   1.022   4.630 -0.1968 -0.2163 -0.0366
18036THY    CA246965   7.245   1.105   4.741  0.1704 -0.5111 -0.2214
18036THY    CP146966   7.369   1.115   4.833  0.6674  0.0511  0.0872
18036THY    HP146967   7.432   1.026   4.820 -0.3967 -2.4719 -0.3826
18036THY    CP246968   7.330   1.117   4.982  0.5423 -0.4741 -0.6642
18036THY    HP246969   7.420   1.100   5.041 -1.2044  2.4504 -0.3413
18036THY    HP346970   7.264   1.038   5.018  0.2457  2.9579  0.9844
18036THY    HP446971   7.274   1.210   4.998  0.3880 -4.9365  0.2305
18036THY    CP346972   7.458   1.243   4.806  0.2376  0.1266 -0.3262
18036THY    HP546973   7.540   1.248   4.878 -1.2137  1.7686  1.8565
18036THY    HP646974   7.407   1.339   4.825  1.0127 -1.2675  0.3876
18036THY    HP746975   7.488   1.238   4.700  2.3471  0.4813  2.3795
18036THY    CA346976   7.127   1.186   4.760  0.0574  0.0133  0.5217
18036THY    HA346977   7.115   1.254   4.844 -3.0136  1.2517 -1.3510
18036THY    CA446978   7.017   1.170   4.672  0.0978 -0.0994 -0.2968
18036THY    HA446979   6.928   1.232   4.675  0.2998 -1.7932  0.1431
18036THY    CA546980   7.020   1.080   4.566  0.3312 -0.9168  0.4207
18036THY    CM146981   6.901   1.074   4.477  0.3219 -0.7915  0.2319
18036THY    HM146982   6.815   1.125   4.521  0.5439 -0.0668 -0.0063
18036THY    HM246983   6.897   0.967   4.454 -0.3405 -0.2880  0.1471
18036THY    HM346984   6.925   1.126   4.384 -0.0510 -0.3521  1.2028
18036THY    CA646985   7.134   1.009   4.544 -0.6298 -0.5337  0.3358
18036THY    HA646986   7.140   0.941   4.459  0.1432  0.6648 -1.1659
18037THY      O46987   7.542   2.183   4.780  0.0360  0.2493  0.0399
18037THY     HO46988   7.639   2.177   4.780  0.3060 -1.9490  2.4232
18037THY    CA146989   7.506   2.307   4.743 -0.5752  0.1635  0.3504
18037THY    CA246990   7.379   2.352   4.755  0.3240  0.2792 -0.4933
18037THY    CP146991   7.277   2.272   4.840 -0.4637  0.0485  0.3974
18037THY    HP146992   7.282   2.170   4.799  1.2113  0.0453  0.4451
18037THY    CP246993   7.132   2.317   4.823  0.6305 -0.0828  0.4366
18037THY    HP246994   7.111   2.306   4.716 -1.0225  0.1256  1.3108
18037THY    HP346995   7.109   2.417   4.862 -1.3723 -0.0810  0.0012
18037THY    HP446996   7.070   2.243   4.874 -1.7448 -1.4230  1.4041
18037THY    CP346997   7.312   2.276   4.990 -0.4025  0.2024  0.5999
18037THY    HP546998   7.408   2.227   5.011 -0.8790 -2.0990 -1.5366
18037THY    HP646999   7.237   2.233   5.058  1.2477  1.8302  0.1534
18037THY    HP747000   7.310   2.379   5.027 -2.6737  0.3408  0.5640
18037THY    CA347001   7.350   2.477   4.700  0.2917  0.3581  0.7829
18037THY    HA347002   7.254   2.526   4.710 -1.5823 -1.4571 -2.1811
18037THY    CA447003   7.454   2.552   4.637 -0.1750 -0.5188 -0.1829
18037THY    HA447004   7.441   2.652   4.596 -1.0480 -0.4711 -0.2703
18037THY    CA547005   7.581   2.502   4.623  0.7152 -0.3646  0.4925
18037THY    CM147006   7.686   2.568   4.554 -0.8522  0.8169  0.1822
18037THY    HM147007   7.737   2.494   4.492 -1.5393 -1.9591  1.8822
18037THY    HM247008   7.774   2.602   4.611 -0.9947  0.8981  0.4253
18037THY    HM347009   7.645   2.644   4.487  0.7325 -0.5710 -0.1311
18037THY    CA647010   7.602   2.377   4.675  0.2415  0.1062 -0.5212
18037THY    HA647011   7.699   2.332   4.653 -0.8083 -2.1731 -1.8450
18038THY      O47012   2.260   5.705   6.989 -0.2830 -0.0840  0.2485
18038THY     HO47013   2.189   5.769   7.003 -0.4431 -1.0786  0.3097
18038THY    CA147014   2.254   5.615   7.098  0.0431 -0.0958  0.2292
18038THY    CA247015   2.338   5.507   7.108  0.1033 -0.0950  0.5069
18038THY    CP147016   2.441   5.482   6.992 -0.2525 -0.9965 -0.2282
18038THY    HP147017   2.444   5.573   6.931  0.3271  0.8734  1.0595
18038THY    CP247018   2.409   5.364   6.891 -0.2719 -0.4597 -0.3125
18038THY    HP247019   2.335   5.390   6.815  0.3468 -1.0894 -0.3623
18038THY    HP347020   2.364   5.279   6.944 -3.1119 -0.5325  1.0329
18038THY    HP447021   2.498   5.341   6.831 -0.5738 -1.3160  0.6724
18038THY    CP347022   2.581   5.452   7.052 -0.6037 -0.2220  0.2255
18038THY    HP547023   2.580   5.357   7.107  0.5306  1.5011  1.1528
18038THY    HP647024   2.602   5.527   7.130  0.7723 -2.2207  2.0431
18038THY    HP747025   2.670   5.444   6.988  0.0893  0.6629  0.6795
18038THY    CA347026   2.333   5.425   7.220  0.2607 -0.1455  0.4792
18038THY    HA347027   2.404   5.344   7.231  1.5103  0.9035  1.6747
18038THY    CA447028   2.230   5.442   7.314  0.9793  0.2721 -0.4855
18038THY    HA447029   2.218   5.373   7.397  3.6179  1.5228  0.4151
18038THY    CA547030   2.140   5.543   7.296  0.6271  0.6586 -0.1492
18038THY    CM147031   2.029   5.560   7.395 -0.6830 -0.9725  0.3596
18038THY    HM147032   2.078   5.614   7.477  0.2990 -0.3157 -1.4816
18038THY    HM247033   1.990   5.464   7.428  1.6146 -0.0052 -0.3052
18038THY    HM347034   1.950   5.623   7.352  1.1489 -0.0791  3.5276
18038THY    CA647035   2.156   5.636   7.195 -0.5256 -0.8530 -0.1936
18038THY    HA647036   2.085   5.716   7.176 -1.6800 -1.7799 -1.3930
18039THY      O47037   7.217   0.515   6.156  0.0140 -0.2109 -1.0549
18039THY     HO47038   7.132   0.471   6.140  0.5422  0.1049 -2.2268
18039THY    CA147039   7.303   0.423   6.113 -0.6119  0.8607  0.0483
18039THY    CA247040   7.404   0.374   6.196  0.6217  0.2018 -0.5698
18039THY    CP147041   7.422   0.438   6.335 -0.4755 -0.3745 -0.0690
18039THY    HP147042   7.393   0.543   6.337 -3.1589 -1.0364 -0.7246
18039THY    CP247043   7.567   0.442   6.374 -0.7813  0.0013 -0.6939
18039THY    HP247044   7.611   0.344   6.395  2.1450  1.6795  0.8398
18039THY    HP347045   7.573   0.512   6.458 -0.7824 -0.8086  0.2998
18039THY    HP447046   7.630   0.488   6.297 -1.4762  0.0615  0.4170
18039THY    CP347047   7.337   0.356   6.442  0.3562 -0.0756  0.1518
18039THY    HP547048   7.367   0.251   6.452 -0.7127 -0.2129 -0.1782
18039THY    HP647049   7.233   0.346   6.409  0.8833 -1.8353  0.1323
18039THY    HP747050   7.338   0.401   6.542 -1.0556 -0.3795  0.8994
18039THY    CA347051   7.469   0.258   6.162 -0.2358  0.0072 -0.1573
18039THY    HA347052   7.557   0.228   6.218  0.5071 -1.0270  0.0477
18039THY    CA447053   7.437   0.192   6.044  0.9100  0.6060  0.8972
18039THY    HA447054   7.480   0.095   6.021  0.1120 -0.4571  0.7851
18039THY    CA547055   7.331   0.245   5.962  0.3438 -0.9766  0.1480
18039THY    CM147056   7.279   0.158   5.854  0.2313  0.2688  0.0766
18039THY    HM147057   7.366   0.119   5.800  0.6705  1.6614 -0.9593
18039THY    HM247058   7.209   0.216   5.793 -0.2300  0.5468 -0.1790
18039THY    HM347059   7.226   0.073   5.899 -0.4670 -0.8227 -0.0745
18039THY    CA647060   7.264   0.359   5.996  0.4841 -0.4464  0.3431
18039THY    HA647061   7.170   0.382   5.946 -1.6486  1.9092 -2.4047
18040THY      O47062   6.623   6.860   2.551 -0.3483  0.7234  0.1642
18040THY     HO47063   6.662   6.787   2.501 -2.7930 -2.1648  0.6314
18040THY    CA147064   6.567   6.803   2.661  0.2577  0.0869  0.2433
18040THY    CA247065   6.477   6.877   2.740  0.8218  0.2851 -0.1581
18040THY    CP147066   6.426   7.017   2.688 -0.2800 -0.2069 -0.2214
18040THY    HP147067   6.461   7.031   2.585  0.6665 -0.1029 -1.6618
18040THY    CP247068   6.485   7.137   2.769 -0.0362 -0.6588  0.8419
18040THY    HP247069   6.466   7.132   2.877  1.7154 -0.3742 -0.5824
18040THY    HP347070   6.448   7.236   2.743  0.9824 -1.0493  1.1245
18040THY    HP447071   6.594   7.143   2.767  0.1965 -0.7331 -1.8909
18040THY    CP347072   6.267   7.024   2.690  0.1332 -0.3972 -0.5090
18040THY    HP547073   6.234   7.117   2.643 -0.1595  1.5262  0.3876
18040THY    HP647074   6.231   7.020   2.793  0.1870 -0.1948  2.2601
18040THY    HP747075   6.216   6.941   2.640 -0.5424  1.4424 -1.2569
18040THY    CA347076   6.428   6.829   2.864  0.7616 -0.4104 -0.1971
18040THY    HA347077   6.341   6.874   2.912  1.0190 -0.6400  0.5530
18040THY    CA447078   6.465   6.694   2.898  0.0824 -0.1264 -0.3330
18040THY    HA447079   6.414   6.641   2.978  0.1830  0.0021 -0.2355
18040THY    CA547080   6.560   6.629   2.824 -0.3002 -0.0896  0.3839
18040THY    CM147081   6.600   6.484   2.863 -0.1264 -0.0524 -0.1556
18040THY    HM147082   6.692   6.473   2.921  0.2962 -0.8024 -0.5955
18040THY    HM247083   6.610   6.427   2.771 -3.0573 -1.8156  1.8672
18040THY    HM347084   6.524   6.442   2.931  0.7584  0.7236 -0.5368
18040THY    CA647085   6.615   6.684   2.707 -0.0203 -0.4374  0.7131
18040THY    HA647086   6.691   6.627   2.655  0.8320  2.5884 -1.1561
18041THY      O47087   5.053   4.589   2.309 -0.5290 -0.3541 -0.5684
18041THY     HO47088   4.969   4.637   2.300  0.7408  0.8428  2.0878
18041THY    CA147089   5.144   4.671   2.258  0.8875  0.4645  0.0070
18041THY    CA247090   5.276   4.637   2.251 -0.0611 -0.0484  0.0115
18041THY    CP147091   5.313   4.490   2.279  0.8778  0.1020 -0.2170
18041THY    HP147092   5.240   4.437   2.340 -0.8227 -0.8990  0.8691
18041THY    CP247093   5.443   4.479   2.359 -1.0924  0.8201 -0.2995
18041THY    HP247094   5.411   4.525   2.453 -0.6244  1.8214 -1.9201
18041THY    HP347095   5.524   4.523   2.300 -1.5897 -0.4606 -1.0261
18041THY    HP447096   5.471   4.375   2.381 -0.5710  0.0817 -0.3248
18041THY    CP347097   5.317   4.403   2.158 -0.6474  0.0468  0.0865
18041THY    HP547098   5.327   4.296   2.182 -2.9880 -1.6347 -0.5959
18041THY    HP647099   5.385   4.444   2.082 -2.7474 -1.1063  1.5838
18041THY    HP747100   5.216   4.386   2.119  0.4070 -2.4483 -0.9916
18041THY    CA347101   5.365   4.728   2.202 -0.8065  0.5688 -0.3325
18041THY    HA347102   5.469   4.704   2.186 -0.6714  2.4717 -1.1049
18041THY    CA447103   5.335   4.859   2.171 -0.0519 -0.5340  0.0750
18041THY    HA447104   5.418   4.922   2.139 -0.6238 -1.8796  0.1850
18041THY    CA547105   5.206   4.896   2.194  0.6871  0.1257 -0.4468
18041THY    CM147106   5.161   5.036   2.177  1.1608  0.2936  0.1253
18041THY    HM147107   5.085   5.040   2.098  0.4522  1.0173  3.1482
18041THY    HM247108   5.238   5.102   2.137 -1.2774 -1.8007  1.8881
18041THY    HM347109   5.117   5.078   2.268  2.8249  2.6828 -2.9153
18041THY    CA647110   5.105   4.801   2.219 -0.2793 -0.5882 -0.1190
18041THY    HA647111   5.004   4.840   2.233  0.3073 -0.8721  1.5914
18042THY      O47112   0.303   8.198   4.673  0.2457 -0.5159 -0.0870
18042THY     HO47113   0.274   8.147   4.750 -0.6702 -0.1150  0.9875
18042THY    CA147114   0.240   8.317   4.679  0.3977  0.6235  0.2513
18042THY    CA247115   0.198   8.386   4.564  0.0408  0.3294 -0.5906
18042THY    CP147116   0.225   8.326   4.427  0.4612  0.0075  0.0848
18042THY    HP147117   0.287   8.236   4.435  2.0711 -0.4624  1.1060
18042THY    CP247118   0.299   8.429   4.345  0.4107 -0.1296 -0.2700
18042THY    HP247119   0.229   8.494   4.291 -0.1388 -0.2841 -0.9687
18042THY    HP347120   0.371   8.382   4.277  3.1270  1.7487  0.9430
18042THY    HP447121   0.357   8.497   4.407 -0.2181  2.6455 -2.1045
18042THY    CP347122   0.089   8.293   4.361 -0.1068  0.5816 -0.2391
18042THY    HP547123   0.111   8.238   4.268  1.4045 -0.4067  1.8611
18042THY    HP647124   0.029   8.378   4.326 -0.8584  2.4580  0.0341
18042THY    HP747125   0.033   8.234   4.434 -2.1972  0.1658  1.1416
18042THY    CA347126   0.132   8.515   4.577 -0.1829  0.2338 -0.0141
18042THY    HA347127   0.103   8.559   4.483 -2.1888  0.3967 -0.8702
18042THY    CA447128   0.107   8.571   4.698 -0.5718 -0.5190 -0.1782
18042THY    HA447129   0.054   8.666   4.706 -2.6474 -1.2918 -1.2284
18042THY    CA547130   0.154   8.500   4.812  0.0597  0.1436 -0.2808
18042THY    CM147131   0.137   8.564   4.944 -0.5901  0.4105 -0.3046
18042THY    HM147132   0.181   8.506   5.025 -0.4114  1.4297  1.2086
18042THY    HM247133   0.032   8.553   4.974 -0.8078  0.5573  1.7727
18042THY    HM347134   0.160   8.671   4.948  0.1308 -1.1229 -0.3641
18042THY    CA647135   0.205   8.368   4.800  0.3594  0.0015  0.2604
18042THY    HA647136   0.243   8.318   4.888  0.5776  0.1104  0.6098
18043THY      O47137   7.986   3.128   2.167 -0.1953 -0.1220 -0.2191
18043THY     HO47138   8.015   3.211   2.124  0.9763  0.4734 -0.3165
18043THY    CA147139   8.009   3.036   2.078  0.6620  0.2523 -0.1668
18043THY    CA247140   7.945   2.903   2.085  0.5577  0.4529  0.0956
18043THY    CP147141   7.854   2.868   2.199  0.1028  0.1762  0.2954
18043THY    HP147142   7.848   2.958   2.262 -1.6213  0.8000 -0.2119
18043THY    CP247143   7.918   2.750   2.274  0.3213 -0.0858  0.0545
18043THY    HP247144   7.893   2.654   2.227 -0.0740 -2.5039  1.2699
18043THY    HP347145   7.869   2.743   2.372 -0.4309 -0.4297  0.3355
18043THY    HP447146   8.026   2.763   2.280  0.1994 -0.7329  1.5632
18043THY    CP347147   7.706   2.833   2.153 -0.0706  0.1188 -0.3488
18043THY    HP547148   7.701   2.724   2.149 -1.7060  2.2114 -0.4238
18043THY    HP647149   7.676   2.871   2.055 -0.7119 -0.0778 -1.3288
18043THY    HP747150   7.636   2.878   2.224  0.8330  0.8666 -0.0892
18043THY    CA347151   7.960   2.813   1.976  0.0253 -0.8998 -0.3733
18043THY    HA347152   7.911   2.717   1.964  2.1000 -3.8375 -1.1925
18043THY    CA447153   8.043   2.846   1.873  0.0822 -0.4946 -0.1347
18043THY    HA447154   8.065   2.782   1.789  0.7860  0.5445 -1.3046
18043THY    CA547155   8.105   2.977   1.870  0.7394 -0.0790  0.2107
18043THY    CM147156   8.188   3.016   1.747  1.0598  0.2627 -0.8583
18043THY    HM147157   8.276   3.079   1.766  1.1113  0.3733 -0.9659
18043THY    HM247158   8.124   3.073   1.678  1.5073  1.5415  1.3044
18043THY    HM347159   8.226   2.926   1.698  0.9497 -0.2649 -0.6257
18043THY    CA647160   8.080   3.072   1.967 -0.8465  0.5744 -0.3151
18043THY    HA647161   8.124   3.171   1.962  0.1918  1.2582 -0.7231
18044THY      O47162   6.857   2.795   2.280 -0.3295 -0.5871  0.0237
18044THY     HO47163   6.829   2.846   2.357  0.6577  1.1202 -1.8810
18044THY    CA147164   6.864   2.889   2.180  0.2889 -0.3404 -0.5177
18044THY    CA247165   6.872   2.854   2.046  0.0646 -0.2262  0.2454
18044THY    CP147166   6.867   2.709   1.998 -0.4238 -0.7136 -0.0873
18044THY    HP147167   6.843   2.645   2.084 -0.4206  0.3444  1.2887
18044THY    CP247168   7.004   2.662   1.948  0.9026  0.3601 -0.6338
18044THY    HP247169   7.089   2.712   1.995  0.6898  1.4030 -1.2075
18044THY    HP347170   7.007   2.669   1.839 -0.7534  0.2710 -0.8632
18044THY    HP447171   7.011   2.560   1.988  2.0971  2.3136  0.1563
18044THY    CP347172   6.761   2.667   1.902  0.6737 -0.8430  0.2000
18044THY    HP547173   6.783   2.569   1.858  0.1008 -1.7837  0.4830
18044THY    HP647174   6.745   2.745   1.827  1.3058  0.2771  1.4357
18044THY    HP747175   6.673   2.649   1.965  1.3890  0.0880 -0.1288
18044THY    CA347176   6.892   2.956   1.954 -0.1402 -0.5211  0.0839
18044THY    HA347177   6.901   2.928   1.849  1.0926 -0.4514  0.1839
18044THY    CA447178   6.909   3.089   1.998 -0.3964  0.1076 -0.7883
18044THY    HA447179   6.942   3.164   1.927  0.4991  1.4136  0.0977
18044THY    CA547180   6.914   3.119   2.133 -0.2668  0.6667 -0.2787
18044THY    CM147181   6.937   3.263   2.176 -0.2057 -0.1557  0.1095
18044THY    HM147182   6.960   3.329   2.091 -3.6047 -2.1588 -1.0455
18044THY    HM247183   7.012   3.280   2.255 -0.6340  0.6816 -1.6387
18044THY    HM347184   6.837   3.291   2.210 -0.0023  3.3857 -2.7968
18044THY    CA647185   6.887   3.015   2.224 -0.7924 -0.6066 -0.1291
18044THY    HA647186   6.870   3.033   2.329 -0.3641 -0.8247  1.7305
18045THY      O47187   6.436   5.438   6.484 -0.7416  0.1932  0.7584
18045THY     HO47188   6.519   5.429   6.533  1.5345 -3.4163 -0.2062
18045THY    CA147189   6.372   5.553   6.523  0.8565 -0.1110 -0.1858
18045THY    CA247190   6.254   5.591   6.462 -0.0854  0.1767 -0.8760
18045THY    CP147191   6.188   5.498   6.353 -0.1703 -0.4651 -0.5271
18045THY    HP147192   6.256   5.423   6.312  1.4376  2.0120 -0.5326
18045THY    CP247193   6.118   5.561   6.226 -0.0383  0.2567 -0.0172
18045THY    HP247194   6.181   5.625   6.164 -2.4566 -2.0857  0.2603
18045THY    HP347195   6.027   5.620   6.243  0.3738 -1.4177  1.1707
18045THY    HP447196   6.105   5.473   6.164  3.1264 -2.5718  1.2966
18045THY    CP347197   6.092   5.397   6.427  0.3355  0.2853 -0.0362
18045THY    HP547198   6.059   5.320   6.356 -2.4800  0.7151  0.6436
18045THY    HP647199   5.999   5.441   6.465 -0.2405 -0.4616 -0.5880
18045THY    HP747200   6.147   5.352   6.511 -0.2535  1.1900  0.8796
18045THY    CA347201   6.197   5.717   6.495 -0.2443 -0.6867 -0.8268
18045THY    HA347202   6.110   5.752   6.439 -0.8777 -0.6324 -2.2466
18045THY    CA447203   6.257   5.796   6.600 -0.5116 -0.5342 -0.3261
18045THY    HA447204   6.212   5.889   6.632  1.2808  0.1735  0.3431
18045THY    CA547205   6.378   5.762   6.655 -0.6904 -0.2406  1.0617
18045THY    CM147206   6.455   5.850   6.750  0.1085 -0.4035 -0.4133
18045THY    HM147207   6.550   5.888   6.710  1.9568  2.6983 -1.3997
18045THY    HM247208   6.460   5.794   6.845 -0.6135 -0.2975 -0.3102
18045THY    HM347209   6.404   5.939   6.787  0.7758  0.4745 -0.3785
18045THY    CA647210   6.434   5.639   6.615  0.2413 -0.5704  0.1502
18045THY    HA647211   6.528   5.615   6.665 -0.4391  2.2143  2.7657
18046THY      O47212   0.893   5.181   6.301 -0.0421 -0.5813 -0.4113
18046THY     HO47213   0.874   5.229   6.219 -1.6437 -0.0499 -0.0849
18046THY    CA147214   1.021   5.148   6.299 -0.2239  0.2473  0.1018
18046THY    CA247215   1.090   5.093   6.407  0.3025  0.6466  0.5510
18046THY    CP147216   1.009   5.052   6.532  0.1508 -0.2747 -0.1810
18046THY    HP147217   0.953   5.137   6.572  0.3315  1.5008 -0.8503
18046THY    CP247218   1.093   5.015   6.657  0.2695 -0.6130  0.4192
18046THY    HP247219   1.133   4.914   6.642 -1.0190 -2.0712  0.1068
18046THY    HP347220   1.022   5.021   6.740  0.5907  0.0121 -2.7444
18046THY    HP447221   1.174   5.083   6.688  1.2293 -0.6135 -0.6930
18046THY    CP347222   0.921   4.929   6.508 -0.1603 -0.0180  0.0535
18046THY    HP547223   0.980   4.839   6.490  0.5394 -0.0556  0.5165
18046THY    HP647224   0.853   4.943   6.422 -1.6680  1.3604  1.7507
18046THY    HP747225   0.864   4.919   6.601  1.3328  0.9033 -0.2186
18046THY    CA347226   1.230   5.081   6.393 -0.1243  0.3699 -0.3557
18046THY    HA347227   1.288   5.052   6.481 -0.3241  0.9631  0.9264
18046THY    CA447228   1.303   5.109   6.272  0.3274  0.3607  0.0937
18046THY    HA447229   1.409   5.085   6.264  0.3855 -2.9250  0.9901
18046THY    CA547230   1.225   5.151   6.171  0.1373  0.6136 -0.2942
18046THY    CM147231   1.285   5.159   6.025  0.2331  0.0466 -0.1516
18046THY    HM147232   1.279   5.261   5.986  0.2536 -0.0666 -0.1929
18046THY    HM247233   1.221   5.112   5.949 -0.5715 -1.1819  2.6831
18046THY    HM347234   1.387   5.120   6.016 -0.4397 -1.0671 -1.7925
18046THY    CA647235   1.086   5.167   6.182 -0.9627  0.0667 -0.9938
18046THY    HA647236   1.039   5.179   6.085  1.1307 -0.8867  0.0868
18047THY      O47237   0.655   8.915   6.653 -0.4299 -0.7607 -0.0356
18047THY     HO47238   0.562   8.906   6.682  0.2580  1.9650  0.6455
18047THY    CA147239   0.722   8.978   6.752  0.3409  0.3671  0.3843
18047THY    CA247240   0.848   8.931   6.795  0.5525  0.1809  0.2750
18047THY    CP147241   0.914   8.801   6.745  0.0806 -0.6082 -0.1796
18047THY    HP147242   0.864   8.760   6.656  1.7438 -1.0485 -1.3036
18047THY    CP247243   0.895   8.686   6.837  0.4620  0.0467  0.1872
18047THY    HP247244   0.934   8.592   6.797 -0.6429 -0.4083 -0.0978
18047THY    HP347245   0.789   8.672   6.862  0.3247 -0.9767 -0.7909
18047THY    HP447246   0.950   8.712   6.928  0.6075 -0.8557  3.3934
18047THY    CP347247   1.060   8.822   6.707 -0.2616 -0.3550  0.1573
18047THY    HP547248   1.124   8.848   6.792 -2.1991  1.3576 -0.4653
18047THY    HP647249   1.076   8.895   6.626  1.1876 -0.5573 -0.3363
18047THY    HP747250   1.102   8.732   6.659 -0.6052  0.2283 -0.3258
18047THY    CA347251   0.898   8.996   6.906  0.1014 -0.9334 -0.2572
18047THY    HA347252   0.991   8.961   6.951  0.2856 -0.1009  1.2182
18047THY    CA447253   0.846   9.116   6.948  0.3118  0.6988 -0.9833
18047THY    HA447254   0.892   9.180   7.022 -0.8401  0.2413  0.4362
18047THY    CA547255   0.726   9.171   6.893  0.2474  0.0042  0.8254
18047THY    CM147256   0.671   9.309   6.924  0.2488 -0.4836 -0.2785
18047THY    HM147257   0.751   9.361   6.978  2.2459 -1.8558 -1.7758
18047THY    HM247258   0.575   9.299   6.977  0.2426 -0.4160  0.1230
18047THY    HM347259   0.649   9.364   6.832 -2.2622 -0.9965 -1.9503
18047THY    CA647260   0.662   9.093   6.795  0.1228 -0.2391  0.2733
18047THY    HA647261   0.571   9.128   6.748 -0.9239  2.6249  1.7032
18048THY      O47262   2.492   8.368   6.661  0.1661 -0.2089 -0.0975
18048THY     HO47263   2.480   8.272   6.671 -4.6503  0.3960  0.3523
18048THY    CA147264   2.610   8.401   6.722  0.2340  0.0369  0.0793
18048THY    CA247265   2.642   8.540   6.740  0.4744  0.3711 -0.0187
18048THY    CP147266   2.541   8.648   6.697 -0.3638  0.2650  0.7703
18048THY    HP147267   2.476   8.613   6.617 -1.8106  1.0310  1.6396
18048THY    CP247268   2.622   8.764   6.649 -0.5991  0.1816 -0.5988
18048THY    HP247269   2.558   8.834   6.593 -0.2585  1.3729  0.7111
18048THY    HP347270   2.699   8.731   6.578  0.4906  1.1620 -0.1838
18048THY    HP447271   2.680   8.816   6.725 -0.8344  0.2593 -0.4510
18048THY    CP347272   2.444   8.700   6.803 -0.3801  0.3457 -0.0079
18048THY    HP547273   2.503   8.770   6.864 -0.5692 -0.1064  0.5461
18048THY    HP647274   2.403   8.625   6.872  0.0919 -2.8257 -3.4693
18048THY    HP747275   2.364   8.757   6.756  1.3583 -2.4387  0.3003
18048THY    CA347276   2.769   8.570   6.795  0.3294  0.4818 -0.6992
18048THY    HA347277   2.809   8.670   6.814 -1.9229 -0.3720  0.4365
18048THY    CA447278   2.843   8.465   6.858  0.7055  0.0815  0.5788
18048THY    HA447279   2.921   8.492   6.929  1.8166 -0.4074 -1.1333
18048THY    CA547280   2.801   8.327   6.842 -0.0316 -0.2357  0.1552
18048THY    CM147281   2.886   8.213   6.905 -0.1471  0.1917  0.2781
18048THY    HM147282   2.831   8.148   6.974 -0.1232 -1.3661 -1.4879
18048THY    HM247283   2.974   8.248   6.960  0.2606  0.4671 -1.1274
18048THY    HM347284   2.923   8.153   6.820  0.2008  0.0138  0.7401
18048THY    CA647285   2.690   8.295   6.770  0.4490 -0.1232 -0.1477
18048THY    HA647286   2.664   8.191   6.751 -0.1475  1.2637 -0.2767
18049THY      O47287   7.057   7.711   5.915 -0.2017 -0.1225 -0.3128
18049THY     HO47288   7.072   7.643   5.847  2.4211 -0.3629  0.4158
18049THY    CA147289   7.036   7.646   6.032  0.8286  0.2368  0.0908
18049THY    CA247290   7.102   7.682   6.146 -0.2371 -0.1508  0.0776
18049THY    CP147291   7.203   7.795   6.139 -0.0805 -0.4687  0.1177
18049THY    HP147292   7.224   7.834   6.038 -0.8273 -0.2414  1.1350
18049THY    CP247293   7.340   7.759   6.181 -0.1200  0.2535  0.0364
18049THY    HP247294   7.420   7.831   6.160  0.5948  0.8286 -0.5736
18049THY    HP347295   7.371   7.676   6.115  0.4331 -1.3302  1.4533
18049THY    HP447296   7.350   7.726   6.285  1.0658  0.2554  0.3378
18049THY    CP347297   7.160   7.919   6.217 -0.5232 -0.0213 -0.1641
18049THY    HP547298   7.224   8.007   6.203  0.4174 -1.0328 -0.9750
18049THY    HP647299   7.165   7.883   6.321  0.9606  0.7553  2.0473
18049THY    HP747300   7.058   7.948   6.190 -0.6571 -3.4664 -3.1242
18049THY    CA347301   7.101   7.591   6.256  0.6663 -0.1906 -0.2416
18049THY    HA347302   7.167   7.614   6.339  0.0942  1.2182 -3.2066
18049THY    CA447303   7.019   7.472   6.252  0.6326  0.4026 -0.5447
18049THY    HA447304   7.008   7.399   6.331  0.3109 -0.0828 -1.0263
18049THY    CA547305   6.952   7.440   6.132  0.2058 -0.4285  0.4351
18049THY    CM147306   6.898   7.302   6.115  0.2226  0.1104 -0.6328
18049THY    HM147307   6.900   7.257   6.015 -1.4566  0.8040 -2.4124
18049THY    HM247308   6.798   7.299   6.161 -1.5992 -3.4296  0.2397
18049THY    HM347309   6.962   7.227   6.164  0.9972 -2.3316 -1.6636
18049THY    CA647310   6.968   7.523   6.020  0.1393 -0.0599  0.2106
18049THY    HA647311   6.927   7.488   5.926  0.2300  0.0938 -0.3143
18050THY      O47312   4.439   8.489   6.822  0.8851 -0.2567 -0.6611
18050THY     HO47313   4.408   8.573   6.785 -0.9095  1.4991 -0.4871
18050THY    CA147314   4.396   8.396   6.725  0.0112 -0.7973 -0.3628
18050THY    CA247315   4.391   8.256   6.758 -0.6220 -0.2353 -0.6867
18050THY    CP147316   4.457   8.214   6.892  0.2076  0.9725  0.1361
18050THY    HP147317   4.464   8.302   6.958  1.3207  0.1130  0.7094
18050THY    CP247318   4.598   8.171   6.867 -0.0338 -0.2970 -0.3008
18050THY    HP247319   4.598   8.071   6.823  1.8819  0.1483 -0.5331
18050THY    HP347320   4.653   8.173   6.962 -0.2511 -0.1797  0.5924
18050THY    HP447321   4.640   8.240   6.794  0.6272 -1.1069 -1.5218
18050THY    CP347322   4.371   8.111   6.965  0.0583  0.6290  0.0894
18050THY    HP547323   4.389   8.008   6.933  2.2926 -0.8842  0.8757
18050THY    HP647324   4.265   8.138   6.959  0.3454 -2.5658  0.9467
18050THY    HP747325   4.390   8.127   7.072  0.6976  0.5522 -0.1041
18050THY    CA347326   4.332   8.165   6.671  0.4193 -0.4786  0.0753
18050THY    HA347327   4.330   8.059   6.694  0.5964 -0.2978  0.1087
18050THY    CA447328   4.275   8.217   6.556 -0.1354  0.1247 -0.9625
18050THY    HA447329   4.221   8.146   6.495  1.7816  1.3453 -3.6597
18050THY    CA547330   4.278   8.351   6.520  0.0618 -0.1232  0.1370
18050THY    CM147331   4.199   8.405   6.396  0.3456 -0.6574  0.7317
18050THY    HM147332   4.268   8.467   6.339  1.5121 -1.5124 -1.2528
18050THY    HM247333   4.118   8.474   6.424 -1.3642 -1.0868 -1.0229
18050THY    HM347334   4.160   8.318   6.342  0.0437  1.4936 -0.5418
18050THY    CA647335   4.341   8.441   6.608 -0.1836 -0.3122 -0.5849
18050THY    HA647336   4.338   8.547   6.584  4.5805  0.9408  0.0532
18051THY      O47337   1.897   7.317   3.201  1.0867 -0.8177  0.5903
18051THY     HO47338   1.933   7.244   3.254  2.4780 -0.2626  1.6322
18051THY    CA147339   1.973   7.343   3.094  0.3529  0.4807  0.0837
18051THY    CA247340   1.974   7.463   3.023 -0.3386 -0.4212  0.1690
18051THY    CP147341   1.916   7.592   3.087 -0.1179  0.2144  0.9307
18051THY    HP147342   1.892   7.581   3.193 -0.8978 -0.0624 -0.2228
18051THY    CP247343   1.778   7.623   3.018 -0.0345 -0.9257 -1.0166
18051THY    HP247344   1.733   7.711   3.064 -1.7654 -0.2456 -2.2004
18051THY    HP347345   1.713   7.536   3.033 -0.5923 -0.0207 -0.4541
18051THY    HP447346   1.782   7.637   2.909 -1.0058 -0.9114 -0.5438
18051THY    CP347347   2.009   7.720   3.081 -1.0291  0.1463  0.1067
18051THY    HP547348   1.969   7.810   3.128 -0.4912 -0.7142  0.8165
18051THY    HP647349   2.042   7.749   2.980  2.7597  1.3677  0.4897
18051THY    HP747350   2.101   7.705   3.138  0.1952 -1.3431  1.5795
18051THY    CA347351   2.050   7.473   2.905  0.1165 -0.0099 -0.1290
18051THY    HA347352   2.059   7.569   2.855 -0.6626  0.2887  0.1082
18051THY    CA447353   2.110   7.365   2.857  0.4220  0.1418  0.2914
18051THY    HA447354   2.170   7.362   2.767  0.2186  0.0219 -1.4188
18051THY    CA547355   2.101   7.247   2.923  0.9585  0.1582  0.3907
18051THY    CM147356   2.170   7.124   2.869 -0.4067  0.3058 -0.4349
18051THY    HM147357   2.202   7.064   2.955 -2.4011  1.8303  0.5637
18051THY    HM247358   2.259   7.157   2.813 -0.0286  1.5806  0.8280
18051THY    HM347359   2.103   7.062   2.808 -0.1373  1.1045 -1.5492
18051THY    CA647360   2.037   7.233   3.041  0.4991 -0.3637  0.8713
18051THY    HA647361   2.030   7.136   3.090 -0.1857 -0.7439  0.7198
18052THY      O47362   3.803   6.337   3.870 -0.1464 -0.3164 -1.0416
18052THY     HO47363   3.863   6.297   3.805  1.9483  1.2021 -0.5071
18052THY    CA147364   3.876   6.444   3.924 -0.4284 -0.2334  0.1606
18052THY    CA247365   3.813   6.535   4.013  0.0932  0.0895  0.3797
18052THY    CP147366   3.669   6.510   4.070  0.0955 -0.3440  0.7788
18052THY    HP147367   3.635   6.410   4.044 -1.7691 -2.0624  1.7838
18052THY    CP247368   3.579   6.611   4.004 -0.4362 -0.2535 -0.6686
18052THY    HP247369   3.580   6.591   3.896  0.8869  0.0025 -2.2073
18052THY    HP347370   3.615   6.714   4.017  0.0631 -0.3152 -0.8359
18052THY    HP447371   3.476   6.609   4.041 -0.8863 -1.3273  0.6205
18052THY    CP347372   3.648   6.521   4.224  0.0870 -0.0043 -0.2436
18052THY    HP547373   3.543   6.497   4.242  0.5375 -0.4547 -2.8478
18052THY    HP647374   3.685   6.620   4.253  0.0647  1.6593 -0.6937
18052THY    HP747375   3.709   6.450   4.281 -1.2733 -1.3800 -2.6453
18052THY    CA347376   3.890   6.642   4.057  0.3707  0.8267  0.1727
18052THY    HA347377   3.848   6.716   4.124 -0.6985  1.3433 -0.8551
18052THY    CA447378   4.026   6.661   4.023 -0.3016  0.2832  1.2138
18052THY    HA447379   4.088   6.738   4.066  1.5549 -1.0349  0.5384
18052THY    CA547380   4.078   6.573   3.921 -0.7844  1.4839  0.9848
18052THY    CM147381   4.217   6.593   3.874 -0.3824 -0.0723 -0.3848
18052THY    HM147382   4.203   6.659   3.788  0.1700 -1.7297 -2.3190
18052THY    HM247383   4.256   6.496   3.842 -1.6362 -2.3798 -0.2035
18052THY    HM347384   4.273   6.638   3.956  0.7828 -2.4695  2.9065
18052THY    CA647385   4.002   6.475   3.868  0.7018  0.2138  0.1421
18052THY    HA647386   4.040   6.399   3.801 -2.1496 -0.1585 -1.0809
18053THY      O47387   2.396   4.160   3.001 -0.0017 -0.5621 -0.4631
18053THY     HO47388   2.457   4.234   3.021  0.7838  0.1627 -1.2793
18053THY    CA147389   2.467   4.046   3.033 -0.1160  0.2026 -0.4866
18053THY    CA247390   2.417   3.918   3.019  0.0803 -0.4791  0.1283
18053THY    CP147391   2.280   3.897   2.969  0.5263 -0.3565  0.7791
18053THY    HP147392   2.231   3.992   2.944  2.4450  0.9824  2.2086
18053THY    CP247393   2.195   3.828   3.075  0.2592  0.4662  0.1643
18053THY    HP247394   2.208   3.721   3.054 -1.2709  2.6195 -0.5323
18053THY    HP347395   2.089   3.852   3.062  0.4617 -0.0655  0.7897
18053THY    HP447396   2.228   3.860   3.175 -0.6032  1.1122 -0.8852
18053THY    CP347397   2.279   3.819   2.836 -0.2273  0.1929 -0.1156
18053THY    HP547398   2.203   3.867   2.772  0.9190  0.3145  1.9368
18053THY    HP647399   2.251   3.714   2.852 -0.4743 -0.8527 -0.2269
18053THY    HP747400   2.373   3.829   2.780  0.7862  1.3593 -2.3580
18053THY    CA347401   2.507   3.812   3.049  0.6418  0.3273  0.1892
18053THY    HA347402   2.470   3.710   3.042  0.8308 -0.3582  0.1586
18053THY    CA447403   2.637   3.843   3.094 -0.6406 -0.6504 -0.5477
18053THY    HA447404   2.715   3.775   3.127 -0.0915 -1.0232 -0.1181
18053THY    CA547405   2.681   3.977   3.102  0.4415 -0.3095  0.2589
18053THY    CM147406   2.822   4.017   3.141  0.0094  0.1516 -0.1639
18053THY    HM147407   2.888   4.027   3.054 -0.7634 -0.9519 -3.4006
18053THY    HM247408   2.865   3.935   3.200  0.8616 -1.0327 -0.6006
18053THY    HM347409   2.821   4.108   3.202 -0.0395  0.6092 -0.4658
18053THY    CA647410   2.597   4.075   3.064 -0.2016 -0.2281 -0.4070
18053THY    HA647411   2.633   4.177   3.063 -3.0544 -0.1650  0.6839
18054THY      O47412   3.600   1.765   3.671  0.4301 -0.3469  0.1203
18054THY     HO47413   3.549   1.838   3.711  0.7789 -0.9345  0.6972
18054THY    CA147414   3.634   1.799   3.546 -0.2104 -0.3644  0.2106
18054THY    CA247415   3.703   1.705   3.464  0.0685  0.3939 -0.0962
18054THY    CP147416   3.738   1.566   3.500 -0.0201  0.2453  0.5337
18054THY    HP147417   3.700   1.528   3.596  1.1495 -0.4288 -2.6310
18054THY    CP247418   3.892   1.552   3.500 -0.0184 -0.0474  0.1508
18054THY    HP247419   3.929   1.589   3.404 -1.8639 -0.8800 -0.0602
18054THY    HP347420   3.915   1.445   3.516 -1.1800  1.3122  0.0788
18054THY    HP447421   3.942   1.609   3.579  1.2552 -0.7139  0.0010
18054THY    CP347422   3.674   1.465   3.406  0.5898  0.4414 -0.8046
18054THY    HP547423   3.675   1.363   3.446  1.8837 -0.9742 -1.3816
18054THY    HP647424   3.722   1.451   3.309 -0.2409  0.1336 -1.5468
18054THY    HP747425   3.570   1.488   3.384  1.0301 -0.9981 -0.0818
18054THY    CA347426   3.722   1.745   3.328 -0.7716 -0.1982 -0.6871
18054THY    HA347427   3.777   1.678   3.262  0.5794  0.7071 -0.5084
18054THY    CA447428   3.674   1.862   3.276 -0.6348 -0.9145  0.1220
18054THY    HA447429   3.698   1.897   3.176  0.9780 -0.7839 -0.5024
18054THY    CA547430   3.608   1.951   3.358 -0.4966 -0.4448 -0.4793
18054THY    CM147431   3.561   2.076   3.304 -0.4654 -0.0182 -0.0401
18054THY    HM147432   3.482   2.054   3.231 -0.4559  0.4244 -1.6188
18054THY    HM247433   3.639   2.127   3.246  0.2305  0.7889 -0.1714
18054THY    HM347434   3.515   2.144   3.376  2.0328  0.5444  1.1810
18054THY    CA647435   3.590   1.922   3.494 -0.1369 -0.1078 -0.2819
18054THY    HA647436   3.538   1.994   3.556 -0.3532 -0.2857 -0.2847
18055THY      O47437   1.076   7.919   3.004 -0.0062 -0.1583  0.2005
18055THY     HO47438   1.006   7.860   3.038  2.6533  3.3961 -1.2929
18055THY    CA147439   1.157   7.944   3.106  0.2201 -0.4450  0.4353
18055THY    CA247440   1.298   7.938   3.100 -0.0110 -0.9271 -0.2301
18055THY    CP147441   1.368   7.895   2.971  0.2436  0.3791  0.0578
18055THY    HP147442   1.290   7.897   2.893  0.2665  0.3265 -0.7875
18055THY    CP247443   1.430   7.748   2.978 -0.3277  0.3625 -0.2792
18055THY    HP247444   1.339   7.690   2.998 -2.0938  1.3297  2.6165
18055THY    HP347445   1.509   7.729   3.051 -0.2975  0.3137 -0.3417
18055THY    HP447446   1.485   7.724   2.886 -0.3681 -0.0289  1.0609
18055THY    CP347447   1.480   7.996   2.935  0.1392  0.2369  0.3293
18055THY    HP547448   1.566   8.003   3.002 -0.5998  1.0333  2.5789
18055THY    HP647449   1.443   8.099   2.931 -0.8689 -0.5694 -0.0476
18055THY    HP747450   1.519   7.970   2.835  0.6884  0.9454 -1.7313
18055THY    CA347451   1.364   7.972   3.219 -0.1948 -0.3132 -0.6501
18055THY    HA347452   1.472   7.961   3.229  0.1166  0.5561  2.3729
18055THY    CA447453   1.293   8.020   3.338 -1.0657  0.7176 -0.5435
18055THY    HA447454   1.356   8.047   3.422  1.5258 -1.4549  0.5814
18055THY    CA547455   1.157   8.020   3.339  0.3318  0.3095 -0.3509
18055THY    CM147456   1.079   8.064   3.460 -0.5897  0.3522 -0.5006
18055THY    HM147457   1.095   7.997   3.545 -1.1476  0.8074 -0.0642
18055THY    HM247458   0.972   8.065   3.436 -0.4284 -0.4331  0.7200
18055THY    HM347459   1.118   8.163   3.487  0.0624 -2.6452  0.1699
18055THY    CA647460   1.090   7.989   3.224  0.0794  0.2834  0.1212
18055THY    HA647461   0.982   7.990   3.229  0.0498 -0.0044 -0.5775
18056THY      O47462   6.924   2.744   2.646 -0.4284 -0.3018 -0.1565
18056THY     HO47463   7.001   2.789   2.607 -1.1156 -1.5100  0.0073
18056THY    CA147464   6.946   2.606   2.670  0.2250  0.1019 -0.0853
18056THY    CA247465   6.831   2.519   2.681  0.7995 -0.6000 -0.0564
18056THY    CP147466   6.688   2.578   2.655  0.5132 -0.1932 -0.1517
18056THY    HP147467   6.684   2.670   2.715  1.9321 -0.0287 -0.1708
18056THY    CP247468   6.572   2.485   2.713 -0.1921  0.4176  0.2145
18056THY    HP247469   6.481   2.545   2.703  0.0235  0.0285  0.4774
18056THY    HP347470   6.582   2.461   2.820 -0.9200 -0.0221 -2.3314
18056THY    HP447471   6.561   2.391   2.658 -1.5304  0.6985  0.1813
18056THY    CP347472   6.681   2.606   2.500 -0.3704 -0.2280  1.0225
18056THY    HP547473   6.587   2.654   2.468 -0.0450  1.3845  2.8860
18056THY    HP647474   6.680   2.509   2.451 -2.0036  0.1482  0.8175
18056THY    HP747475   6.765   2.671   2.472  0.0632 -0.1165  0.5169
18056THY    CA347476   6.859   2.381   2.709 -0.4718  0.2711  0.5065
18056THY    HA347477   6.772   2.317   2.718 -0.8994  0.5834  1.1251
18056THY    CA447478   6.996   2.333   2.713  0.2079 -0.1193  0.1018
18056THY    HA447479   7.025   2.228   2.715 -1.6261  0.8126 -0.4114
18056THY    CA547480   7.100   2.426   2.711 -0.0112  1.4096 -0.2203
18056THY    CM147481   7.242   2.373   2.726  0.1888  0.0636 -0.0562
18056THY    HM147482   7.267   2.302   2.647 -0.3919 -1.2996  1.2019
18056THY    HM247483   7.265   2.328   2.824 -0.8265 -0.7035 -2.3584
18056THY    HM347484   7.314   2.454   2.708 -0.1212 -2.3669 -0.2404
18056THY    CA647485   7.081   2.564   2.688 -0.1497 -0.0477 -1.0489
18056THY    HA647486   7.158   2.639   2.681 -2.6450 -3.8627  1.5542
18057THY      O47487   7.252   7.336   6.474  0.0245  0.2584 -0.1305
18057THY     HO47488   7.279   7.408   6.533 -2.2418  0.7832  0.3581
18057THY    CA147489   7.341   7.228   6.479  0.2762  0.1485  0.2706
18057THY    CA247490   7.310   7.104   6.436 -0.3167 -0.1210 -0.2258
18057THY    CP147491   7.162   7.087   6.388 -0.1151  0.2818 -0.2444
18057THY    HP147492   7.122   7.174   6.334 -1.5781 -1.8706 -2.1365
18057THY    CP247493   7.053   7.074   6.497 -0.0886 -0.1814 -0.2772
18057THY    HP247494   7.036   7.167   6.553 -1.6822 -0.6132 -0.2708
18057THY    HP347495   7.078   6.996   6.570 -1.0744  1.2582  0.7160
18057THY    HP447496   6.952   7.058   6.456 -0.7007  1.4192 -0.6721
18057THY    CP347497   7.139   6.966   6.291 -0.0969 -0.1854 -0.4733
18057THY    HP547498   7.179   6.871   6.330  0.6108 -0.3490 -0.2516
18057THY    HP647499   7.203   6.971   6.203  0.3255  0.1684  0.5368
18057THY    HP747500   7.032   6.960   6.270 -0.6513  2.1431  0.1228
18057THY    CA347501   7.402   7.000   6.449  0.2190 -0.1485  0.5562
18057THY    HA347502   7.388   6.895   6.424  0.9325 -1.4936  0.7678
18057THY    CA447503   7.524   7.026   6.506 -0.1615 -0.7526  0.3583
18057THY    HA447504   7.588   6.942   6.527  0.2802 -1.2721  0.5612
18057THY    CA547505   7.560   7.152   6.544  0.1605  0.7215  0.1032
18057THY    CM147506   7.693   7.167   6.614  0.2795  0.0260  0.2064
18057THY    HM147507   7.701   7.092   6.694 -0.6418  2.4580  2.4954
18057THY    HM247508   7.701   7.266   6.663  2.6402 -1.5360  0.8676
18057THY    HM347509   7.773   7.164   6.540  1.3629  1.1242  1.0971
18057THY    CA647510   7.469   7.255   6.533 -0.4899  0.2286 -0.3685
18057THY    HA647511   7.491   7.345   6.590 -1.2040  0.1978 -0.1629
18058THY      O47512   1.491   2.929   4.207 -0.3758  0.8907 -0.1238
18058THY     HO47513   1.446   2.975   4.134  0.0277 -0.9941 -2.5194
18058THY    CA147514   1.512   3.014   4.304  0.1424  0.6129  0.5642
18058THY    CA247515   1.565   2.970   4.428  0.6980  0.2165  0.5396
18058THY    CP147516   1.593   2.823   4.449  0.5161  0.1138 -0.6512
18058THY    HP147517   1.543   2.759   4.375 -1.1278  1.2175 -0.7013
18058THY    CP247518   1.536   2.777   4.580  0.2754  0.0464  0.4820
18058THY    HP247519   1.585   2.805   4.674 -0.4886  1.3262 -2.1064
18058THY    HP347520   1.526   2.668   4.591 -1.0737  0.9307  0.6639
18058THY    HP447521   1.439   2.825   4.601  1.0468  2.8946  0.9786
18058THY    CP347522   1.741   2.790   4.448 -0.0498  0.2665  0.0492
18058THY    HP547523   1.779   2.826   4.352 -0.0782  1.0847  2.4529
18058THY    HP647524   1.773   2.685   4.443  0.0982  0.4399  0.0840
18058THY    HP747525   1.798   2.848   4.522  1.7501 -2.2254  1.6631
18058THY    CA347526   1.590   3.063   4.529 -0.3576  0.0580 -0.1891
18058THY    HA347527   1.644   3.035   4.619  0.0916 -0.6210 -1.5758
18058THY    CA447528   1.572   3.200   4.505  0.1716  0.0659  0.7148
18058THY    HA447529   1.597   3.275   4.580  0.9111 -0.3253  0.8693
18058THY    CA547530   1.530   3.241   4.378  0.3952  0.0089  0.1132
18058THY    CM147531   1.481   3.378   4.358  0.0560  0.0107 -0.4207
18058THY    HM147532   1.526   3.410   4.263 -0.2381 -0.4844 -1.4311
18058THY    HM247533   1.503   3.453   4.434  0.3879 -0.5425  0.0497
18058THY    HM347534   1.373   3.380   4.341 -0.0340  0.5941 -0.0821
18058THY    CA647535   1.493   3.147   4.279 -0.3959 -0.7304 -0.3199
18058THY    HA647536   1.463   3.190   4.184  0.9207 -0.7205  0.7183
18059THY      O47537   6.690   8.325   4.184 -1.3033  0.2986  0.1522
18059THY     HO47538   6.677   8.228   4.185  1.7940 -0.1637 -0.3920
18059THY    CA147539   6.824   8.328   4.155 -0.3850 -0.4077  0.5115
18059THY    CA247540   6.887   8.450   4.123  0.3714 -0.2062  0.2191
18059THY    CP147541   6.812   8.586   4.091  0.1536 -0.3909  0.9528
18059THY    HP147542   6.706   8.568   4.114  0.3667  0.0663  0.2340
18059THY    CP247543   6.834   8.620   3.947  0.2136 -0.0143 -0.4303
18059THY    HP247544   6.776   8.555   3.880 -1.1305  0.9727 -0.3008
18059THY    HP347545   6.940   8.611   3.921  0.4126  0.6108  0.0463
18059THY    HP447546   6.793   8.718   3.920 -0.2220  1.5154 -0.1729
18059THY    CP347547   6.861   8.703   4.181 -1.1490  0.1578  0.0508
18059THY    HP547548   6.785   8.781   4.167  0.8476 -0.4320  1.9862
18059THY    HP647549   6.958   8.740   4.148 -1.4859  0.0167  0.8405
18059THY    HP747550   6.867   8.682   4.288  2.5763  0.1783  0.7119
18059THY    CA347551   7.031   8.440   4.115 -1.0064 -0.3364  0.1258
18059THY    HA347552   7.089   8.526   4.082 -0.2257  1.1944  0.2271
18059THY    CA447553   7.102   8.322   4.149 -0.0532 -0.4690  0.4636
18059THY    HA447554   7.210   8.310   4.142 -0.1322 -1.2752  0.1385
18059THY    CA547555   7.027   8.208   4.178  0.1875 -0.3208  0.8449
18059THY    CM147556   7.105   8.083   4.219 -0.1538 -0.0362 -0.1803
18059THY    HM147557   7.123   8.020   4.131 -1.1465 -1.0642  0.9539
18059THY    HM247558   7.053   8.023   4.295 -0.0878  1.3610  1.4535
18059THY    HM347559   7.207   8.111   4.248 -0.0294 -0.1828 -0.4720
18059THY    CA647560   6.891   8.211   4.180  0.1900  0.7523 -0.0996
18059THY    HA647561   6.833   8.122   4.201 -0.1613 -1.5536 -0.4808
18060THY      O47562   4.268   1.176   4.743 -0.1918  0.7302 -0.3941
18060THY     HO47563   4.332   1.180   4.671 -3.6070 -2.6498 -0.5070
18060THY    CA147564   4.187   1.080   4.704 -0.0010  0.5269  0.0129
18060THY    CA247565   4.050   1.077   4.739 -0.3033 -0.5070  0.0098
18060THY    CP147566   3.992   1.179   4.832  0.4191 -0.9048 -0.0442
18060THY    HP147567   4.061   1.262   4.852 -1.1998 -0.1798  1.1810
18060THY    CP247568   3.956   1.108   4.963  0.0390  0.0791 -0.5894
18060THY    HP247569   4.026   1.029   4.992  1.0674 -0.1286  0.2211
18060THY    HP347570   3.864   1.052   4.948  0.3299 -0.2646 -0.9828
18060THY    HP447571   3.947   1.185   5.041  0.2195 -0.4240 -0.0549
18060THY    CP347572   3.866   1.249   4.770  0.6210  0.0309 -0.0151
18060THY    HP547573   3.897   1.287   4.671  2.7341  1.2285  1.6102
18060THY    HP647574   3.845   1.336   4.834 -0.2446  0.7772 -0.7552
18060THY    HP747575   3.778   1.184   4.763 -0.3796 -0.0683  1.2851
18060THY    CA347576   3.978   0.967   4.694 -0.2408 -0.0753 -0.0836
18060THY    HA347577   3.876   0.959   4.731 -0.2874  0.1229  1.2544
18060THY    CA447578   4.041   0.875   4.611 -0.3013 -0.1905  0.4776
18060THY    HA447579   3.973   0.801   4.571 -2.3813 -0.2669  2.3165
18060THY    CA547580   4.176   0.880   4.574  0.0466 -0.8222 -0.3660
18060THY    CM147581   4.230   0.782   4.482  0.6936  0.0133  0.7016
18060THY    HM147582   4.257   0.690   4.535 -0.6305  0.0879  0.3365
18060THY    HM247583   4.319   0.824   4.433  1.0455 -0.7838 -0.8866
18060THY    HM347584   4.167   0.757   4.396 -0.2175  1.0353 -0.6794
18060THY    CA647585   4.258   0.976   4.631  0.1221 -0.4700 -0.0262
18060THY    HA647586   4.366   0.977   4.619  0.0744 -0.9037 -0.1995
18061THY      O47587   1.609   5.571   6.498  0.0096  0.1993 -0.1207
18061THY     HO47588   1.600   5.572   6.594 -1.0150  0.1134  0.9917
18061THY    CA147589   1.493   5.522   6.444  0.1620 -0.1139 -0.8769
18061THY    CA247590   1.478   5.502   6.303  0.5890  0.1201 -0.1383
18061THY    CP147591   1.578   5.554   6.199  0.1937 -0.4971  0.8534
18061THY    HP147592   1.678   5.563   6.244 -0.5267  1.2901  0.4321
18061THY    CP247593   1.545   5.692   6.147  0.5568  0.2348  0.3796
18061THY    HP247594   1.445   5.681   6.103  0.1061  1.3160  0.0413
18061THY    HP347595   1.620   5.722   6.073  2.8227  1.0175 -2.8161
18061THY    HP447596   1.541   5.763   6.230 -0.7764  0.6351 -0.1257
18061THY    CP347597   1.605   5.454   6.091 -0.1143  0.5543  0.0954
18061THY    HP547598   1.587   5.349   6.115  0.6546 -0.8017 -0.3844
18061THY    HP647599   1.709   5.464   6.056  0.1744  1.0869 -0.8495
18061THY    HP747600   1.542   5.481   6.005  1.2027 -0.2221  0.8130
18061THY    CA347601   1.349   5.462   6.258 -0.2756 -0.0866  0.2634
18061THY    HA347602   1.315   5.456   6.155 -4.2537  1.1426 -1.7784
18061THY    CA447603   1.244   5.439   6.347  0.6632  0.4689  0.2825
18061THY    HA447604   1.148   5.418   6.301 -0.0187  1.2802  1.4923
18061THY    CA547605   1.263   5.449   6.485  0.9626  0.2177  0.2011
18061THY    CM147606   1.150   5.419   6.578 -0.2772 -0.3116  0.3627
18061THY    HM147607   1.153   5.310   6.587  0.3775 -1.2337  0.2989
18061THY    HM247608   1.049   5.437   6.538 -0.2116 -0.5012  0.2989
18061THY    HM347609   1.149   5.479   6.671  0.7955 -0.9862  1.4726
18061THY    CA647610   1.391   5.493   6.532  0.3290 -0.8414 -0.1606
18061THY    HA647611   1.419   5.506   6.636  0.8564 -1.1328  1.2407
18062THY      O47612   5.325   6.015   6.735  0.2612 -0.3361 -0.4627
18062THY     HO47613   5.326   6.110   6.714  0.6719 -0.2146 -0.4401
18062THY    CA147614   5.194   5.981   6.735 -0.3348  0.1056 -0.7141
18062THY    CA247615   5.132   5.948   6.854 -0.5597 -1.1206 -0.3704
18062THY    CP147616   5.210   5.960   6.987 -0.5738 -0.1922 -0.6581
18062THY    HP147617   5.318   5.951   6.971 -0.0966  1.3992  1.2980
18062THY    CP247618   5.183   5.859   7.092  0.0843 -0.1534  0.0969
18062THY    HP247619   5.080   5.870   7.125  0.0394  0.7014 -2.2805
18062THY    HP347620   5.242   5.882   7.181 -0.2728  0.2257 -0.4367
18062THY    HP447621   5.208   5.756   7.063  0.8142  1.9168 -0.3549
18062THY    CP347622   5.175   6.097   7.044  0.6659 -0.0354  0.9350
18062THY    HP547623   5.241   6.124   7.127 -0.4975  0.3725  2.7360
18062THY    HP647624   5.069   6.083   7.069 -0.1296 -3.3151  0.1834
18062THY    HP747625   5.181   6.178   6.969  0.8420  1.4672  2.3707
18062THY    CA347626   4.999   5.925   6.862  1.2576  0.7081 -0.0542
18062THY    HA347627   4.955   5.910   6.961  2.4749  1.4489  1.0647
18062THY    CA447628   4.921   5.919   6.744 -0.1212 -0.4241  0.5320
18062THY    HA447629   4.815   5.899   6.752 -0.2329  1.0457  1.5376
18062THY    CA547630   4.980   5.949   6.619 -0.8611 -0.2037  0.1250
18062THY    CM147631   4.903   5.950   6.487  0.4058  0.2421  0.3542
18062THY    HM147632   4.960   5.966   6.395 -1.0036 -0.7326  0.0038
18062THY    HM247633   4.820   6.021   6.497  1.2574 -0.7200  1.5260
18062THY    HM347634   4.855   5.853   6.470 -0.4945 -0.9490  0.9752
18062THY    CA647635   5.120   5.976   6.618  0.7867  0.7503 -0.2697
18062THY    HA647636   5.157   5.995   6.518 -0.0366  0.6771  1.0161
18063THY      O47637   6.348   5.914   4.846 -0.9199 -0.3437 -0.0310
18063THY     HO47638   6.417   5.871   4.793  0.7483  0.1666  1.8663
18063THY    CA147639   6.371   6.047   4.831 -0.4661 -0.3364  0.4948
18063THY    CA247640   6.284   6.148   4.869  0.2170 -0.3156 -0.5778
18063THY    CP147641   6.155   6.101   4.928  0.1234 -0.1769 -0.7295
18063THY    HP147642   6.132   6.000   4.892  1.0278 -0.8584 -0.7129
18063THY    CP247643   6.037   6.190   4.886  0.6112 -0.4809  0.0944
18063THY    HP247644   6.031   6.284   4.941  0.2400 -0.1480 -0.1217
18063THY    HP347645   5.943   6.137   4.903  0.4227  1.4667  0.9615
18063THY    HP447646   6.041   6.208   4.778  1.5827 -0.4972 -0.1409
18063THY    CP347647   6.171   6.095   5.084  0.1976  0.0091  1.0235
18063THY    HP547648   6.236   6.008   5.098 -3.1705 -3.1725 -2.4342
18063THY    HP647649   6.084   6.066   5.145  0.3995 -0.1928 -0.0603
18063THY    HP747650   6.213   6.190   5.117  0.3603 -0.7707  1.2341
18063THY    CA347651   6.319   6.282   4.854  0.1904 -0.4982 -0.3256
18063THY    HA347652   6.255   6.362   4.891  0.6021 -0.6181  0.0649
18063THY    CA447653   6.447   6.319   4.818  0.4690  0.6678 -0.0575
18063THY    HA447654   6.488   6.419   4.808  1.9478  2.0394 -0.4755
18063THY    CA547655   6.531   6.220   4.770 -0.2162 -0.5437  0.3580
18063THY    CM147656   6.671   6.266   4.733 -0.0002  0.2786  0.3359
18063THY    HM147657   6.699   6.355   4.790  0.8654 -1.1311  0.9872
18063THY    HM247658   6.687   6.300   4.630 -0.9077 -0.1328 -0.4235
18063THY    HM347659   6.741   6.183   4.743 -1.5576 -1.9269 -1.3653
18063THY    CA647660   6.497   6.084   4.784  0.3722 -0.2161 -0.2681
18063THY    HA647661   6.575   6.011   4.764 -0.3810 -0.0708 -1.1294
18064THY      O47662   4.169   6.129   7.874  0.0147 -0.2501 -0.3436
18064THY     HO47663   4.080   6.155   7.846 -0.3504  1.2033  0.0760
18064THY    CA147664   4.246   6.101   7.769 -0.0480  0.1589  0.4614
18064THY    CA247665   4.357   6.012   7.770 -0.1699 -0.1305 -0.2253
18064THY    CP147666   4.383   5.940   7.910  1.1197  0.9663 -0.7067
18064THY    HP147667   4.320   5.990   7.985 -0.9327 -2.0023  1.4708
18064THY    CP247668   4.534   5.957   7.944  0.4252  0.0475 -0.3876
18064THY    HP247669   4.555   5.909   8.040 -3.7891  1.5071  0.2022
18064THY    HP347670   4.556   6.064   7.950  0.1387 -1.7537 -0.2010
18064THY    HP447671   4.584   5.915   7.856  0.9328  0.2788 -0.2713
18064THY    CP347672   4.341   5.795   7.908  0.3806  0.5147  0.5127
18064THY    HP547673   4.426   5.742   7.865 -0.0078  0.8325 -0.3918
18064THY    HP647674   4.243   5.783   7.861 -0.6622  2.6695  0.0336
18064THY    HP747675   4.329   5.749   8.007  0.8951 -0.6123 -2.1654
18064THY    CA347676   4.429   5.993   7.653  0.3204 -0.2461  0.2651
18064THY    HA347677   4.509   5.919   7.647  0.9097 -0.0257  0.8712
18064THY    CA447678   4.382   6.048   7.534 -0.1836 -0.7354 -0.4283
18064THY    HA447679   4.423   6.026   7.436 -0.5865 -1.0733  0.2939
18064THY    CA547680   4.277   6.134   7.530  0.0164 -0.3070  0.3613
18064THY    CM147681   4.225   6.186   7.399  0.3600  0.2521  0.2859
18064THY    HM147682   4.275   6.141   7.312  3.2833  1.4429  1.0003
18064THY    HM247683   4.242   6.294   7.387  1.7984  0.2728  0.0757
18064THY    HM347684   4.117   6.168   7.397  0.4387 -1.4757 -0.1423
18064THY    CA647685   4.210   6.163   7.652 -0.9727  0.1438 -1.0132
18064THY    HA647686   4.131   6.237   7.646  0.1550 -0.1149  0.2159
18065THY      O47687   4.706   1.220   4.766  0.3067  0.2475 -0.7050
18065THY     HO47688   4.671   1.158   4.832 -3.1335 -0.2745  0.4757
18065THY    CA147689   4.763   1.140   4.684  0.2266 -0.1087  0.0365
18065THY    CA247690   4.860   1.177   4.595 -0.9173 -0.7037  0.2068
18065THY    CP147691   4.933   1.307   4.594  0.2454  0.5829 -0.5405
18065THY    HP147692   4.893   1.366   4.677  0.2024 -1.3082  2.3309
18065THY    CP247693   4.913   1.374   4.462  0.3453 -0.2227  1.0105
18065THY    HP247694   4.970   1.467   4.471  1.7530 -0.5660  0.2219
18065THY    HP347695   4.808   1.380   4.433  0.6645 -1.8283 -0.2923
18065THY    HP447696   4.964   1.328   4.376 -0.8327  0.1771 -1.1625
18065THY    CP347697   5.078   1.301   4.635 -0.6057  0.1174  0.0729
18065THY    HP547698   5.098   1.233   4.719  0.7000  1.4718  2.0361
18065THY    HP647699   5.114   1.397   4.673  0.1966  2.4940 -1.0888
18065THY    HP747700   5.141   1.276   4.549  0.3111  1.5530 -3.1734
18065THY    CA347701   4.911   1.079   4.502 -0.1232  0.0660  0.2182
18065THY    HA347702   4.982   1.106   4.425  0.8373  1.2513  1.1775
18065THY    CA447703   4.866   0.947   4.512  0.2503 -0.3573 -0.2226
18065THY    HA447704   4.911   0.870   4.450  1.6138 -3.1840  2.5936
18065THY    CA547705   4.777   0.911   4.604  0.4512  0.3154  0.4222
18065THY    CM147706   4.718   0.772   4.613 -0.1387  0.3526 -0.0882
18065THY    HM147707   4.610   0.777   4.593 -0.2500  0.7843 -0.6228
18065THY    HM247708   4.738   0.726   4.711 -2.0283 -0.0822 -2.0375
18065THY    HM347709   4.754   0.711   4.530 -0.0847  1.5176 -1.7030
18065THY    CA647710   4.722   1.007   4.688 -0.3726  0.1800 -0.1481
18065THY    HA647711   4.629   0.992   4.742 -1.0227 -0.0140  2.5175
18066THY      O47712   4.481   2.059   4.830  0.2556  0.1679 -0.1413
18066THY     HO47713   4.452   1.975   4.870  0.0746  0.2602 -0.0329
18066THY    CA147714   4.593   2.096   4.896  0.4281 -0.4437  0.8711
18066THY    CA247715   4.665   2.202   4.851 -0.1092  0.1207 -0.1433
18066THY    CP147716   4.651   2.264   4.715  0.1715  0.4824 -0.1854
18066THY    HP147717   4.570   2.201   4.676 -1.0096  2.0170  0.3234
18066THY    CP247718   4.780   2.246   4.634 -0.2414 -0.0789  0.0416
18066THY    HP247719   4.769   2.281   4.531  0.5476 -0.3942 -0.6093
18066THY    HP347720   4.807   2.140   4.630  1.4508 -1.1120  0.4683
18066THY    HP447721   4.866   2.299   4.676 -0.9933  0.5904  0.7629
18066THY    CP347722   4.609   2.411   4.712 -0.1510 -0.5493  0.2378
18066THY    HP547723   4.508   2.429   4.751  0.9823  2.2331  1.1978
18066THY    HP647724   4.622   2.446   4.609 -0.3425  0.2136  2.8111
18066THY    HP747725   4.684   2.470   4.766 -0.3403 -0.4350  0.3782
18066THY    CA347726   4.784   2.237   4.928 -0.5121  0.1897  0.5717
18066THY    HA347727   4.867   2.300   4.897  0.1027  0.2752 -0.1746
18066THY    CA447728   4.809   2.169   5.048  1.1208  0.8634  0.3422
18066THY    HA447729   4.895   2.204   5.105  2.4645 -1.9273  1.9281
18066THY    CA547730   4.721   2.083   5.108  0.1616  0.6546 -0.8437
18066THY    CM147731   4.755   2.021   5.247 -0.0556  0.6312  0.0364
18066THY    HM147732   4.691   2.074   5.319 -0.7838 -0.7611  1.1444
18066THY    HM247733   4.860   2.029   5.276  0.2900 -0.3718 -0.6215
18066THY    HM347734   4.726   1.916   5.255 -1.7613  4.5515  0.6104
18066THY    CA647735   4.612   2.045   5.027  0.6522 -0.0873 -0.1751
18066THY    HA647736   4.549   1.967   5.068  0.2371  0.9556  0.6810
18067THY      O47737   1.185   1.246   6.623 -0.2427 -0.3612  0.1392
18067THY     HO47738   1.203   1.325   6.569 -0.8241 -0.5200  0.1749
18067THY    CA147739   1.226   1.275   6.749  0.7921  0.4394  0.1228
18067THY    CA247740   1.292   1.194   6.840  0.4399  0.7356  0.2505
18067THY    CP147741   1.318   1.051   6.784 -0.4565 -0.3055  0.0394
18067THY    HP147742   1.321   1.051   6.675 -1.6305 -0.3516  0.8210
18067THY    CP247743   1.204   0.959   6.841 -1.3289  0.3055  0.2960
18067THY    HP247744   1.200   0.978   6.949  0.1505  0.5144 -0.4101
18067THY    HP347745   1.232   0.853   6.829 -0.1789  0.5440  0.5516
18067THY    HP447746   1.116   0.992   6.784 -0.8543 -0.0977  0.8931
18067THY    CP347747   1.452   0.987   6.837 -0.1091  0.6668 -0.2416
18067THY    HP547748   1.539   1.048   6.809 -0.1769 -1.1527 -0.9106
18067THY    HP647749   1.469   0.886   6.798 -1.1018  0.1794 -0.2325
18067THY    HP747750   1.452   0.986   6.946 -1.1658  0.6747 -0.6180
18067THY    CA347751   1.337   1.244   6.964 -0.3937  0.1735 -0.0472
18067THY    HA347752   1.394   1.187   7.037 -0.0078 -1.6283 -2.0915
18067THY    CA447753   1.303   1.376   7.005  0.3131 -0.3402 -0.0025
18067THY    HA447754   1.334   1.412   7.102 -1.4017  0.2696 -0.0933
18067THY    CA547755   1.233   1.457   6.911  0.0242 -0.3986  0.3798
18067THY    CM147756   1.197   1.595   6.954  0.0830  0.8111 -0.1462
18067THY    HM147757   1.186   1.603   7.063  1.8160  1.0334 -0.4032
18067THY    HM247758   1.117   1.638   6.893  1.4220 -0.3841  0.7280
18067THY    HM347759   1.283   1.656   6.925  0.3883  0.7367 -0.6104
18067THY    CA647760   1.192   1.405   6.786 -0.6391  0.5349 -0.1055
18067THY    HA647761   1.139   1.467   6.714 -0.7371 -0.0602 -0.8686
18068THY      O47762   8.705   4.103   2.273 -0.0640 -1.0256  0.0571
18068THY     HO47763   8.736   4.028   2.326 -1.3315 -0.9904 -0.4671
18068THY    CA147764   8.613   4.169   2.341  0.2350 -0.2766 -0.2950
18068THY    CA247765   8.600   4.308   2.327  0.2757 -0.7594 -0.1653
18068THY    CP147766   8.662   4.398   2.211 -0.0949 -0.3531  0.0793
18068THY    HP147767   8.726   4.336   2.147  0.7082  1.4187 -0.9940
18068THY    CP247768   8.765   4.498   2.273  0.5156  0.3779 -0.7325
18068THY    HP247769   8.716   4.589   2.310  1.2115 -0.8627  0.1700
18068THY    HP347770   8.829   4.535   2.193 -2.4755 -2.0282 -0.3716
18068THY    HP447771   8.818   4.438   2.348 -0.3721  1.2795 -0.4377
18068THY    CP347772   8.551   4.473   2.134 -0.0675  0.0805  0.2597
18068THY    HP547773   8.471   4.403   2.105  0.3613 -1.3046  0.3248
18068THY    HP647774   8.602   4.516   2.047 -0.3951 -0.8964 -1.2211
18068THY    HP747775   8.497   4.547   2.194 -1.4375 -0.5938 -0.1541
18068THY    CA347776   8.521   4.370   2.428  0.4982 -0.6416 -0.3673
18068THY    HA347777   8.506   4.476   2.443  0.7622  0.5627 -0.4903
18068THY    CA447778   8.445   4.288   2.523  0.3818  1.1997 -0.8983
18068THY    HA447779   8.373   4.348   2.578  0.6072 -0.0794  0.6268
18068THY    CA547780   8.450   4.151   2.518  0.7035 -0.2344 -0.0862
18068THY    CM147781   8.373   4.061   2.607 -0.2358 -0.4331  0.0855
18068THY    HM147782   8.360   3.971   2.546  0.6009 -2.0991  1.0440
18068THY    HM247783   8.279   4.104   2.642  0.5350  1.5859  0.2457
18068THY    HM347784   8.422   4.042   2.703 -1.1290 -0.0826 -0.4898
18068THY    CA647785   8.543   4.094   2.436  0.1255  0.3281 -0.5854
18068THY    HA647786   8.553   3.986   2.441 -1.2686  1.6132 -0.6786
18069THY      O47787   6.060   3.787   2.958  0.8831 -0.5125 -0.0384
18069THY     HO47788   6.006   3.810   3.036  2.8537  0.8189  0.4339
18069THY    CA147789   6.118   3.674   3.003 -1.5601 -0.1318 -0.7299
18069THY    CA247790   6.193   3.597   2.915 -0.0068 -0.3686 -0.8034
18069THY    CP147791   6.212   3.634   2.768  0.3539 -0.1958  0.3042
18069THY    HP147792   6.163   3.725   2.732 -0.4019 -0.2993 -0.1357
18069THY    CP247793   6.173   3.510   2.677  0.2218 -0.6308  0.4688
18069THY    HP247794   6.244   3.427   2.674 -1.6134 -0.3266 -1.1822
18069THY    HP347795   6.133   3.531   2.577  0.5928 -0.5556  1.5751
18069THY    HP447796   6.093   3.457   2.730  1.4806 -0.0061 -0.8734
18069THY    CP347797   6.355   3.668   2.742 -0.0505  0.3707 -0.2566
18069THY    HP547798   6.372   3.700   2.638  3.5309  0.8474 -0.1133
18069THY    HP647799   6.407   3.572   2.750 -1.4535 -0.8394 -1.1612
18069THY    HP747800   6.398   3.748   2.803 -0.9065  1.5469 -0.6794
18069THY    CA347801   6.261   3.482   2.963 -0.7246 -0.8180  0.1833
18069THY    HA347802   6.322   3.421   2.898  0.1925 -0.5446  0.7789
18069THY    CA447803   6.254   3.457   3.102 -0.3521 -0.1662 -0.1280
18069THY    HA447804   6.310   3.377   3.149 -0.8899  1.0025  0.1659
18069THY    CA547805   6.177   3.540   3.192 -0.0194  0.6077 -0.0142
18069THY    CM147806   6.177   3.508   3.336  0.1237 -0.3284 -0.3708
18069THY    HM147807   6.119   3.581   3.394 -1.7734 -0.1281 -1.9570
18069THY    HM247808   6.277   3.491   3.376  0.2248 -0.3547  0.1447
18069THY    HM347809   6.117   3.417   3.340 -0.0602  0.0423 -0.2363
18069THY    CA647810   6.113   3.651   3.143 -0.6138 -0.1802  0.0547
18069THY    HA647811   6.061   3.720   3.209  0.3575 -0.7183  1.3419
18070THY      O47812   0.779   4.102   3.120 -0.1061 -0.0620  0.5210
18070THY     HO47813   0.843   4.132   3.185 -0.0675 -0.2555  0.8593
18070THY    CA147814   0.655   4.072   3.166  0.3832 -0.0009 -0.7951
18070THY    CA247815   0.544   4.053   3.077  0.5154  0.1537  0.2597
18070THY    CP147816   0.565   4.073   2.926 -0.3558  0.3445  0.1730
18070THY    HP147817   0.644   4.146   2.903  1.7329  0.5161 -1.9086
18070THY    CP247818   0.433   4.125   2.864  0.1799 -0.2128 -0.4942
18070THY    HP247819   0.452   4.157   2.761  1.8601  0.3558  0.4675
18070THY    HP347820   0.387   4.212   2.913 -1.0646  0.2962 -1.4076
18070THY    HP447821   0.354   4.049   2.858 -0.1655 -0.5471 -0.1090
18070THY    CP347822   0.615   3.940   2.862  0.0929 -0.0089  0.5312
18070THY    HP547823   0.657   3.957   2.761  2.2269  1.0794  2.3280
18070THY    HP647824   0.541   3.860   2.857 -1.1253 -3.3456  1.6994
18070THY    HP747825   0.699   3.901   2.922 -0.4742 -0.6337 -1.8009
18070THY    CA347826   0.422   4.011   3.136 -0.6505 -0.0438  0.0323
18070THY    HA347827   0.341   3.985   3.068 -0.4119 -1.0862  1.8462
18070THY    CA447828   0.411   3.995   3.276  0.4533 -0.2619 -0.0230
18070THY    HA447829   0.317   3.962   3.319  0.3474 -0.9723 -0.6757
18070THY    CA547830   0.518   4.022   3.356 -0.7629 -0.2254 -0.0682
18070THY    CM147831   0.512   4.013   3.514 -0.3083  0.1258 -0.4179
18070THY    HM147832   0.508   4.117   3.548 -1.6962  0.9494 -0.7058
18070THY    HM247833   0.596   3.957   3.558 -0.9688  1.4679 -0.4067
18070THY    HM347834   0.420   3.964   3.547 -1.4561 -0.7210  1.0839
18070THY    CA647835   0.640   4.060   3.301  0.2861 -0.0132  0.5584
18070THY    HA647836   0.729   4.077   3.362 -0.1377  0.7589  0.0534
18071THY      O47837   9.088   2.284   6.477 -0.3771  0.5259 -0.0075
18071THY     HO47838   9.067   2.192   6.454 -3.9197 -2.2159  1.2133
18071THY    CA147839   9.022   2.367   6.392  0.8245 -0.3871  0.2037
18071THY    CA247840   8.994   2.501   6.439  0.3086 -0.1327  0.0499
18071THY    CP147841   9.044   2.543   6.574 -0.0425 -0.1113  0.2755
18071THY    HP147842   9.143   2.504   6.597 -0.5629  1.1253 -0.3781
18071THY    CP247843   8.936   2.488   6.673 -0.2258 -0.7622  0.4257
18071THY    HP247844   8.910   2.383   6.655 -0.7764 -0.0761  0.4392
18071THY    HP347845   8.841   2.542   6.670 -1.3923 -2.3054 -1.5763
18071THY    HP447846   8.983   2.486   6.773 -0.7769 -0.5025 -0.7884
18071THY    CP347847   9.035   2.689   6.601  0.0861 -0.0504 -0.2701
18071THY    HP547848   9.088   2.702   6.696 -1.4219  0.8948 -0.6599
18071THY    HP647849   8.933   2.729   6.613  1.0539 -2.0947  3.1607
18071THY    HP747850   9.079   2.733   6.511 -1.4670 -1.2710 -1.1113
18071THY    CA347851   8.908   2.581   6.363 -0.3419 -0.2154 -1.0597
18071THY    HA347852   8.870   2.677   6.397 -0.5512 -2.5011 -0.2647
18071THY    CA447853   8.877   2.535   6.231  0.1093 -0.5063  0.0493
18071THY    HA447854   8.829   2.605   6.163  2.8651 -2.3503  0.3310
18071THY    CA547855   8.912   2.410   6.184  0.1168 -0.5597 -0.7596
18071THY    CM147856   8.861   2.366   6.054  0.7888  0.2093  0.3980
18071THY    HM147857   8.943   2.339   5.987  0.0456 -1.0747  1.2344
18071THY    HM247858   8.801   2.442   6.004 -0.3291  2.6831  1.2454
18071THY    HM347859   8.799   2.277   6.064  3.1953 -0.8415 -1.5267
18071THY    CA647860   8.973   2.317   6.272 -0.0911  0.4716  0.3850
18071THY    HA647861   8.987   2.218   6.230  1.5428 -0.3156  0.9150
18072THY      O47862   6.889   2.732   3.927 -0.1063  0.3082 -0.0800
18072THY     HO47863   6.946   2.739   3.849  1.9773  1.7644 -0.0357
18072THY    CA147864   6.918   2.838   4.010 -0.6467  0.0489 -0.3185
18072THY    CA247865   6.833   2.867   4.116  0.1760  0.7947  0.7093
18072THY    CP147866   6.717   2.777   4.157  0.1096  0.1676 -0.6335
18072THY    HP147867   6.721   2.686   4.096  0.3783  1.2775 -1.3813
18072THY    CP247868   6.588   2.846   4.115  0.6553 -0.0676  0.3530
18072THY    HP247869   6.610   2.917   4.035  1.9076 -0.7774 -0.7691
18072THY    HP347870   6.543   2.899   4.200 -0.7304  0.6885 -1.8527
18072THY    HP447871   6.524   2.764   4.079 -0.7380 -0.0435  1.4027
18072THY    CP347872   6.708   2.733   4.310 -0.8098  0.7578  0.2344
18072THY    HP547873   6.806   2.690   4.332 -0.2573 -0.6503  0.6935
18072THY    HP647874   6.627   2.659   4.317 -1.1446 -1.5445  0.2947
18072THY    HP747875   6.690   2.823   4.371 -0.3286 -0.8990  1.5196
18072THY    CA347876   6.867   2.978   4.199  0.6222 -0.0987  0.5560
18072THY    HA347877   6.795   3.006   4.276 -0.9908 -0.8133 -1.3509
18072THY    CA447878   6.982   3.053   4.172 -0.9286  0.3435  0.0966
18072THY    HA447879   7.018   3.137   4.230  2.9495 -1.1946 -0.3231
18072THY    CA547880   7.062   3.018   4.060 -0.3159 -0.2689  0.2072
18072THY    CM147881   7.186   3.091   4.025  0.8736 -0.5771  0.0609
18072THY    HM147882   7.195   3.092   3.916 -1.2845 -0.7797  0.6617
18072THY    HM247883   7.273   3.042   4.071  0.1218 -1.4494 -2.2273
18072THY    HM347884   7.176   3.193   4.063  1.1457  1.8704 -0.7512
18072THY    CA647885   7.033   2.910   3.977  0.5169 -0.2308 -1.1539
18072THY    HA647886   7.103   2.882   3.900  0.5011 -0.4038 -0.7288
18073THY      O47887   5.977   1.816   6.733 -0.2004  0.7609 -0.0658
18073THY     HO47888   6.049   1.854   6.679 -0.1627  1.5582  1.0648
18073THY    CA147889   5.860   1.867   6.694  0.6764  0.1110 -0.0700
18073THY    CA247890   5.742   1.859   6.778 -0.3586  0.5521  0.1923
18073THY    CP147891   5.747   1.813   6.927  0.3644  1.3524 -0.4179
18073THY    HP147892   5.853   1.785   6.934  1.0678 -1.9888  0.9717
18073THY    CP247893   5.657   1.685   6.948 -0.1463  0.2367 -0.4219
18073THY    HP247894   5.663   1.653   7.053 -2.2452  0.8538  1.0086
18073THY    HP347895   5.682   1.602   6.881 -2.1152 -1.4734  0.2629
18073THY    HP447896   5.556   1.715   6.917  0.0618 -0.9829 -0.9286
18073THY    CP347897   5.718   1.921   7.029 -1.1631  0.4855  0.4953
18073THY    HP547898   5.757   1.886   7.125  0.3471 -0.5735 -0.9086
18073THY    HP647899   5.611   1.920   7.049 -1.0550  1.0880  0.9197
18073THY    HP747900   5.743   2.021   6.992 -2.9860  2.4596  1.7515
18073THY    CA347901   5.623   1.921   6.728  0.0797  0.8508  0.9477
18073THY    HA347902   5.533   1.932   6.787 -0.4150  0.1709  0.6524
18073THY    CA447903   5.613   1.940   6.588  0.0133 -0.1300  0.3513
18073THY    HA447904   5.520   1.974   6.543  0.8503 -0.7748  1.9055
18073THY    CA547905   5.726   1.931   6.509  0.2951 -1.1526 -0.2290
18073THY    CM147906   5.735   1.959   6.359  0.3156  0.7573 -0.6759
18073THY    HM147907   5.636   1.986   6.320  0.2651  1.6698  0.5297
18073THY    HM247908   5.765   1.866   6.309 -1.1054  0.6763 -1.1138
18073THY    HM347909   5.795   2.046   6.332  0.9296  1.8275 -0.7434
18073THY    CA647910   5.847   1.904   6.565  0.7451 -0.6493  0.3807
18073THY    HA647911   5.930   1.913   6.495  1.3997  0.3897  3.3837
18074THY      O47912   3.735   1.779   7.604  0.1135 -0.0921 -0.1753
18074THY     HO47913   3.746   1.692   7.563 -2.5827 -0.3476 -0.4843
18074THY    CA147914   3.700   1.759   7.732 -0.1697  0.3598  0.5186
18074THY    CA247915   3.731   1.856   7.829 -0.4795  0.1004 -0.9332
18074THY    CP147916   3.805   1.990   7.786 -0.1703  0.0381  0.7344
18074THY    HP147917   3.801   2.004   7.678 -0.4446  0.1559  1.5731
18074THY    CP247918   3.953   1.977   7.831 -0.4834  0.2201  0.3370
18074THY    HP247919   3.996   1.894   7.773 -0.7396 -1.1019  1.0982
18074THY    HP347920   3.967   1.955   7.937  2.8840 -0.3419 -0.7632
18074THY    HP447921   4.009   2.066   7.802  0.1189 -0.0456 -0.1203
18074THY    CP347922   3.738   2.112   7.856  0.1463  0.1620 -0.0196
18074THY    HP547923   3.744   2.117   7.965 -0.2617  0.1549  0.6758
18074THY    HP647924   3.630   2.112   7.839  0.2444 -1.0819 -2.5182
18074THY    HP747925   3.784   2.202   7.814 -1.1481  1.4371  1.2739
18074THY    CA347926   3.686   1.840   7.959 -0.2446  0.4169  0.0927
18074THY    HA347927   3.709   1.915   8.034 -1.2176 -0.3767  1.2344
18074THY    CA447928   3.610   1.725   7.987  0.2523 -0.4631 -0.2175
18074THY    HA447929   3.575   1.711   8.089 -0.3953 -0.6701 -0.1337
18074THY    CA547930   3.571   1.634   7.890 -0.2833 -0.5492 -0.6434
18074THY    CM147931   3.482   1.512   7.918 -0.1978  0.3613  0.6568
18074THY    HM147932   3.399   1.521   7.847  0.0432  0.3025  3.1656
18074THY    HM247933   3.438   1.513   8.018  1.1720  0.9950 -0.1928
18074THY    HM347934   3.535   1.416   7.914 -0.7888 -0.5084  0.3567
18074THY    CA647935   3.625   1.649   7.767 -0.3951 -1.1294  0.0860
18074THY    HA647936   3.602   1.572   7.694 -1.8669  1.1502 -1.7624
18075THY      O47937   3.662   6.937   4.621 -0.1917 -0.0260  0.4473
18075THY     HO47938   3.688   6.935   4.714  1.1748 -0.3546  1.2508
18075THY    CA147939   3.688   7.063   4.581  0.0539  0.0824  0.4186
18075THY    CA247940   3.669   7.098   4.441  0.3612 -0.4009  0.0391
18075THY    CP147941   3.627   6.995   4.336  0.0219  0.4544  0.5587
18075THY    HP147942   3.619   6.896   4.383  0.4543  0.4417  0.5192
18075THY    CP247943   3.735   6.985   4.224  0.0052  0.4124 -0.7508
18075THY    HP247944   3.837   6.970   4.260  0.4398 -1.2986 -2.2557
18075THY    HP347945   3.740   7.073   4.159 -0.6303  1.0321 -0.2452
18075THY    HP447946   3.718   6.901   4.155  2.3915  1.9909 -2.6877
18075THY    CP347947   3.494   7.025   4.258  0.0661  0.5511  0.4848
18075THY    HP547948   3.401   7.028   4.316 -0.2751  0.0107  2.7681
18075THY    HP647949   3.474   6.951   4.180 -0.1086  1.2882 -0.2485
18075THY    HP747950   3.506   7.121   4.206 -2.1522  1.8326  1.5565
18075THY    CA347951   3.686   7.236   4.412 -0.0742  0.3235 -0.2007
18075THY    HA347952   3.672   7.280   4.313 -0.0682  0.4432  0.0704
18075THY    CA447953   3.724   7.322   4.514  0.5534 -0.4939 -0.2573
18075THY    HA447954   3.726   7.428   4.492 -0.0694 -1.5941 -0.4567
18075THY    CA547955   3.758   7.278   4.645 -0.1339  0.4980 -0.1938
18075THY    CM147956   3.809   7.374   4.743 -0.3465  0.1830 -0.0107
18075THY    HM147957   3.879   7.451   4.710  0.2675 -0.1129 -0.6817
18075THY    HM247958   3.841   7.330   4.838 -1.3236  0.8923  0.7612
18075THY    HM347959   3.725   7.437   4.772  0.3496  2.1062  0.0826
18075THY    CA647960   3.734   7.153   4.679  0.5256 -0.0796 -0.1980
18075THY    HA647961   3.763   7.119   4.778  1.6556 -0.5878 -0.7746
18076THY      O47962   8.875   1.492   3.002  0.0636  0.0262  0.1522
18076THY     HO47963   8.885   1.396   2.995 -1.5595  0.0546 -0.0452
18076THY    CA147964   8.899   1.516   3.132  0.1966  0.1437 -0.0663
18076THY    CA247965   8.862   1.636   3.192 -0.2391 -0.0301 -0.3461
18076THY    CP147966   8.780   1.745   3.120 -0.3174  0.2223 -0.0650
18076THY    HP147967   8.809   1.724   3.016  1.1742  0.1788  1.8961
18076THY    CP247968   8.821   1.892   3.144 -0.3482  0.6570  0.1606
18076THY    HP247969   8.805   1.916   3.250 -2.9227  0.0301  1.6418
18076THY    HP347970   8.752   1.954   3.086  1.4433 -0.6350  1.0257
18076THY    HP447971   8.918   1.918   3.099  0.0371  0.7091 -1.1160
18076THY    CP347972   8.629   1.734   3.136  0.2451  0.3683 -0.7571
18076THY    HP547973   8.606   1.727   3.243 -0.8265  0.5583  3.2235
18076THY    HP647974   8.594   1.643   3.086 -3.7978  1.8059 -0.2191
18076THY    HP747975   8.574   1.820   3.095  1.9547 -0.5806 -0.0692
18076THY    CA347976   8.892   1.655   3.333 -0.0997 -0.1350  0.3903
18076THY    HA347977   8.848   1.744   3.379  2.8005 -2.7207  3.4274
18076THY    CA447978   8.972   1.556   3.400 -0.6837  0.0961  0.2231
18076THY    HA447979   8.996   1.566   3.506 -1.2207  0.3059 -0.5223
18076THY    CA547980   9.005   1.441   3.339  0.0515  0.0447  0.0912
18076THY    CM147981   9.060   1.318   3.407 -0.8432 -0.6397 -0.5620
18076THY    HM147982   8.988   1.236   3.397 -1.0943 -1.3187 -0.2681
18076THY    HM247983   9.075   1.319   3.516  0.8401 -0.7313  3.7248
18076THY    HM347984   9.161   1.306   3.366  0.9921  2.5996  2.0795
18076THY    CA647985   8.969   1.418   3.204  0.1849 -1.1926  0.0302
18076THY    HA647986   9.006   1.328   3.157 -0.4660 -1.1057 -0.2824
18077THY      O47987   5.458   5.146   7.151  0.1598 -0.5714 -0.6183
18077THY     HO47988   5.472   5.175   7.243 -2.9605 -0.2034  0.0510
18077THY    CA147989   5.566   5.084   7.093  0.5358 -0.2365  0.7708
18077THY    CA247990   5.574   5.062   6.953  0.0991  0.6322  0.1388
18077THY    CP147991   5.459   5.092   6.857 -0.4791  0.5584 -0.3534
18077THY    HP147992   5.376   5.142   6.908 -1.5566 -2.2454  0.9272
18077THY    CP247993   5.403   4.970   6.787 -0.0774  0.6752 -0.4077
18077THY    HP247994   5.360   4.897   6.857 -1.3390  1.5914  1.1405
18077THY    HP347995   5.485   4.924   6.730  1.7347  0.6119  2.6470
18077THY    HP447996   5.323   4.994   6.716 -0.1250  0.8149 -0.1455
18077THY    CP347997   5.502   5.199   6.747 -0.1408  0.3887 -0.1920
18077THY    HP547998   5.583   5.157   6.687 -0.3270 -0.7410  0.9979
18077THY    HP647999   5.539   5.288   6.799  1.4397 -0.6852 -0.1912
18077THY    HP748000   5.426   5.231   6.675 -0.3268  1.1291  1.1113
18077THY    CA348001   5.691   4.995   6.911  0.9677  1.5835 -0.3020
18077THY    HA348002   5.700   4.974   6.805  0.3541  1.5834 -0.6076
18077THY    CA448003   5.790   4.947   6.998 -0.0207  0.3792 -0.0545
18077THY    HA448004   5.881   4.897   6.966 -0.9295  2.0568 -3.0604
18077THY    CA548005   5.771   4.975   7.132  0.0659  0.8201  0.5306
18077THY    CM148006   5.880   4.939   7.229 -0.4910  0.2472  0.3138
18077THY    HM148007   5.858   4.844   7.279 -2.8592 -0.5509  0.3706
18077THY    HM248008   5.894   5.021   7.301 -1.2494 -1.1525  1.7245
18077THY    HM348009   5.970   4.924   7.170 -0.6465  0.1446 -0.2423
18077THY    CA648010   5.653   5.034   7.182 -0.4253 -0.3821 -0.1909
18077THY    HA648011   5.638   5.042   7.290 -1.2748 -0.3357 -1.9729
18078THY      O48012   8.857   5.218   4.901 -0.2327 -0.7755 -0.9063
18078THY     HO48013   8.835   5.245   4.991  0.8250 -0.8333  0.1940
18078THY    CA148014   8.741   5.175   4.849  0.1177 -0.1787 -0.5030
18078THY    CA248015   8.719   5.154   4.713  0.6031 -0.4800  0.0700
18078THY    CP148016   8.829   5.169   4.608 -0.4967  0.7586 -0.2684
18078THY    HP148017   8.912   5.219   4.658  0.2121  0.3032 -0.9648
18078THY    CP248018   8.782   5.261   4.489  0.5511  0.1557 -0.3673
18078THY    HP248019   8.864   5.293   4.425  0.3653  0.8444  1.6104
18078THY    HP348020   8.727   5.348   4.526 -1.0662  0.9002 -1.6400
18078THY    HP448021   8.708   5.217   4.421  1.4133 -2.6117  2.1280
18078THY    CP348022   8.874   5.038   4.553 -0.3154  0.1166 -0.8696
18078THY    HP548023   8.955   5.066   4.484 -1.3642 -0.5148  0.7660
18078THY    HP648024   8.792   4.989   4.499 -1.9092  1.0557  0.6471
18078THY    HP748025   8.911   4.969   4.630  0.7891 -0.9665 -1.5388
18078THY    CA348026   8.590   5.102   4.674  0.0365 -0.4436  0.7066
18078THY    HA348027   8.572   5.079   4.569  2.0213 -1.2608  2.4696
18078THY    CA448028   8.494   5.081   4.777  0.3399  0.0359  0.1326
18078THY    HA448029   8.396   5.043   4.750 -0.0763  1.2482  0.2976
18078THY    CA548030   8.520   5.100   4.910 -0.3655 -0.4994 -0.1517
18078THY    CM148031   8.436   5.053   5.021 -0.3605  0.1160 -0.5726
18078THY    HM148032   8.386   5.136   5.073  2.9466  2.6871  0.0347
18078THY    HM248033   8.499   4.999   5.093  1.7684 -3.3474 -3.0741
18078THY    HM348034   8.356   4.988   4.982 -2.8633 -0.1656  2.4177
18078THY    CA648035   8.647   5.147   4.945  0.7659 -0.2981  0.2022
18078THY    HA648036   8.679   5.140   5.049  0.1254 -0.1631 -0.9116
18079THY      O48037   8.353   3.349   4.755 -0.7452  0.3249  0.2702
18079THY     HO48038   8.388   3.364   4.844 -0.6060  0.1309  1.1872
18079THY    CA148039   8.276   3.461   4.728  0.1851  0.1075 -0.9020
18079THY    CA248040   8.257   3.516   4.598 -0.1671 -0.1970 -0.3076
18079THY    CP148041   8.316   3.447   4.481 -0.1409  0.9715 -0.2426
18079THY    HP148042   8.383   3.378   4.533  2.0385  1.0795  1.8171
18079THY    CP248043   8.395   3.530   4.387  0.2065  0.1180 -0.4558
18079THY    HP248044   8.341   3.609   4.332  1.7947  0.5592  1.0073
18079THY    HP348045   8.444   3.464   4.314  0.1140  0.2884 -0.7115
18079THY    HP448046   8.467   3.592   4.442 -0.3708 -0.1336  0.4614
18079THY    CP348047   8.221   3.357   4.394 -0.6643 -0.5251 -0.3181
18079THY    HP548048   8.263   3.304   4.308 -1.4114 -1.6141  0.8088
18079THY    HP648049   8.137   3.418   4.357  1.1169 -1.5730  1.6445
18079THY    HP748050   8.189   3.283   4.468  0.1482  0.2645  0.1031
18079THY    CA348051   8.192   3.643   4.581 -0.7577 -0.8935 -0.4719
18079THY    HA348052   8.173   3.693   4.487  0.9144 -0.5347  0.9510
18079THY    CA448053   8.147   3.706   4.701  0.4291 -0.0009  0.1600
18079THY    HA448054   8.101   3.804   4.696  0.5856 -1.3066  0.1857
18079THY    CA548055   8.172   3.649   4.827 -0.0486 -0.3841  0.5106
18079THY    CM148056   8.125   3.721   4.941  0.8131  0.0959 -0.0690
18079THY    HM148057   8.212   3.737   5.006  1.8717 -1.5109  1.0759
18079THY    HM248058   8.047   3.671   5.000  0.7870 -0.7631 -1.0717
18079THY    HM348059   8.086   3.821   4.919 -2.8158  1.8040 -0.9402
18079THY    CA648060   8.234   3.530   4.842  0.3970  0.1951  0.3193
18079THY    HA648061   8.257   3.493   4.941  1.6665 -0.0062  0.5207
18080THY      O48062   4.069   1.149   3.461  0.7885  0.1890 -0.2898
18080THY     HO48063   4.129   1.191   3.524  0.0076 -0.0071  1.1844
18080THY    CA148064   4.066   1.223   3.350  0.3950 -0.1021  0.1088
18080THY    CA248065   3.976   1.196   3.245  0.0876 -0.1727  0.2243
18080THY    CP148066   3.883   1.083   3.257  0.0176  0.4543 -0.5344
18080THY    HP148067   3.872   1.043   3.359 -0.5371  1.5670  2.2557
18080THY    CP248068   3.942   0.968   3.172 -0.1955 -0.5501  0.0095
18080THY    HP248069   3.878   0.879   3.179 -0.9534  0.5935  0.6278
18080THY    HP348070   4.036   0.935   3.218  0.1265 -1.6752 -0.6791
18080THY    HP448071   3.953   0.999   3.067  1.6402 -0.6372 -0.7887
18080THY    CP348072   3.745   1.128   3.207 -0.0258 -0.4371  0.0274
18080THY    HP548073   3.746   1.146   3.099  1.8732 -0.1961  1.7511
18080THY    HP648074   3.712   1.217   3.262  1.7107 -1.6672  1.5180
18080THY    HP748075   3.669   1.049   3.214  1.2442 -0.0426 -1.1918
18080THY    CA348076   3.988   1.277   3.132 -0.4822 -0.5895  0.8258
18080THY    HA348077   3.924   1.258   3.047 -0.4266 -0.2904 -0.8872
18080THY    CA448078   4.063   1.397   3.130  0.2006  0.5489 -0.6123
18080THY    HA448079   4.056   1.474   3.054  0.3461 -0.2492 -1.3683
18080THY    CA548080   4.145   1.425   3.241  0.6307 -0.2639  0.2867
18080THY    CM148081   4.207   1.556   3.256  0.6149  0.2061 -0.3012
18080THY    HM148082   4.201   1.586   3.362  1.3573  0.7508 -1.9463
18080THY    HM248083   4.143   1.626   3.201  0.4391 -0.4187 -0.9520
18080THY    HM348084   4.309   1.557   3.215  0.0094 -1.3601  1.1590
18080THY    CA648085   4.140   1.338   3.351  0.0353  0.2327  0.7134
18080THY    HA648086   4.184   1.368   3.445  0.1770 -0.0826  1.5190
18081THY      O48087   8.140   5.903   7.326 -0.1658 -0.3511  0.3882
18081THY     HO48088   8.073   5.925   7.393  0.3548 -1.0616  5.0191
18081THY    CA148089   8.075   5.921   7.207  1.0829 -0.5837 -0.5001
18081THY    CA248090   8.026   5.810   7.136  0.5251  1.1528 -0.2276
18081THY    CP148091   8.074   5.669   7.161  0.7684  0.4006 -0.5863
18081THY    HP148092   8.123   5.667   7.259  1.5652  0.0760  1.1484
18081THY    CP248093   8.193   5.641   7.073  0.7523  0.0180 -0.0789
18081THY    HP248094   8.161   5.663   6.970 -2.3076  0.2893 -2.6042
18081THY    HP348095   8.225   5.537   7.088  0.4026 -0.2233 -0.2224
18081THY    HP448096   8.284   5.693   7.106  1.8612 -1.1003 -1.2308
18081THY    CP348097   7.956   5.569   7.153  0.2860 -0.2466 -0.0367
18081THY    HP548098   7.864   5.605   7.201  1.0335 -0.6957  2.7816
18081THY    HP648099   7.982   5.479   7.209 -0.8727 -0.3193 -0.4301
18081THY    HP748100   7.944   5.547   7.047  1.8171 -0.0110 -2.2640
18081THY    CA348101   7.948   5.837   7.020  0.2525  0.8299  0.1371
18081THY    HA348102   7.909   5.755   6.960 -3.3601 -2.0648  3.6013
18081THY    CA448103   7.912   5.967   6.986 -0.7809  0.4307 -0.5535
18081THY    HA448104   7.846   5.983   6.901  0.7325 -0.6879 -0.0071
18081THY    CA548105   7.950   6.074   7.059 -0.0780 -0.0213  0.9298
18081THY    CM148106   7.905   6.202   7.018  0.1037 -0.2856 -0.3176
18081THY    HM148107   7.982   6.256   6.961 -0.1853  1.2596  1.8667
18081THY    HM248108   7.861   6.252   7.105  0.4644  0.3447 -1.0728
18081THY    HM348109   7.822   6.189   6.947  1.3135 -1.3900 -2.3693
18081THY    CA648110   8.030   6.054   7.174 -0.4907 -0.2135  0.5048
18081THY    HA648111   8.059   6.136   7.240  0.4502 -0.7518  0.6219
18082THY      O48112   7.574   5.001   3.951 -0.1413 -0.0719  0.1100
18082THY     HO48113   7.503   5.027   3.890  0.5218 -0.5747  0.7882
18082THY    CA148114   7.525   4.887   3.999  0.4664  0.1452  0.7440
18082THY    CA248115   7.605   4.805   4.077 -0.0184  0.8033 -0.4237
18082THY    CP148116   7.747   4.848   4.120 -0.2465 -0.0193  0.3671
18082THY    HP148117   7.775   4.944   4.075 -0.1355  0.0019  0.3448
18082THY    CP248118   7.859   4.746   4.065 -0.0314  0.2771 -0.0222
18082THY    HP248119   7.843   4.645   4.102 -2.3262 -0.0093  0.1900
18082THY    HP348120   7.957   4.781   4.099 -0.1359  0.6768 -0.1206
18082THY    HP448121   7.853   4.755   3.956 -2.3601  0.3768  0.2681
18082THY    CP348122   7.761   4.865   4.270 -0.4432  0.9052 -0.3862
18082THY    HP548123   7.862   4.847   4.308  0.7868 -1.8797  0.1875
18082THY    HP648124   7.684   4.808   4.324 -2.3875 -0.7665  0.5186
18082THY    HP748125   7.735   4.971   4.283  0.8122 -1.0710  0.2062
18082THY    CA348126   7.554   4.683   4.129  0.2511  0.5620  0.0821
18082THY    HA348127   7.615   4.624   4.197  0.0842  2.0296  1.5081
18082THY    CA448128   7.426   4.643   4.081 -0.4860 -0.1941  0.5956
18082THY    HA448129   7.395   4.543   4.109  1.1999 -0.2426  0.0315
18082THY    CA548130   7.349   4.727   4.003 -0.3682  0.1593 -0.3340
18082THY    CM148131   7.221   4.694   3.951 -0.5595  0.0084 -0.0994
18082THY    HM148132   7.144   4.690   4.029  0.3635  0.9456 -0.0010
18082THY    HM248133   7.240   4.605   3.889  1.0397 -1.1342  0.9683
18082THY    HM348134   7.169   4.764   3.885 -0.1477 -1.9853 -1.5470
18082THY    CA648135   7.391   4.852   3.964 -0.4083  0.0047 -0.2719
18082THY    HA648136   7.326   4.914   3.902 -2.5802 -0.1214 -2.5297
18083THY      O48137   4.216   4.209   5.396  0.4570 -0.0918  0.4782
18083THY     HO48138   4.185   4.293   5.434  1.1609  2.6216 -0.3824
18083THY    CA148139   4.348   4.210   5.426 -0.1030 -0.1617  0.2077
18083THY    CA248140   4.443   4.145   5.341  0.2893  0.4750 -0.1211
18083THY    CP148141   4.396   4.068   5.212 -0.2212 -0.0978 -0.3314
18083THY    HP148142   4.290   4.088   5.197 -0.5183  1.7529 -0.3492
18083THY    CP248143   4.415   3.917   5.234  0.4411 -0.4957  0.6050
18083THY    HP248144   4.521   3.894   5.248  0.7793  0.4109  2.5355
18083THY    HP348145   4.383   3.860   5.146 -2.3484  0.8927 -0.1418
18083THY    HP448146   4.353   3.880   5.316 -1.9074 -1.2195  2.6274
18083THY    CP348147   4.483   4.117   5.088 -0.1501  0.1576 -0.3778
18083THY    HP548148   4.577   4.062   5.086  0.0406  0.9254 -0.0860
18083THY    HP648149   4.506   4.223   5.099 -2.4543  0.4069  0.1483
18083THY    HP748150   4.426   4.092   4.997  0.3896 -0.1337 -0.5513
18083THY    CA348151   4.582   4.163   5.373 -0.3925  0.9055  0.1384
18083THY    HA348152   4.666   4.128   5.313  0.5406  1.3635  1.5127
18083THY    CA448153   4.617   4.239   5.482 -0.0298 -0.7020 -0.0992
18083THY    HA448154   4.719   4.228   5.516 -0.0252 -0.7871 -0.3321
18083THY    CA548155   4.521   4.294   5.566 -0.6260  0.4590  0.7790
18083THY    CM148156   4.569   4.394   5.671 -0.0517  0.3438  0.2000
18083THY    HM148157   4.501   4.473   5.703  0.5014 -0.1600  0.9008
18083THY    HM248158   4.653   4.455   5.635  0.0675  3.0997  1.8189
18083THY    HM348159   4.600   4.338   5.760 -1.2017  0.4454 -0.3028
18083THY    CA648160   4.388   4.275   5.541  0.0932 -0.5371  0.1316
18083THY    HA648161   4.323   4.323   5.613  0.7182  0.0687  0.0874
18084THY      O48162   8.715   4.035   3.438  1.1571 -0.5543  0.6236
18084THY     HO48163   8.795   4.081   3.470  0.1453  2.0552  0.7816
18084THY    CA148164   8.696   4.057   3.306 -0.1041 -0.3749 -0.6775
18084THY    CA248165   8.598   3.993   3.224  0.0252  0.3227 -0.7019
18084THY    CP148166   8.504   3.910   3.285  0.5860 -0.3294  0.2559
18084THY    HP148167   8.504   3.939   3.391  1.9850  0.0956 -1.0832
18084THY    CP248168   8.555   3.763   3.292 -0.2128  0.2110 -0.0486
18084THY    HP248169   8.652   3.759   3.342 -0.4878  0.7602  0.0049
18084THY    HP348170   8.562   3.719   3.192  0.0975  0.6690 -1.0693
18084THY    HP448171   8.476   3.703   3.339 -3.0564 -2.5885  1.2025
18084THY    CP348172   8.350   3.929   3.242 -0.1138 -0.1394 -0.3756
18084THY    HP548173   8.289   3.871   3.313  2.8352  2.4813 -0.5268
18084THY    HP648174   8.337   3.892   3.140 -0.3331  0.1466 -1.0920
18084THY    HP748175   8.321   4.035   3.253 -0.6166 -2.0134 -0.2880
18084THY    CA348176   8.587   4.035   3.090  0.4503 -0.2605  0.3277
18084THY    HA348177   8.512   3.991   3.025  0.4564  1.3933 -2.3426
18084THY    CA448178   8.683   4.123   3.030  0.6626 -0.1075 -0.3945
18084THY    HA448179   8.673   4.155   2.926 -0.6920 -0.0710 -0.6228
18084THY    CA548180   8.779   4.183   3.116 -0.1119  0.7166 -0.2304
18084THY    CM148181   8.891   4.262   3.051  0.7706 -0.5111  0.4058
18084THY    HM148182   8.945   4.312   3.133 -2.1394 -0.0235  3.0656
18084THY    HM248183   8.853   4.350   2.998  0.8266 -1.4816 -0.1469
18084THY    HM348184   8.952   4.194   2.990 -0.9608  1.7785 -3.5244
18084THY    CA648185   8.783   4.149   3.254 -0.3891 -0.4510  0.8393
18084THY    HA648186   8.864   4.193   3.312  0.8913 -1.4060 -0.1554
18085THY      O48187   4.707   0.996   6.109  0.1797  0.6272 -0.4120
18085THY     HO48188   4.766   0.921   6.125  2.2029 -1.9536  0.4659
18085THY    CA148189   4.631   0.966   5.999 -0.1113  0.0209  0.1810
18085THY    CA248190   4.607   1.059   5.892 -0.2832  0.0344  0.3238
18085THY    CP148191   4.684   1.191   5.881  1.0953  0.3512 -0.2795
18085THY    HP148192   4.765   1.197   5.954  0.1705  1.2713  2.2008
18085THY    CP248193   4.590   1.317   5.911  0.5954  0.5216 -0.1763
18085THY    HP248194   4.527   1.356   5.830  1.8458 -0.2489  0.3124
18085THY    HP348195   4.664   1.398   5.914  2.1629 -1.5870 -1.3941
18085THY    HP448196   4.532   1.312   6.004  0.3060  0.3684  0.3304
18085THY    CP348197   4.733   1.210   5.748 -0.3742  0.3025  0.2393
18085THY    HP548198   4.660   1.237   5.671 -0.3689  0.4678  0.7419
18085THY    HP648199   4.807   1.135   5.721  0.8690  1.7620  0.8712
18085THY    HP748200   4.810   1.286   5.766  0.4472  1.3530 -0.7953
18085THY    CA348201   4.504   1.032   5.799  0.6836 -0.2618  0.7359
18085THY    HA348202   4.497   1.096   5.713  3.6796 -0.0807  1.4665
18085THY    CA448203   4.437   0.913   5.808  0.1097  0.2952  0.2281
18085THY    HA448204   4.378   0.875   5.725  0.0411  0.3835  0.1433
18085THY    CA548205   4.484   0.815   5.896 -0.1493  0.9066  0.3515
18085THY    CM148206   4.411   0.677   5.894 -0.0089  0.4326 -0.2484
18085THY    HM148207   4.330   0.681   5.820  1.2108 -0.9185  2.4777
18085THY    HM248208   4.373   0.665   5.996  1.1646  1.0133  0.7825
18085THY    HM348209   4.480   0.595   5.871 -0.4545 -1.2924 -0.1798
18085THY    CA648210   4.570   0.846   5.998 -0.3108  0.3159  0.3906
18085THY    HA648211   4.587   0.777   6.081  1.5655  2.4107  3.1436
18086THY      O48212   4.975   1.931   4.978  0.4044 -0.2220 -0.1612
18086THY     HO48213   4.931   2.016   4.963 -1.2447 -0.1381 -0.9570
18086THY    CA148214   4.922   1.832   4.903 -0.5100  0.3807 -0.1643
18086THY    CA248215   4.957   1.693   4.922  0.1930 -0.2023 -0.1866
18086THY    CP148216   5.047   1.649   5.029 -0.2957  0.9203  0.0620
18086THY    HP148217   5.114   1.729   5.063  1.3979 -1.2364 -0.3375
18086THY    CP248218   5.140   1.534   4.986  0.0329  0.4947 -0.2214
18086THY    HP248219   5.192   1.553   4.892 -1.3002 -0.3496 -0.6122
18086THY    HP348220   5.082   1.441   4.976  1.6885 -2.1978 -1.0775
18086THY    HP448221   5.220   1.511   5.057  1.6456 -1.3168 -0.4149
18086THY    CP348222   4.975   1.601   5.153  0.2736 -0.0492  0.6409
18086THY    HP548223   4.912   1.514   5.131  1.6828  2.3499 -1.0974
18086THY    HP648224   4.913   1.680   5.198 -0.7050  0.4054 -0.3666
18086THY    HP748225   5.043   1.578   5.235 -1.9927  1.9801  0.7892
18086THY    CA348226   4.889   1.599   4.847  0.8840 -0.2933 -0.2771
18086THY    HA348227   4.905   1.492   4.861 -0.9095 -1.8913 -0.7994
18086THY    CA448228   4.802   1.628   4.743  0.0096 -0.1210 -0.8186
18086THY    HA448229   4.754   1.547   4.689 -1.0713  0.8851 -0.8765
18086THY    CA548230   4.756   1.762   4.734  0.5529  0.3488  0.1961
18086THY    CM148231   4.638   1.795   4.645 -0.4426 -0.2211 -0.4351
18086THY    HM148232   4.558   1.817   4.717 -2.1444 -0.5759 -4.6005
18086THY    HM248233   4.600   1.713   4.583  1.5726 -1.3265 -0.6047
18086THY    HM348234   4.656   1.884   4.584 -5.0334 -0.8198  0.3046
18086THY    CA648235   4.824   1.865   4.810  0.1337 -0.3077 -0.2807
18086THY    HA648236   4.795   1.967   4.788 -0.4057 -0.7103 -0.5184
18087THY      O48237   0.547   5.511   5.072 -0.0553 -0.4648 -0.0041
18087THY     HO48238   0.554   5.598   5.029 -0.7225 -0.7155 -0.0662
18087THY    CA148239   0.666   5.499   5.132  0.8190  0.4220 -0.0284
18087THY    CA248240   0.705   5.378   5.197  0.5032  0.9949 -0.3735
18087THY    CP148241   0.603   5.263   5.210  0.5282  0.8131 -0.1353
18087THY    HP148242   0.513   5.266   5.148 -0.4271  2.0581 -1.8590
18087THY    CP248243   0.551   5.253   5.354  0.1546 -0.1530 -0.2610
18087THY    HP248244   0.640   5.241   5.417 -0.3859  0.5690 -0.5336
18087THY    HP348245   0.485   5.167   5.371  0.5346 -0.3029 -0.5837
18087THY    HP448246   0.505   5.343   5.396  2.4214  0.1035  0.8456
18087THY    CP348247   0.671   5.134   5.167  0.5422  0.0081 -0.4665
18087THY    HP548248   0.610   5.047   5.196  0.9054  0.1249 -0.6880
18087THY    HP648249   0.773   5.122   5.206  0.2889  1.0488  0.5991
18087THY    HP748250   0.671   5.136   5.058 -1.9236 -0.0251  0.5261
18087THY    CA348251   0.824   5.373   5.261  0.6013 -0.7880 -0.1530
18087THY    HA348252   0.842   5.300   5.339  1.0982  2.2102  2.9280
18087THY    CA448253   0.918   5.476   5.251  0.0309  0.0115 -0.7271
18087THY    HA448254   1.014   5.473   5.301  0.3936 -0.5143  0.9116
18087THY    CA548255   0.886   5.596   5.181  0.6128 -0.2133  1.0124
18087THY    CM148256   0.978   5.713   5.164  0.4785 -0.4816  0.0859
18087THY    HM148257   1.006   5.741   5.267 -0.1586  0.9664 -3.8603
18087THY    HM248258   0.935   5.802   5.118  1.0730  0.2967  0.8028
18087THY    HM348259   1.069   5.688   5.108 -0.0719 -0.8298 -1.2535
18087THY    CA648260   0.758   5.604   5.120  0.6042  0.9138 -0.5745
18087THY    HA648261   0.738   5.694   5.062 -1.3255 -0.1446 -1.6312
18088THY      O48262   4.989   4.378   2.481 -0.2937 -0.2221 -0.2673
18088THY     HO48263   5.016   4.446   2.417 -0.5520 -1.5696 -1.3812
18088THY    CA148264   5.029   4.259   2.431 -0.8185 -0.8915  0.0608
18088THY    CA248265   5.074   4.161   2.524 -0.2832  0.2265 -0.1407
18088THY    CP148266   5.086   4.191   2.667  0.0341 -0.4685  0.4533
18088THY    HP148267   5.018   4.272   2.697  0.5100 -0.7183  0.9599
18088THY    CP248268   5.232   4.252   2.692  0.7145  0.3398  1.1543
18088THY    HP248269   5.243   4.273   2.799 -2.7690  1.8702 -3.2411
18088THY    HP348270   5.252   4.335   2.624  0.3509 -0.5809  0.5027
18088THY    HP448271   5.304   4.173   2.669  0.5321  0.5975  0.9110
18088THY    CP348272   5.051   4.072   2.760 -0.1871  0.0424  0.0943
18088THY    HP548273   5.079   4.110   2.858 -1.4706  0.0040  1.2443
18088THY    HP648274   5.114   3.983   2.751 -1.8275  0.0930 -1.1276
18088THY    HP748275   4.947   4.036   2.755 -0.1747 -1.6411  0.1936
18088THY    CA348276   5.118   4.040   2.473 -0.7715 -0.2909  0.1324
18088THY    HA348277   5.158   3.956   2.529 -1.0130 -1.9881 -1.1768
18088THY    CA448278   5.123   4.025   2.325  0.1263  0.0675 -0.6773
18088THY    HA448279   5.167   3.936   2.280 -1.2837 -0.7130 -1.0030
18088THY    CA548280   5.075   4.129   2.247  0.1753 -0.1451  0.7036
18088THY    CM148281   5.083   4.122   2.096 -0.8324 -0.4756 -0.5247
18088THY    HM148282   4.993   4.063   2.070 -0.4437  0.0528 -1.3713
18088THY    HM248283   5.167   4.052   2.085  0.2921  2.5614  0.1982
18088THY    HM348284   5.097   4.217   2.043 -1.5158  2.2019  1.1607
18088THY    CA648285   5.024   4.244   2.303 -0.0373  0.3964 -0.3911
18088THY    HA648286   5.001   4.322   2.231  1.2312 -1.2663 -1.4651
18089THY      O48287   1.846   9.119   6.379  0.2457 -0.2179  0.1070
18089THY     HO48288   1.789   9.065   6.437 -1.3862  0.1156  2.0442
18089THY    CA148289   1.764   9.220   6.336  0.4421 -0.5989 -0.2790
18089THY    CA248290   1.751   9.253   6.202  0.2418  0.5045  0.2321
18089THY    CP148291   1.824   9.177   6.092  0.1249  0.6875  0.2184
18089THY    HP148292   1.915   9.136   6.138  1.1599 -2.0747 -0.7995
18089THY    CP248293   1.884   9.262   5.981  0.0437 -0.4807 -0.2806
18089THY    HP248294   1.935   9.355   6.009 -0.7763 -1.0922  0.3683
18089THY    HP348295   1.796   9.314   5.941 -1.2426  4.4796  1.9355
18089THY    HP448296   1.944   9.202   5.912 -1.2280 -0.3369 -1.7717
18089THY    CP348297   1.741   9.065   6.028 -0.4430 -0.3314 -0.6267
18089THY    HP548298   1.708   9.012   6.118  2.5722  1.1438 -0.1703
18089THY    HP648299   1.798   8.998   5.963  0.4749  0.6139 -0.7793
18089THY    HP748300   1.656   9.100   5.968  1.4353 -2.5414  0.4036
18089THY    CA348301   1.653   9.340   6.162  0.9975  0.2378  0.0242
18089THY    HA348302   1.634   9.356   6.056  0.9559 -0.1532 -2.2926
18089THY    CA448303   1.575   9.406   6.256  0.3024 -0.2517  0.1737
18089THY    HA448304   1.499   9.477   6.224 -0.9781 -0.1689 -1.1156
18089THY    CA548305   1.580   9.378   6.388  0.6723 -0.4924  0.2334
18089THY    CM148306   1.488   9.454   6.487  0.1199 -0.5760 -0.3214
18089THY    HM148307   1.417   9.512   6.427  1.0506 -2.1596 -0.7467
18089THY    HM248308   1.542   9.525   6.550  1.1984 -2.9928  1.1416
18089THY    HM348309   1.442   9.384   6.557  0.5554  0.5119  0.4535
18089THY    CA648310   1.676   9.282   6.430  0.0540 -0.1382  0.0900
18089THY    HA648311   1.678   9.263   6.537  0.2870  0.4359  3.0262
18090THY      O48312   4.455   8.064   2.536 -0.2520 -0.1661 -0.2532
18090THY     HO48313   4.449   7.972   2.568  4.5826 -1.3412 -1.2569
18090THY    CA148314   4.530   8.116   2.632 -0.0285 -0.1164  0.2814
18090THY    CA248315   4.524   8.248   2.675  0.3880  0.2951  0.3893
18090THY    CP148316   4.410   8.334   2.611  0.0556 -0.6341 -0.3853
18090THY    HP148317   4.395   8.296   2.510 -0.7196  0.1818 -2.3909
18090THY    CP248318   4.445   8.473   2.583 -0.3551 -0.0776 -0.7353
18090THY    HP248319   4.362   8.526   2.536 -0.8976 -0.0503 -1.5479
18090THY    HP348320   4.541   8.472   2.529  0.7771  1.8749 -1.5679
18090THY    HP448321   4.463   8.513   2.683 -0.3809  0.1018 -1.1751
18090THY    CP348322   4.292   8.311   2.697 -0.0257 -0.1479 -0.5681
18090THY    HP548323   4.221   8.395   2.696 -2.3382  1.5260 -2.3488
18090THY    HP648324   4.325   8.303   2.801  0.1614 -0.3064 -2.1895
18090THY    HP748325   4.231   8.223   2.672 -1.7520 -0.9773  0.8018
18090THY    CA348326   4.621   8.289   2.766  0.3526  0.4035 -0.0224
18090THY    HA348327   4.607   8.394   2.792 -1.6408  0.8855 -0.3682
18090THY    CA448328   4.715   8.203   2.818 -0.0334  0.3650 -0.8725
18090THY    HA448329   4.794   8.222   2.891 -0.0584  0.6935 -1.9725
18090THY    CA548330   4.716   8.072   2.775  0.2689  0.6913 -0.4178
18090THY    CM148331   4.811   7.974   2.824  0.4062 -0.3200  0.1048
18090THY    HM148332   4.856   8.001   2.920 -1.6437  0.8185 -0.3276
18090THY    HM248333   4.903   7.966   2.765 -0.1908 -0.9732 -3.0188
18090THY    HM348334   4.765   7.875   2.834 -0.4293  1.5256  0.6335
18090THY    CA648335   4.626   8.032   2.680 -0.5574 -0.0612 -0.2308
18090THY    HA648336   4.650   7.932   2.646 -1.8177  1.0749 -0.9435
18091THY      O48337   9.100   9.270   3.812  0.2658 -0.1779  0.3376
18091THY     HO48338   9.101   9.295   3.718  1.0469  0.7601  4.5099
18091THY    CA148339   8.998   9.174   3.821 -0.5218  0.3837  0.4731
18091THY    CA248340   8.961   9.119   3.944  0.7351  1.2912  0.7206
18091THY    CP148341   9.019   9.147   4.084 -0.6103 -0.2484 -0.1446
18091THY    HP148342   9.037   9.255   4.090  1.8631 -1.1764 -0.4385
18091THY    CP248343   9.162   9.082   4.113 -0.8429 -0.4702  0.2532
18091THY    HP248344   9.142   8.976   4.130 -0.7646 -0.4947  0.2342
18091THY    HP348345   9.203   9.118   4.208  0.1584 -0.0389 -1.9173
18091THY    HP448346   9.232   9.087   4.028  1.3891  1.1547 -1.4544
18091THY    CP348347   8.932   9.115   4.200 -0.6908  0.1901 -0.7449
18091THY    HP548348   8.978   9.163   4.286  0.8677  0.0742 -1.9497
18091THY    HP648349   8.931   9.008   4.223  0.0324 -1.7587 -1.2184
18091THY    HP748350   8.831   9.153   4.181 -0.0281  0.1085  1.0444
18091THY    CA348351   8.858   9.023   3.937 -0.0443  0.5143  0.2941
18091THY    HA348352   8.828   8.965   4.024  1.7887  1.8480  1.2179
18091THY    CA448353   8.811   8.975   3.815  0.0344 -0.4088 -0.9100
18091THY    HA448354   8.738   8.895   3.814  1.0778  0.0759 -1.8877
18091THY    CA548355   8.851   9.031   3.696  0.4345  0.3263  0.2174
18091THY    CM148356   8.790   8.990   3.566 -0.1423  0.2042  0.3518
18091THY    HM148357   8.847   8.923   3.501  0.7447 -1.8044  2.8590
18091THY    HM248358   8.804   9.083   3.509 -1.4923  0.4921  0.7547
18091THY    HM348359   8.680   8.988   3.562 -0.1320 -2.5725  1.0478
18091THY    CA648360   8.945   9.136   3.698 -0.0561  0.3101  0.3915
18091THY    HA648361   8.988   9.167   3.603 -1.8672 -0.6911  0.0271
18092THY      O48362   3.111   5.126   3.715 -0.7442  0.3210 -0.0351
18092THY     HO48363   3.022   5.126   3.753 -1.1259 -0.5128  1.0934
18092THY    CA148364   3.149   4.998   3.692 -0.4527 -0.2387 -0.6967
18092THY    CA248365   3.281   4.960   3.680 -0.5018 -0.0997  0.5615
18092THY    CP148366   3.389   5.065   3.679 -0.4684  0.0184  0.2116
18092THY    HP148367   3.351   5.168   3.678 -0.9464 -0.3099  0.0374
18092THY    CP248368   3.483   5.049   3.554 -0.3440 -0.1877 -0.0281
18092THY    HP248369   3.561   5.124   3.571  0.0827  0.4615 -0.6015
18092THY    HP348370   3.422   5.085   3.471  0.8977 -0.4416  1.5584
18092THY    HP448371   3.531   4.952   3.534  1.0688 -1.9659  1.0010
18092THY    CP348372   3.469   5.049   3.808  0.0603  0.0483 -0.0104
18092THY    HP548373   3.517   4.951   3.822 -0.9551  0.0506 -0.5152
18092THY    HP648374   3.407   5.073   3.895 -0.1883  0.3898 -1.7730
18092THY    HP748375   3.545   5.127   3.819  1.0991  4.2308 -1.3765
18092THY    CA348376   3.308   4.822   3.674 -0.1247  0.0453  0.5064
18092THY    HA348377   3.410   4.784   3.680  0.5972  1.0040  2.4264
18092THY    CA448378   3.193   4.737   3.666  0.2564  0.8157  0.7862
18092THY    HA448379   3.201   4.628   3.660 -1.9697 -2.6634  0.6691
18092THY    CA548380   3.066   4.779   3.673  0.0363 -0.4860 -0.0410
18092THY    CM148381   2.946   4.681   3.674  0.4357  0.4326 -0.1108
18092THY    HM148382   2.849   4.726   3.696  0.3303  0.2516 -0.2477
18092THY    HM248383   2.961   4.599   3.745  1.4961 -0.7633 -0.9995
18092THY    HM348384   2.939   4.642   3.572  0.1156 -0.3633  1.9177
18092THY    CA648385   3.044   4.913   3.690 -0.2786  0.0748  0.1559
18092THY    HA648386   2.941   4.946   3.692 -0.2252 -0.9207  0.4031
18093THY      O48387   7.306   6.911   2.665 -0.3327 -0.8626 -0.1552
18093THY     HO48388   7.268   6.934   2.579 -3.3058 -0.7974 -3.8236
18093THY    CA148389   7.211   6.916   2.765  0.3036  0.1884  0.6581
18093THY    CA248390   7.247   6.904   2.900  0.1994  0.4714 -0.1149
18093THY    CP148391   7.393   6.868   2.933  0.2032 -0.4288  0.0270
18093THY    HP148392   7.437   6.801   2.859  0.6254 -0.1946  0.0440
18093THY    CP248393   7.418   6.803   3.078 -0.6934  0.3108 -0.3533
18093THY    HP248394   7.404   6.883   3.152  0.0538  0.5931 -0.4803
18093THY    HP348395   7.522   6.770   3.089  0.5596 -1.8074  2.4919
18093THY    HP448396   7.348   6.725   3.110  1.3560  4.3614 -0.8133
18093THY    CP348397   7.475   7.004   2.935  0.0695 -0.2854  0.1683
18093THY    HP548398   7.464   7.072   2.850 -1.3787  0.8669  1.4634
18093THY    HP648399   7.581   6.986   2.957 -0.3627  1.2571 -0.6267
18093THY    HP748400   7.434   7.062   3.019  1.5051  2.6471 -2.7570
18093THY    CA348401   7.154   6.929   3.003  0.2841  0.6854 -0.3368
18093THY    HA348402   7.179   6.933   3.108 -0.2551  0.7853  0.6124
18093THY    CA448403   7.023   6.961   2.964  0.0478 -0.0980 -1.0691
18093THY    HA448404   6.954   6.982   3.045 -0.6343 -1.3600  2.2234
18093THY    CA548405   6.978   6.961   2.830  0.2982  0.1637  0.1167
18093THY    CM148406   6.838   7.007   2.804 -0.3021 -0.0215  0.3333
18093THY    HM148407   6.792   7.068   2.883 -0.4288  0.6257 -0.5778
18093THY    HM248408   6.763   6.928   2.787  0.4080 -0.8462 -0.1776
18093THY    HM348409   6.847   7.075   2.718 -2.5061  1.6637  2.9499
18093THY    CA648410   7.076   6.940   2.735 -0.6235 -0.0610 -0.5487
18093THY    HA648411   7.046   6.957   2.633 -1.0402  0.2458  0.6508
18094THY      O48412   8.271   4.484   4.897  0.6506  0.1472 -0.4091
18094THY     HO48413   8.235   4.573   4.913 -0.5984 -0.9736 -0.6706
18094THY    CA148414   8.406   4.494   4.904 -0.0557  0.0146 -0.3297
18094THY    CA248415   8.494   4.378   4.894 -0.8506  0.0851 -0.6712
18094THY    CP148416   8.428   4.246   4.864 -0.2580 -0.8322  0.0201
18094THY    HP148417   8.319   4.256   4.866 -0.1999  1.9901  1.3435
18094THY    CP248418   8.455   4.150   4.984 -0.7617  0.2566 -0.2940
18094THY    HP248419   8.560   4.132   5.007 -0.0394 -0.3211  2.7218
18094THY    HP348420   8.412   4.050   4.966 -0.0281  3.1207 -1.2317
18094THY    HP448421   8.408   4.186   5.076  0.6241  0.5874  0.7167
18094THY    CP348422   8.490   4.172   4.736  0.2236  0.0413  0.3274
18094THY    HP548423   8.476   4.235   4.647 -3.0047  0.4682  0.4038
18094THY    HP648424   8.446   4.073   4.722  1.1017 -0.0502 -0.0574
18094THY    HP748425   8.595   4.146   4.751 -0.6432  2.9623 -1.9375
18094THY    CA348426   8.633   4.398   4.906  0.1716  0.5811 -0.4332
18094THY    HA348427   8.693   4.308   4.897  0.9703 -2.0081  0.2799
18094THY    CA448428   8.679   4.527   4.932  0.2386  0.1949  0.0692
18094THY    HA448429   8.784   4.530   4.959  0.0333  1.0778 -0.1409
18094THY    CA548430   8.595   4.638   4.944  0.4235  0.0955 -0.2354
18094THY    CM148431   8.654   4.760   4.991 -1.6101 -0.4287  0.3833
18094THY    HM148432   8.677   4.830   4.910  0.8442  0.2625  0.4895
18094THY    HM248433   8.748   4.739   5.044 -2.6234  0.8137 -1.2461
18094THY    HM348434   8.592   4.811   5.065 -2.0724  0.2385 -1.0930
18094THY    CA648435   8.460   4.617   4.935  1.0380  0.0842  0.1613
18094THY    HA648436   8.388   4.698   4.939 -0.5803  2.0730 -1.2536
18095THY      O48437   6.457   5.931   2.252 -0.3937  0.0229  0.3580
18095THY     HO48438   6.393   5.880   2.305 -1.3411 -1.2708  0.1495
18095THY    CA148439   6.570   5.864   2.252 -0.7271  1.1344 -1.1308
18095THY    CA248440   6.698   5.923   2.270 -0.2534 -0.4926  0.7417
18095THY    CP148441   6.713   6.074   2.284  0.0612 -0.2608 -0.6205
18095THY    HP148442   6.632   6.117   2.224  0.8289 -0.8662  0.0305
18095THY    CP248443   6.824   6.133   2.214 -0.3398  0.5771  0.1488
18095THY    HP248444   6.912   6.113   2.277 -0.7753  0.8463 -0.9638
18095THY    HP348445   6.821   6.243   2.213  2.6472 -0.8904  0.3142
18095THY    HP448446   6.832   6.096   2.111 -0.0432 -0.1521  2.1079
18095THY    CP348447   6.703   6.136   2.424  0.1991  0.4136 -0.5467
18095THY    HP548448   6.714   6.244   2.415  2.5731  1.6850 -0.5997
18095THY    HP648449   6.780   6.093   2.490  0.6300  0.5659  0.4443
18095THY    HP748450   6.607   6.110   2.470  1.2610  2.7203 -0.6880
18095THY    CA348451   6.814   5.835   2.251  0.2866  0.1122  0.5477
18095THY    HA348452   6.917   5.869   2.250 -0.2407 -2.4750  2.3746
18095THY    CA448453   6.791   5.698   2.235 -0.0212  0.0637 -0.2410
18095THY    HA448454   6.875   5.633   2.215  0.5220 -1.0618  0.7646
18095THY    CA548455   6.665   5.644   2.236 -0.3445 -0.2038  0.4574
18095THY    CM148456   6.651   5.497   2.211  0.4409 -0.2467  0.1876
18095THY    HM148457   6.746   5.443   2.217  0.8550 -0.8489  0.8356
18095THY    HM248458   6.617   5.477   2.109  1.3212 -0.5378  0.1230
18095THY    HM348459   6.579   5.449   2.279 -0.3326 -0.4082  1.0925
18095THY    CA648460   6.558   5.728   2.241  0.2649  0.7996  0.5319
18095THY    HA648461   6.467   5.673   2.219  2.2405 -0.5150 -2.4851
18096THY      O48462   1.644   1.102   3.973 -0.2590  0.1050  0.1428
18096THY     HO48463   1.637   1.082   4.068 -3.9037 -0.0343  0.0652
18096THY    CA148464   1.752   1.185   3.955 -0.5120 -0.0741  1.0174
18096THY    CA248465   1.795   1.238   3.831  0.0102 -0.6344  0.7773
18096THY    CP148466   1.699   1.231   3.705 -0.3334  0.0457 -0.0969
18096THY    HP148467   1.605   1.185   3.738 -0.6230  0.2934  0.6547
18096THY    CP248468   1.771   1.147   3.602  0.2785  0.0388 -0.1512
18096THY    HP248469   1.845   1.214   3.558 -0.3503 -0.1343  0.4460
18096THY    HP348470   1.717   1.118   3.511  2.3612 -0.6740 -2.0314
18096THY    HP448471   1.811   1.062   3.658  0.3569 -1.2729 -1.0089
18096THY    CP348472   1.667   1.363   3.636  0.3065 -0.3774  0.2999
18096THY    HP548473   1.636   1.344   3.533  2.6853 -0.6834 -2.5258
18096THY    HP648474   1.753   1.430   3.649  1.9176 -1.0906 -1.5539
18096THY    HP748475   1.578   1.414   3.677 -0.0493  1.1250 -1.4211
18096THY    CA348476   1.921   1.306   3.823 -0.6661 -0.4989  0.1073
18096THY    HA348477   1.958   1.351   3.731  1.6288  1.5994  2.8604
18096THY    CA448478   1.996   1.320   3.947  0.0344 -0.1546  0.1826
18096THY    HA448479   2.089   1.375   3.958  0.0666  1.7274 -0.1815
18096THY    CA548480   1.956   1.251   4.063  0.1756 -0.0504 -0.3070
18096THY    CM148481   2.025   1.250   4.188 -0.3797 -0.1823  0.0441
18096THY    HM148482   2.120   1.306   4.190 -0.6035 -0.0943  0.4252
18096THY    HM248483   2.044   1.151   4.231  1.1224 -0.2369  0.2755
18096THY    HM348484   1.976   1.301   4.272 -0.5283 -0.4885  0.4063
18096THY    CA648485   1.837   1.180   4.063  0.4907 -0.4012 -0.4607
18096THY    HA648486   1.800   1.129   4.151 -2.7418 -1.7511 -0.6970
18097THY      O48487   7.575   0.631   7.124  0.5197  0.1666 -0.4610
18097THY     HO48488   7.577   0.573   7.202  0.0319  0.5421  0.0172
18097THY    CA148489   7.537   0.554   7.015 -1.0420 -0.0079 -0.2783
18097THY    CA248490   7.616   0.554   6.896  0.1582 -0.4032  0.0205
18097THY    CP148491   7.717   0.660   6.865 -0.3050  0.2661 -0.4378
18097THY    HP148492   7.735   0.716   6.958 -4.7971  1.4978 -0.5989
18097THY    CP248493   7.653   0.757   6.770 -0.3514  0.2853  0.2497
18097THY    HP248494   7.557   0.793   6.808 -2.2546 -2.6277 -1.4144
18097THY    HP348495   7.641   0.701   6.677  0.8634  0.7923 -0.9321
18097THY    HP448496   7.715   0.846   6.757 -2.5001  2.3800  2.1930
18097THY    CP348497   7.856   0.615   6.808  0.2943  0.4888  0.6376
18097THY    HP548498   7.932   0.694   6.810 -0.5582  4.0804  1.5776
18097THY    HP648499   7.844   0.570   6.709 -0.2006  0.8726 -0.0912
18097THY    HP748500   7.901   0.529   6.859  2.1176 -0.4910  0.9580
18097THY    CA348501   7.590   0.459   6.795  0.1267  0.1630  0.2497
18097THY    HA348502   7.633   0.461   6.696 -1.8040 -0.7419 -0.9480
18097THY    CA448503   7.499   0.363   6.815 -0.1765 -0.0637 -0.0641
18097THY    HA448504   7.488   0.291   6.735  2.0237 -0.1060 -0.4178
18097THY    CA548505   7.411   0.363   6.929 -0.5144  0.0402  0.6757
18097THY    CM148506   7.300   0.262   6.936  0.3058  0.4446  0.2095
18097THY    HM148507   7.343   0.162   6.918 -1.6117  1.0903 -0.7754
18097THY    HM248508   7.218   0.279   6.865 -1.7341  2.0573 -2.2603
18097THY    HM348509   7.256   0.259   7.036 -2.4846 -0.6725  0.4262
18097THY    CA648510   7.435   0.463   7.028  0.2846 -1.0428 -0.2791
18097THY    HA648511   7.381   0.454   7.122  3.0093  0.5377 -1.4246
18098THY      O48512   3.699   5.100   2.689 -0.2618  0.0624  0.3894
18098THY     HO48513   3.743   5.048   2.619 -1.0311 -0.7628  0.8264
18098THY    CA148514   3.800   5.123   2.782  0.5625  0.2515 -0.6242
18098THY    CA248515   3.813   5.250   2.849 -0.0426 -0.9578  0.4295
18098THY    CP148516   3.703   5.362   2.836  0.5638  0.1691  0.4720
18098THY    HP148517   3.627   5.315   2.771 -0.6713  1.7472  0.1696
18098THY    CP248518   3.757   5.474   2.751  0.3368 -0.1256 -0.7128
18098THY    HP248519   3.689   5.560   2.750  0.8503 -0.3505 -0.2988
18098THY    HP348520   3.768   5.440   2.647 -1.4018  0.1860 -2.3435
18098THY    HP448521   3.854   5.496   2.798  0.4794  1.4016 -4.0182
18098THY    CP348522   3.637   5.397   2.965  0.6058  1.0059 -0.2806
18098THY    HP548523   3.599   5.310   3.019 -0.1743  0.1725 -0.4852
18098THY    HP648524   3.552   5.466   2.961 -0.0561  2.3899 -0.9749
18098THY    HP748525   3.707   5.445   3.033  0.0248  0.3755  1.5310
18098THY    CA348526   3.924   5.269   2.933 -0.3563 -0.3425  0.0956
18098THY    HA348527   3.942   5.368   2.974  1.6310 -2.3314  0.6327
18098THY    CA448528   4.016   5.165   2.941 -0.7166 -0.1648  0.6351
18098THY    HA448529   4.109   5.176   2.997 -0.8027  0.0313  0.3819
18098THY    CA548530   4.006   5.047   2.873 -0.6427 -0.1799 -0.5543
18098THY    CM148531   4.100   4.928   2.896 -0.2156 -0.6553 -0.2142
18098THY    HM148532   4.042   4.837   2.883 -1.9565  1.0842  0.5917
18098THY    HM248533   4.151   4.918   2.992  0.9421 -1.2935 -0.7217
18098THY    HM348534   4.186   4.927   2.827  1.5238  1.3414  1.0881
18098THY    CA648535   3.899   5.028   2.789 -0.0944 -0.3685  0.1436
18098THY    HA648536   3.881   4.930   2.747 -1.4973  1.1454 -0.2816
18099THY      O48537   1.661   6.618   2.401 -0.6622  0.3232  0.9585
18099THY     HO48538   1.719   6.621   2.478  0.9761 -0.8498  0.9287
18099THY    CA148539   1.545   6.686   2.424  0.3324  0.4331  0.4536
18099THY    CA248540   1.415   6.620   2.406  0.2054 -0.6329 -0.8873
18099THY    CP148541   1.405   6.485   2.338  0.0169  0.5928  0.6051
18099THY    HP148542   1.494   6.437   2.381  0.7900 -0.2174  1.2577
18099THY    CP248543   1.429   6.503   2.182 -0.1131  1.1676 -0.5359
18099THY    HP248544   1.332   6.496   2.131  0.7248 -0.4017 -1.4086
18099THY    HP348545   1.476   6.410   2.148 -0.6031  3.2238 -1.5945
18099THY    HP448546   1.491   6.590   2.157 -1.1369  0.7533  0.0810
18099THY    CP348547   1.272   6.403   2.356  0.0600  0.3348 -0.0022
18099THY    HP548548   1.276   6.306   2.307  1.0366  0.4470 -0.0294
18099THY    HP648549   1.191   6.455   2.303  0.7275  0.7083  1.4732
18099THY    HP748550   1.260   6.387   2.464  0.9018  0.1265 -2.3371
18099THY    CA348551   1.300   6.696   2.441  0.3583  0.2180 -0.1980
18099THY    HA348552   1.201   6.652   2.438  0.4413  1.8453 -0.5875
18099THY    CA448553   1.317   6.820   2.491  0.5453  0.5265 -0.7772
18099THY    HA448554   1.230   6.878   2.520  1.5966 -0.0986  1.2182
18099THY    CA548555   1.440   6.888   2.504 -0.3832  0.4563  0.2768
18099THY    CM148556   1.453   7.028   2.558  0.2096 -0.8270  0.4489
18099THY    HM148557   1.467   7.094   2.472 -0.3713  0.6878  2.6527
18099THY    HM248558   1.544   7.031   2.619 -1.0712  1.3965 -1.7098
18099THY    HM348559   1.370   7.060   2.622  1.1907  0.7447 -0.0506
18099THY    CA648560   1.554   6.817   2.468  0.4887  1.0087  0.5426
18099THY    HA648561   1.653   6.861   2.475  1.6183 -0.2355 -1.6736
18100THY      O48562   0.717   5.654   7.412  0.1804  0.1918 -0.2321
18100THY     HO48563   0.741   5.629   7.321  2.1984  1.2770 -2.7271
18100THY    CA148564   0.695   5.787   7.415  1.2617 -0.1014  0.4321
18100THY    CA248565   0.664   5.853   7.528 -0.2529  0.1114  0.0755
18100THY    CP148566   0.667   5.788   7.668 -0.5216  1.3325 -0.4189
18100THY    HP148567   0.733   5.701   7.662  0.0504 -0.0217  0.0907
18100THY    CP248568   0.536   5.748   7.722 -0.0309 -0.2773  0.8391
18100THY    HP248569   0.491   5.671   7.658 -0.9397  2.5352 -1.1051
18100THY    HP348570   0.474   5.838   7.735  1.9249 -1.6781  2.4709
18100THY    HP448571   0.556   5.711   7.823 -0.8494 -1.1613 -2.2799
18100THY    CP348572   0.731   5.886   7.773  0.2900 -0.3748  0.8531
18100THY    HP548573   0.840   5.880   7.759  0.2770 -0.5422  1.0096
18100THY    HP648574   0.708   5.859   7.877 -0.1928 -0.0485  2.4251
18100THY    HP748575   0.685   5.985   7.772 -1.1681 -1.2692  0.1982
18100THY    CA348576   0.615   5.988   7.508  0.2385  0.4160  0.0512
18100THY    HA348577   0.570   6.037   7.594 -1.5867 -0.4994  0.0412
18100THY    CA448578   0.628   6.054   7.383 -0.2121 -0.2129  0.4791
18100THY    HA448579   0.606   6.160   7.372  2.2312  1.0465  1.2046
18100THY    CA548580   0.670   5.982   7.274 -0.1146 -0.4222  0.2203
18100THY    CM148581   0.662   6.037   7.132  0.7967 -0.0811  0.4974
18100THY    HM148582   0.750   5.993   7.084 -0.8571 -3.8200  0.7930
18100THY    HM248583   0.685   6.144   7.140  0.7113 -1.3856  0.6314
18100THY    HM348584   0.573   6.015   7.072  0.1204  1.3471 -0.8246
18100THY    CA648585   0.696   5.849   7.290 -0.6814 -0.5264 -0.1721
18100THY    HA648586   0.715   5.790   7.201  0.8690 -0.6898  0.5163
18101THY      O48587   7.466   2.584   3.787 -0.3240 -0.2107  0.8874
18101THY     HO48588   7.407   2.560   3.861 -0.0163 -0.3625 -0.4339
18101THY    CA148589   7.558   2.488   3.767  0.0514 -0.7908  0.7538
18101THY    CA248590   7.635   2.474   3.645 -0.0031  0.2304 -0.1880
18101THY    CP148591   7.617   2.572   3.531 -0.8351  0.2720  0.0127
18101THY    HP148592   7.521   2.624   3.543  0.4879  0.1385  2.6826
18101THY    CP248593   7.611   2.508   3.394 -0.1221 -0.0162 -0.6625
18101THY    HP248594   7.522   2.445   3.399 -0.0521  2.0072 -0.6404
18101THY    HP348595   7.702   2.456   3.360 -0.5421 -1.0287 -0.7669
18101THY    HP448596   7.592   2.588   3.321 -1.4092  0.0814 -0.8726
18101THY    CP348597   7.728   2.689   3.523  0.5069 -0.5502  0.2471
18101THY    HP548598   7.686   2.776   3.471 -0.0967  0.2871  0.4633
18101THY    HP648599   7.820   2.651   3.477  0.0151 -0.8901 -0.5600
18101THY    HP748600   7.754   2.722   3.624 -1.6140  0.3163 -0.6234
18101THY    CA348601   7.713   2.365   3.634 -0.4683  0.6592  0.2513
18101THY    HA348602   7.758   2.340   3.538 -1.1169  0.6752 -1.0549
18101THY    CA448603   7.740   2.277   3.743  0.2069  0.9441  0.3403
18101THY    HA448604   7.807   2.192   3.733  1.0178 -0.0469  1.0599
18101THY    CA548605   7.670   2.295   3.862 -0.4454  0.2749  0.3450
18101THY    CM148606   7.670   2.194   3.982  0.2798  0.6478  0.0165
18101THY    HM148607   7.643   2.098   3.937 -0.0472  2.6828 -0.9029
18101THY    HM248608   7.601   2.230   4.059  1.1148  1.3606  0.1280
18101THY    HM348609   7.769   2.166   4.021  0.3592  0.1036 -0.4773
18101THY    CA648610   7.576   2.394   3.871 -0.0680 -0.6002 -0.0200
18101THY    HA648611   7.519   2.406   3.962 -1.2984 -1.5729  2.3014
18102THY      O48612   6.888   1.288   7.562 -0.3647  0.2520 -0.0172
18102THY     HO48613   6.904   1.333   7.646  0.3802 -0.4651  1.1118
18102THY    CA148614   6.986   1.340   7.482 -0.1665  0.4171  0.3520
18102THY    CA248615   7.098   1.264   7.433  0.2930 -1.0656 -0.1919
18102THY    CP148616   7.106   1.113   7.484  0.0451  0.1987  1.0213
18102THY    HP148617   7.016   1.079   7.537 -0.3863 -1.0265  0.1692
18102THY    CP248618   7.228   1.109   7.581  0.5122 -0.2696 -0.5031
18102THY    HP248619   7.217   1.174   7.669 -1.3861 -0.3499 -0.6538
18102THY    HP348620   7.317   1.147   7.531  1.1905  0.3699 -1.2059
18102THY    HP448621   7.249   1.009   7.620  2.7249  0.8087  0.3207
18102THY    CP348622   7.137   1.021   7.366  0.0690  0.2109 -0.6649
18102THY    HP548623   7.055   1.023   7.293 -0.8465  1.1412  2.9556
18102THY    HP648624   7.146   0.919   7.406  2.6434  1.1173 -0.1555
18102THY    HP748625   7.237   1.037   7.326  0.9973  2.6664  0.1782
18102THY    CA348626   7.194   1.331   7.352  0.0955  0.3653 -0.5733
18102THY    HA348627   7.277   1.271   7.315 -0.1302  0.2763 -0.8301
18102THY    CA448628   7.176   1.465   7.313  0.2363  0.5974  0.2205
18102THY    HA448629   7.246   1.517   7.247 -1.5855 -0.1049  1.9443
18102THY    CA548630   7.067   1.540   7.360 -0.5120  0.8342  0.3052
18102THY    CM148631   7.043   1.674   7.315  0.5873 -0.5021 -1.0455
18102THY    HM148632   6.986   1.726   7.393  1.5701 -1.0566  0.9920
18102THY    HM248633   6.986   1.676   7.221 -0.6620  0.0847 -3.9064
18102THY    HM348634   7.133   1.736   7.310 -0.4433  2.3590  0.9128
18102THY    CA648635   6.969   1.472   7.435 -0.1454 -0.5511 -0.5243
18102THY    HA648636   6.884   1.530   7.469  0.4454  2.8406 -1.4060
18103THY      O48637   7.839   1.474   3.544  0.5846  0.3192  0.0574
18103THY     HO48638   7.825   1.518   3.459  1.1637  0.4524  0.5063
18103THY    CA148639   7.744   1.539   3.631 -0.9188  0.4996  0.2756
18103THY    CA248640   7.692   1.476   3.743 -0.2005 -0.2693 -0.1206
18103THY    CP148641   7.707   1.322   3.763  0.6881  0.8132  1.0928
18103THY    HP148642   7.743   1.284   3.667 -1.0056  0.6414 -0.1855
18103THY    CP248643   7.581   1.249   3.802  0.1695  0.2474  0.3226
18103THY    HP248644   7.507   1.264   3.722  0.0731  0.4011  0.6869
18103THY    HP348645   7.532   1.278   3.895  0.0279 -0.2980  1.9224
18103THY    HP448646   7.616   1.145   3.806  1.0788 -0.8409  0.5587
18103THY    CP348647   7.824   1.291   3.863 -0.6392 -1.1823 -0.0804
18103THY    HP548648   7.783   1.294   3.964  2.2565  0.1367 -1.3030
18103THY    HP648649   7.909   1.360   3.854  0.7546 -1.3946 -1.7557
18103THY    HP748650   7.868   1.191   3.859  0.6446  0.4112  0.3846
18103THY    CA348651   7.603   1.547   3.823 -0.8309 -0.4977  0.3581
18103THY    HA348652   7.555   1.493   3.904 -0.0904 -0.4266 -0.2090
18103THY    CA448653   7.572   1.675   3.784  0.2647 -0.2190 -0.3188
18103THY    HA448654   7.497   1.722   3.847 -0.5250  2.1163 -4.2246
18103THY    CA548655   7.625   1.740   3.677  0.6435  0.1104 -0.3400
18103THY    CM148656   7.616   1.889   3.649 -0.5352 -0.1365 -1.4970
18103THY    HM148657   7.657   1.946   3.733  0.2541 -0.8904 -0.9301
18103THY    HM248658   7.513   1.927   3.644  0.8225 -2.1062  2.4445
18103THY    HM348659   7.662   1.917   3.554 -1.8725 -0.5760 -0.7318
18103THY    CA648660   7.715   1.671   3.600  0.3264  0.1230  0.5519
18103THY    HA648661   7.755   1.710   3.507 -0.7036 -1.6341 -2.2903
18104THY      O48662   6.370   7.318   6.341  0.2265 -0.1746  0.1827
18104THY     HO48663   6.338   7.296   6.252 -1.9578  0.5509  0.1921
18104THY    CA148664   6.464   7.409   6.308  0.0658  0.5214  0.0316
18104THY    CA248665   6.573   7.430   6.392  0.6490  0.2381  0.5713
18104THY    CP148666   6.595   7.350   6.526 -0.2938 -0.2817  0.0056
18104THY    HP148667   6.531   7.263   6.545  0.0239  1.1165  0.0477
18104THY    CP248668   6.565   7.447   6.639 -0.0325 -0.1408 -0.2396
18104THY    HP248669   6.579   7.410   6.741 -0.0377  0.1706  0.6035
18104THY    HP348670   6.462   7.484   6.629  0.2427  2.6909  1.6111
18104THY    HP448671   6.627   7.537   6.630  3.6430 -0.0685 -2.5540
18104THY    CP348672   6.745   7.295   6.542  0.2343 -0.1549  1.1617
18104THY    HP548673   6.780   7.243   6.452  2.6635  0.6251  1.3201
18104THY    HP648674   6.742   7.228   6.629 -3.9174  0.9155  2.4273
18104THY    HP748675   6.815   7.374   6.571  0.6965  2.3924 -0.1041
18104THY    CA348676   6.670   7.523   6.351 -0.4927 -0.1755 -0.3512
18104THY    HA348677   6.755   7.537   6.418 -0.0242 -0.2932 -2.3650
18104THY    CA448678   6.650   7.590   6.233  0.0088 -0.3147  0.0994
18104THY    HA448679   6.721   7.667   6.207  2.9987  0.3993 -2.2312
18104THY    CA548680   6.543   7.573   6.154  0.3033 -0.1600  0.0846
18104THY    CM148681   6.511   7.655   6.031 -0.5711 -0.0620 -0.1709
18104THY    HM148682   6.434   7.611   5.966 -1.2847 -0.0054  0.9539
18104THY    HM248683   6.603   7.648   5.972 -1.0907 -1.2407  2.0575
18104THY    HM348684   6.485   7.760   6.050  0.9416 -0.5464  0.3153
18104THY    CA648685   6.451   7.473   6.186  0.2963 -0.1389  0.1885
18104THY    HA648686   6.365   7.447   6.124 -0.2355  0.8118 -0.3805
18105THY      O48687   9.163   8.523   2.146 -0.4372  0.2650  0.1310
18105THY     HO48688   9.230   8.516   2.216  1.0050 -1.1806 -1.7250
18105THY    CA148689   9.202   8.632   2.064 -0.4603 -1.0669 -0.8586
18105THY    CA248690   9.124   8.676   1.959 -0.1336 -0.2283 -0.2863
18105THY    CP148691   9.005   8.593   1.918  0.8226  0.2159  0.3990
18105THY    HP148692   8.987   8.501   1.975  1.0909  0.1884  0.3301
18105THY    CP248693   9.012   8.554   1.768 -0.1272  0.9378 -0.1083
18105THY    HP248694   8.920   8.504   1.737  1.2952 -1.8995 -1.1812
18105THY    HP348695   9.088   8.480   1.739  1.1759 -0.9017  1.8418
18105THY    HP448696   9.031   8.638   1.700 -1.2043  1.8971  0.9697
18105THY    CP348697   8.873   8.665   1.935  0.3585 -0.1289  0.2984
18105THY    HP548698   8.871   8.766   1.892  0.1997 -0.7268  0.0484
18105THY    HP648699   8.850   8.680   2.041  0.0711 -0.2655  0.8418
18105THY    HP748700   8.789   8.610   1.893 -0.2252  1.5640 -0.1700
18105THY    CA348701   9.156   8.794   1.911  0.3176 -0.4456  0.5979
18105THY    HA348702   9.095   8.833   1.830 -1.1290 -0.3077 -1.2413
18105THY    CA448703   9.268   8.863   1.958 -0.3173  0.0641 -0.0175
18105THY    HA448704   9.289   8.958   1.909 -0.4125  0.5261  0.2506
18105THY    CA548705   9.347   8.820   2.063 -1.0337  0.0554 -0.3696
18105THY    CM148706   9.443   8.900   2.138 -0.1940  0.6577 -0.8214
18105THY    HM148707   9.540   8.850   2.134  0.6497  0.3184  0.7587
18105THY    HM248708   9.412   8.924   2.240  0.3144  0.9668 -1.4632
18105THY    HM348709   9.466   8.995   2.088 -1.0191  1.2763 -0.2815
18105THY    CA648710   9.311   8.700   2.114  0.0712 -0.7989 -0.1041
18105THY    HA648711   9.355   8.677   2.211  0.6234 -0.2004  2.9314
18106THY      O48712   5.101   4.135   5.398 -0.5412  0.2613 -0.1906
18106THY     HO48713   5.149   4.198   5.454  1.0820  0.0793 -1.2010
18106THY    CA148714   5.000   4.092   5.476  0.0467  0.0946  1.4083
18106THY    CA248715   4.918   3.988   5.432 -0.7826 -0.3605  0.8254
18106THY    CP148716   4.954   3.915   5.296  0.5637  0.1956 -0.0656
18106THY    HP148717   4.977   3.988   5.218 -0.9950 -1.7022 -1.5121
18106THY    CP248718   4.833   3.842   5.240 -0.2976 -0.0423  0.0092
18106THY    HP248719   4.828   3.739   5.279 -2.4957  1.3823  0.5895
18106THY    HP348720   4.852   3.834   5.132 -0.2152 -0.1414  1.3214
18106THY    HP448721   4.745   3.906   5.256 -0.8694 -1.6921 -0.3024
18106THY    CP348722   5.071   3.812   5.321 -0.0028 -0.5692  0.5617
18106THY    HP548723   5.164   3.861   5.353  0.3503 -0.4300 -0.1777
18106THY    HP648724   5.102   3.744   5.241 -0.4036 -0.1063 -0.1868
18106THY    HP748725   5.041   3.744   5.402 -2.2615 -0.7714  1.2474
18106THY    CA348726   4.826   3.935   5.534  0.0351 -0.0633  0.9641
18106THY    HA348727   4.753   3.858   5.508  0.4129 -0.4535  0.7349
18106THY    CA448728   4.814   3.987   5.661 -0.3831  0.1577 -1.0886
18106THY    HA448729   4.733   3.954   5.725 -0.0052  0.7299 -0.9135
18106THY    CA548730   4.898   4.087   5.694 -0.1995 -0.3418 -0.4471
18106THY    CM148731   4.881   4.137   5.836 -0.1147  0.0406  0.3685
18106THY    HM148732   4.786   4.109   5.884  1.1490  2.6670  0.2871
18106THY    HM248733   4.891   4.245   5.848 -0.1505  1.0870  0.2642
18106THY    HM348734   4.956   4.088   5.900  0.8727 -1.1797  0.2187
18106THY    CA648735   4.992   4.141   5.607 -0.3423  0.5052  0.2812
18106THY    HA648736   5.045   4.229   5.643 -0.4523  1.3007  0.0265
18107THY      O48737   7.512   4.948   6.381  0.4670 -0.3355  0.0589
18107THY     HO48738   7.595   4.901   6.400  0.2076 -0.2572 -0.3727
18107THY    CA148739   7.417   4.911   6.475  0.4460 -0.5169 -0.4872
18107THY    CA248740   7.275   4.924   6.453  0.2124 -0.0333 -0.0976
18107THY    CP148741   7.221   4.983   6.325  0.6333 -0.1728  0.1893
18107THY    HP148742   7.292   5.040   6.265  0.3268 -0.9639 -0.2556
18107THY    CP248743   7.115   5.087   6.360 -0.2912  0.4420  0.3123
18107THY    HP248744   7.088   5.116   6.258 -1.3102 -0.0114 -1.9778
18107THY    HP348745   7.165   5.166   6.418  1.2381  1.3979 -1.2701
18107THY    HP448746   7.026   5.058   6.417 -1.1306  0.3845  2.5963
18107THY    CP348747   7.163   4.874   6.238  0.2997 -0.3148 -0.5547
18107THY    HP548748   7.150   4.910   6.135  1.0213  0.0259  0.7189
18107THY    HP648749   7.069   4.837   6.282  0.0083 -0.2379  0.2606
18107THY    HP748750   7.225   4.783   6.232 -1.6841 -0.8354 -1.9550
18107THY    CA348751   7.189   4.870   6.549  0.1548  0.4413 -0.5118
18107THY    HA348752   7.084   4.888   6.530  0.3858 -1.5759 -0.9443
18107THY    CA448753   7.242   4.822   6.667  0.3458  0.3319  1.1649
18107THY    HA448754   7.169   4.800   6.744 -1.1712 -1.6421 -1.2779
18107THY    CA548755   7.376   4.822   6.688 -0.0939 -0.1130  0.2296
18107THY    CM148756   7.435   4.763   6.812  0.7338  0.3593 -0.6118
18107THY    HM148757   7.544   4.754   6.800  0.7236 -0.8492  0.5310
18107THY    HM248758   7.381   4.669   6.829  0.2077  0.9312 -0.2152
18107THY    HM348759   7.420   4.829   6.898 -1.2663  1.9904 -3.0184
18107THY    CA648760   7.466   4.867   6.593  0.0450  0.1948 -0.0845
18107THY    HA648761   7.574   4.868   6.608 -0.0050  0.6175 -0.5178
18108THY      O48762   2.945   6.473   3.649 -0.4655  0.1367 -0.6988
18108THY     HO48763   2.886   6.440   3.719 -1.4574  0.0775  0.8372
18108THY    CA148764   3.024   6.371   3.617  0.7385 -0.0974 -0.0067
18108THY    CA248765   3.104   6.374   3.506 -0.5638  0.1523 -0.4023
18108THY    CP148766   3.119   6.496   3.410  0.3924  0.1633 -0.0592
18108THY    HP148767   3.049   6.566   3.458 -0.6890  2.6608 -2.6965
18108THY    CP248768   3.067   6.465   3.270  0.0501 -0.1970 -0.5699
18108THY    HP248769   3.125   6.386   3.222  2.2899  0.4707  0.5981
18108THY    HP348770   3.088   6.560   3.218  0.7543  0.4693 -0.3555
18108THY    HP448771   2.962   6.434   3.262  0.3922 -1.7464 -1.4357
18108THY    CP348772   3.256   6.551   3.415 -0.6200 -0.2498  0.0273
18108THY    HP548773   3.326   6.478   3.374  1.7565 -0.3533  2.2140
18108THY    HP648774   3.284   6.593   3.513 -0.3045 -0.7650  1.0673
18108THY    HP748775   3.275   6.628   3.340 -0.3112 -1.2075 -0.9626
18108THY    CA348776   3.178   6.253   3.490  0.0538 -0.2078 -0.0299
18108THY    HA348777   3.244   6.246   3.404 -0.3814 -0.5932  0.4771
18108THY    CA448778   3.169   6.154   3.584  0.2809 -0.0093  0.6987
18108THY    HA448779   3.244   6.076   3.592 -0.0150  0.8488  0.4801
18108THY    CA548780   3.093   6.157   3.698 -0.1093  0.4096  0.0512
18108THY    CM148781   3.106   6.053   3.808  0.3214  0.2211 -1.1281
18108THY    HM148782   3.186   5.980   3.790  0.5634  0.1208 -0.8409
18108THY    HM248783   3.008   6.008   3.829 -1.1693  0.0816  1.8483
18108THY    HM348784   3.142   6.106   3.896  0.4201 -0.7118  0.4009
18108THY    CA648785   3.012   6.265   3.713 -0.2000  0.6506  0.4156
18108THY    HA648786   2.954   6.273   3.804 -1.9561 -0.4233  0.6529
18109THY      O48787   1.819   1.825   1.907 -0.3718  0.1146  0.2038
18109THY     HO48788   1.857   1.757   1.964  1.8764 -2.2180 -0.6883
18109THY    CA148789   1.923   1.910   1.869 -0.2867  0.0685  0.6182
18109THY    CA248790   1.902   1.999   1.765  0.1035 -0.5767 -0.1749
18109THY    CP148791   1.770   2.030   1.700  0.5212  1.1076  0.7883
18109THY    HP148792   1.692   1.970   1.749 -0.3199  0.2044  1.1080
18109THY    CP248793   1.766   1.986   1.554 -0.1787 -0.5291 -0.3481
18109THY    HP248794   1.689   2.040   1.497  0.9552 -1.0385  0.7915
18109THY    HP348795   1.758   1.878   1.538 -0.3071 -0.4696 -0.3464
18109THY    HP448796   1.860   2.013   1.503 -0.2982 -0.0881  0.9964
18109THY    CP348797   1.720   2.173   1.720  1.0302  0.1632  0.3555
18109THY    HP548798   1.703   2.190   1.827  0.1974  0.2115 -0.6945
18109THY    HP648799   1.629   2.190   1.662  0.7841  0.3160 -0.4341
18109THY    HP748800   1.788   2.249   1.679  1.7206 -1.8985 -1.2832
18109THY    CA348801   2.014   2.081   1.731  0.2723  0.4135  0.2970
18109THY    HA348802   2.007   2.160   1.657  0.1864 -1.6287 -1.5391
18109THY    CA448803   2.135   2.077   1.795 -1.1574 -0.2879 -0.1528
18109THY    HA448804   2.216   2.147   1.774 -1.4398 -1.5679 -0.1819
18109THY    CA548805   2.146   1.993   1.901  0.2921 -0.1570  0.4500
18109THY    CM148806   2.271   1.992   1.990  0.0168  0.1450  0.7807
18109THY    HM148807   2.245   2.017   2.093  0.6078  0.8473 -1.3358
18109THY    HM248808   2.352   2.053   1.947  1.7580  1.2115 -0.6900
18109THY    HM348809   2.310   1.890   1.986 -0.8342 -0.3500  0.4624
18109THY    CA648810   2.039   1.924   1.947 -0.7553 -0.0301  0.0427
18109THY    HA648811   2.051   1.872   2.041 -2.0500  1.2338  1.9387
18110THY      O48812   3.074   7.067   2.435 -0.0123  0.7667 -0.3289
18110THY     HO48813   3.125   7.139   2.476 -2.5669 -0.8186  2.6710
18110THY    CA148814   2.983   7.135   2.363  0.2567 -0.6722 -0.1706
18110THY    CA248815   2.866   7.067   2.325 -0.2092  0.4030  0.2260
18110THY    CP148816   2.857   6.915   2.332  0.0509  0.5535  0.7955
18110THY    HP148817   2.954   6.871   2.360  1.3874 -4.0692  0.2651
18110THY    CP248818   2.838   6.847   2.196 -0.3716 -0.0493 -0.0167
18110THY    HP248819   2.733   6.859   2.169 -0.7884  1.7658  0.7797
18110THY    HP348820   2.860   6.740   2.209  0.6488 -0.5855  0.1141
18110THY    HP448821   2.911   6.892   2.129  1.3980  2.5479  1.2492
18110THY    CP348822   2.762   6.880   2.444 -0.3041 -0.4027  0.7242
18110THY    HP548823   2.659   6.910   2.421 -0.9905 -0.8832 -1.7816
18110THY    HP648824   2.795   6.913   2.543 -0.8976 -0.8817  2.9408
18110THY    HP748825   2.752   6.771   2.453  3.0970 -0.4335  0.3282
18110THY    CA348826   2.761   7.145   2.268  0.3895  0.0421  0.6637
18110THY    HA348827   2.681   7.095   2.215  1.6541 -3.6964  2.2355
18110THY    CA448828   2.778   7.285   2.242  0.6454  0.4256  0.0048
18110THY    HA448829   2.693   7.342   2.206  0.6518 -2.9882 -1.8750
18110THY    CA548830   2.896   7.350   2.279 -0.2406 -0.4986  0.4910
18110THY    CM148831   2.920   7.495   2.268  0.6313  0.2743 -0.4427
18110THY    HM148832   2.922   7.544   2.366  1.7872  0.1179 -0.1511
18110THY    HM248833   2.832   7.535   2.215  0.7185  0.3724 -0.1119
18110THY    HM348834   3.005   7.516   2.202 -1.1067 -1.9394  0.1567
18110THY    CA648835   2.996   7.273   2.340 -0.1519 -0.5474 -0.2053
18110THY    HA648836   3.085   7.320   2.379  0.5265 -1.2078 -0.9036
18111THY      O48837   3.032   6.802   6.411  0.0676 -0.0736 -0.0659
18111THY     HO48838   2.957   6.744   6.433 -1.6714 -0.4963  1.8728
18111THY    CA148839   3.147   6.750   6.443 -0.2976  0.2284 -0.6400
18111THY    CA248840   3.229   6.795   6.543  0.5347 -0.0797 -0.2954
18111THY    CP148841   3.189   6.930   6.610 -0.4369  0.6220 -0.5703
18111THY    HP148842   3.080   6.935   6.625 -0.5872 -0.0934 -1.3946
18111THY    CP248843   3.235   7.053   6.528  0.2018 -0.0703 -0.4202
18111THY    HP248844   3.330   7.038   6.476  0.4276 -0.9649  3.2138
18111THY    HP348845   3.236   7.144   6.589  0.1120  0.5246 -0.8144
18111THY    HP448846   3.154   7.079   6.459  1.0496 -0.2108  2.2015
18111THY    CP348847   3.253   6.951   6.743 -0.2969  0.4319  0.2140
18111THY    HP548848   3.238   6.860   6.801  1.5711 -1.7652 -1.6121
18111THY    HP648849   3.199   7.038   6.783  0.2072  0.1930  0.6469
18111THY    HP748850   3.361   6.969   6.736 -0.2680  1.9280  0.8256
18111THY    CA348851   3.335   6.715   6.587  1.1281  0.9862  0.6915
18111THY    HA348852   3.402   6.752   6.664  1.6649  0.3254  1.0997
18111THY    CA448853   3.355   6.591   6.525 -0.0898  0.3905  0.2138
18111THY    HA448854   3.438   6.527   6.555  0.7471  0.1486  1.1685
18111THY    CA548855   3.277   6.553   6.412 -0.0963 -0.0557  0.2727
18111THY    CM148856   3.306   6.433   6.324  0.5057 -0.4267  0.1157
18111THY    HM148857   3.212   6.395   6.283 -0.1973  1.2195 -0.0007
18111THY    HM248858   3.368   6.353   6.365  0.4360 -4.2706 -2.1548
18111THY    HM348859   3.360   6.467   6.235  1.3739 -0.6559 -1.7737
18111THY    CA648860   3.173   6.631   6.376 -0.9976  0.5546 -0.0931
18111THY    HA648861   3.107   6.593   6.299 -2.0346 -0.3485  3.2620
18112THY      O48862   3.890   2.189   1.550  0.1717 -0.3603  0.0844
18112THY     HO48863   3.875   2.094   1.532 -2.5103 -0.6605  0.5056
18112THY    CA148864   3.836   2.209   1.672 -0.4241  0.3030  0.3397
18112THY    CA248865   3.791   2.334   1.713 -0.8643 -0.7247 -0.0902
18112THY    CP148866   3.774   2.443   1.608  0.3062  0.4182 -0.4428
18112THY    HP148867   3.826   2.439   1.512 -0.4382 -0.1308  1.6563
18112THY    CP248868   3.832   2.574   1.660 -0.3830 -0.1652  0.3463
18112THY    HP248869   3.837   2.648   1.579  1.8771  3.3545  4.5416
18112THY    HP348870   3.932   2.554   1.702  0.4347 -2.6870 -1.3923
18112THY    HP448871   3.778   2.616   1.746  0.7944  1.0648 -0.5716
18112THY    CP348872   3.621   2.471   1.576 -0.1120  0.7907 -0.5647
18112THY    HP548873   3.614   2.499   1.470 -0.8427  0.8426 -0.5248
18112THY    HP648874   3.583   2.568   1.612 -3.2718 -0.5243 -1.1823
18112THY    HP748875   3.557   2.389   1.609 -1.7433 -1.3560 -0.2415
18112THY    CA348876   3.749   2.354   1.845  0.0649 -0.3849 -0.1962
18112THY    HA348877   3.709   2.449   1.880 -1.0910 -1.6811 -0.1764
18112THY    CA448878   3.755   2.247   1.935 -0.2099  0.4145  0.3186
18112THY    HA448879   3.713   2.254   2.034  1.4393  1.0959  1.3338
18112THY    CA548880   3.803   2.124   1.893 -0.7604 -1.1657  0.6130
18112THY    CM148881   3.813   2.003   1.979 -0.2325 -0.4039 -0.5170
18112THY    HM148882   3.715   1.987   2.025 -0.6058 -1.3589 -1.0325
18112THY    HM248883   3.876   2.024   2.067 -0.7886 -0.2545  0.5319
18112THY    HM348884   3.852   1.913   1.930  0.6943  1.1986 -1.0336
18112THY    CA648885   3.844   2.108   1.765  0.6117  0.0667  0.7966
18112THY    HA648886   3.872   2.009   1.731 -1.7071  0.7659 -0.1562
18113THY      O48887   3.894   0.950   2.248  0.0718 -0.7117  0.1123
18113THY     HO48888   3.938   0.864   2.254 -0.0715 -0.7155  0.0386
18113THY    CA148889   3.765   0.916   2.249  0.1176  0.3859 -0.1475
18113THY    CA248890   3.658   1.007   2.265 -0.3577  0.3411  0.1105
18113THY    CP148891   3.678   1.162   2.271 -0.0530  0.4542 -0.3771
18113THY    HP148892   3.774   1.196   2.231 -0.9036  0.0546  1.7504
18113THY    CP248893   3.659   1.225   2.408  0.3974 -0.2669 -0.7967
18113THY    HP248894   3.699   1.162   2.488 -1.0357 -1.5139 -3.4731
18113THY    HP348895   3.553   1.208   2.430  0.3111 -0.0261 -0.0128
18113THY    HP448896   3.667   1.334   2.417  1.1037  1.0347 -0.9318
18113THY    CP348897   3.580   1.238   2.184  0.8437  1.3152  0.2934
18113THY    HP548898   3.481   1.250   2.229 -0.3627 -1.0270 -0.1144
18113THY    HP648899   3.572   1.180   2.091  0.1229  2.4597 -1.5212
18113THY    HP748900   3.618   1.339   2.162 -1.1098  1.7949  1.1962
18113THY    CA348901   3.525   0.950   2.273 -0.2517  0.0523 -0.2533
18113THY    HA348902   3.445   1.022   2.285  0.2621 -1.8748  0.7142
18113THY    CA448903   3.503   0.814   2.256 -0.8001 -0.8061 -0.2282
18113THY    HA448904   3.399   0.784   2.263 -1.0084  0.5841  0.7135
18113THY    CA548905   3.607   0.726   2.236 -0.1690 -0.4646 -0.6226
18113THY    CM148906   3.584   0.573   2.224  0.3716 -0.4165 -0.3022
18113THY    HM148907   3.599   0.547   2.330 -2.0837  0.2480  0.7019
18113THY    HM248908   3.653   0.523   2.155  0.1295 -1.8100  1.2008
18113THY    HM348909   3.480   0.555   2.196 -0.1153 -1.2018  2.9902
18113THY    CA648910   3.738   0.776   2.245 -0.2444  0.2609  0.6676
18113THY    HA648911   3.816   0.701   2.255 -0.6854  0.1952  0.1913
18114THY      O48912   2.047   4.930   4.247  0.3391  0.4170  0.2111
18114THY     HO48913   2.071   4.967   4.333 -1.6958  3.1679 -4.0789
18114THY    CA148914   2.118   5.003   4.155  0.3869  0.5836  1.3576
18114THY    CA248915   2.110   4.975   4.015 -0.2339 -0.0144  0.3065
18114THY    CP148916   2.040   4.851   3.966 -0.0891  0.8347  0.4971
18114THY    HP148917   2.027   4.776   4.045  0.1029  0.5567  0.1701
18114THY    CP248918   2.103   4.767   3.859 -0.5696 -0.2611  0.5097
18114THY    HP248919   2.206   4.740   3.887 -0.8804 -0.2858 -0.7910
18114THY    HP348920   2.112   4.822   3.765  2.0763 -0.5404 -0.2945
18114THY    HP448921   2.045   4.675   3.844 -0.6341  2.0966  0.0971
18114THY    CP348922   1.905   4.888   3.920 -0.0740 -0.5547  0.3087
18114THY    HP548923   1.910   4.930   3.819  0.5937 -1.4153 -1.7460
18114THY    HP648924   1.872   4.958   3.999 -0.0566  0.8312 -1.1846
18114THY    HP748925   1.841   4.800   3.910 -0.7850 -0.0578  0.7482
18114THY    CA348926   2.194   5.056   3.928  0.0157 -0.0181 -0.7065
18114THY    HA348927   2.203   5.026   3.823  0.0852 -0.4853  0.8857
18114THY    CA448928   2.249   5.180   3.969  0.7434  0.1978  0.2478
18114THY    HA448929   2.293   5.248   3.897 -0.6600  0.3198  1.3319
18114THY    CA548930   2.239   5.211   4.105 -0.1745  0.0363  0.0919
18114THY    CM148931   2.304   5.347   4.156 -0.2961  0.9653 -0.2370
18114THY    HM148932   2.343   5.393   4.064 -4.3947 -0.9113 -0.0413
18114THY    HM248933   2.380   5.346   4.234  1.9618 -1.0429 -2.8903
18114THY    HM348934   2.219   5.404   4.197 -1.3347 -1.5771  0.1990
18114THY    CA648935   2.183   5.120   4.196 -0.2547  0.3651  0.3059
18114THY    HA648936   2.169   5.146   4.301 -2.4971  0.6450 -1.6359
18115THY      O48937   4.258   6.476   2.330  0.9108 -0.3066  0.1083
18115THY     HO48938   4.207   6.507   2.253  0.2329  0.0935 -0.0040
18115THY    CA148939   4.332   6.584   2.366 -0.2584  0.2910  0.4534
18115THY    CA248940   4.393   6.589   2.494  0.5501 -0.0101  0.2947
18115THY    CP148941   4.395   6.460   2.580  1.1634  0.0220 -0.1809
18115THY    HP148942   4.381   6.367   2.524 -1.6012  2.2031 -1.2227
18115THY    CP248943   4.270   6.470   2.678  0.4082  0.5225  0.3500
18115THY    HP248944   4.172   6.484   2.631 -1.1131  3.8586  2.0071
18115THY    HP348945   4.285   6.550   2.751 -0.2041  0.2539  0.7162
18115THY    HP448946   4.266   6.370   2.724 -1.2071  0.9724  0.5813
18115THY    CP348947   4.520   6.430   2.656 -0.5648 -0.3125  0.4067
18115THY    HP548948   4.522   6.334   2.709 -0.3404 -1.0214  0.0080
18115THY    HP648949   4.543   6.512   2.725  0.0920  1.3559 -1.1198
18115THY    HP748950   4.605   6.432   2.586 -1.2273 -1.2722 -1.8426
18115THY    CA348951   4.476   6.705   2.522 -0.1010 -0.1413  0.2850
18115THY    HA348952   4.541   6.703   2.608 -1.1812  0.6866 -0.8242
18115THY    CA448953   4.491   6.808   2.428 -0.0175  0.5391 -0.5314
18115THY    HA448954   4.555   6.895   2.437 -1.6430 -0.0438  0.7788
18115THY    CA548955   4.420   6.799   2.305 -0.9727 -0.9569  0.0584
18115THY    CM148956   4.440   6.910   2.205  0.1978 -1.2984 -0.0513
18115THY    HM148957   4.494   6.994   2.249  1.0691 -1.0129 -0.7509
18115THY    HM248958   4.342   6.941   2.166 -0.0015 -2.0720 -1.5779
18115THY    HM348959   4.492   6.864   2.120 -0.3467 -0.3490 -2.5704
18115THY    CA648960   4.341   6.692   2.273  0.2411  0.0553  0.5659
18115THY    HA648961   4.297   6.682   2.174  0.8535 -0.4456  2.5019
18116THY      O48962   7.806   4.843   5.584  0.1765 -0.5328 -0.3378
18116THY     HO48963   7.834   4.927   5.543 -1.2615  0.9362  0.9402
18116THY    CA148964   7.841   4.745   5.505  0.0133  0.3606  0.2953
18116THY    CA248965   7.753   4.651   5.448  0.5961 -0.0666  0.0731
18116THY    CP148966   7.602   4.677   5.453  0.3736 -0.0844 -0.0654
18116THY    HP148967   7.594   4.781   5.487 -0.6126  1.5630 -0.6470
18116THY    CP248968   7.537   4.585   5.562  0.1431 -1.4674  0.0664
18116THY    HP248969   7.435   4.561   5.533 -0.7168  1.3114 -0.0190
18116THY    HP348970   7.535   4.643   5.655 -0.2469 -1.4720  0.0590
18116THY    HP448971   7.592   4.492   5.581 -1.4202 -2.1483 -1.0374
18116THY    CP348972   7.524   4.655   5.321 -0.0801 -0.8167  0.0726
18116THY    HP548973   7.476   4.557   5.308 -1.3078 -0.8783  0.6676
18116THY    HP648974   7.588   4.684   5.237  1.3695 -0.3450 -1.5586
18116THY    HP748975   7.435   4.719   5.325 -0.0712  2.6132  0.0765
18116THY    CA348976   7.804   4.540   5.380 -0.0651 -0.1885 -0.6360
18116THY    HA348977   7.736   4.467   5.337 -0.5212  0.8256 -0.8255
18116THY    CA448978   7.941   4.538   5.359 -0.4411 -0.4339  0.4803
18116THY    HA448979   7.974   4.455   5.296 -1.3751 -0.5871  0.2025
18116THY    CA548980   8.024   4.632   5.414 -0.7804  0.4784 -0.6621
18116THY    CM148981   8.175   4.619   5.400  0.9673 -0.4411 -0.3365
18116THY    HM148982   8.219   4.582   5.493  0.5314 -0.0702  0.0824
18116THY    HM248983   8.228   4.712   5.376 -0.7350  0.0468  0.7909
18116THY    HM348984   8.188   4.540   5.324  0.0946 -1.8818  0.8525
18116THY    CA648985   7.980   4.732   5.486  0.1067 -0.3460  0.6719
18116THY    HA648986   8.054   4.795   5.533  2.8591 -0.7270 -2.0207
18117THY      O48987   5.848   2.314   5.418  0.6528  0.0022 -0.4915
18117THY     HO48988   5.931   2.330   5.370 -0.2034 -1.1858  0.5680
18117THY    CA148989   5.884   2.248   5.533  0.5976  0.3764  0.2849
18117THY    CA248990   5.795   2.157   5.607 -0.5478  0.2843 -0.8803
18117THY    CP148991   5.649   2.155   5.588  0.4680  0.0551  0.2299
18117THY    HP148992   5.611   2.230   5.518  0.7230  0.5245  0.7979
18117THY    CP248993   5.575   2.156   5.723 -0.4472  1.2358 -0.5826
18117THY    HP248994   5.479   2.203   5.700  0.6635  0.7703  1.5548
18117THY    HP348995   5.627   2.217   5.797 -0.7012  1.7373 -0.9670
18117THY    HP448996   5.563   2.054   5.761 -1.4294 -0.2845 -1.0693
18117THY    CP348997   5.615   2.018   5.525 -0.1331  0.1044  0.1369
18117THY    HP548998   5.675   1.937   5.567 -0.6979  0.3945 -0.1369
18117THY    HP648999   5.645   2.036   5.421  2.2190  0.8156  0.7234
18117THY    HP749000   5.508   1.995   5.525 -0.4321  0.4615  1.4421
18117THY    CA349001   5.858   2.076   5.701  0.4753 -0.0160  0.2810
18117THY    HA349002   5.803   2.005   5.762 -3.3890 -2.2005  1.0861
18117THY    CA449003   5.992   2.084   5.730  0.6144  0.3254 -0.0027
18117THY    HA449004   6.041   2.027   5.808  1.1766  0.9908  1.3498
18117THY    CA549005   6.070   2.171   5.658  0.0131  0.1154  0.5869
18117THY    CM149006   6.215   2.178   5.683 -0.0834  0.1886  0.2526
18117THY    HM149007   6.242   2.279   5.715  1.0290  0.3661 -0.0890
18117THY    HM249008   6.267   2.167   5.587 -2.7388 -1.5521  1.6967
18117THY    HM349009   6.263   2.097   5.738  0.7494 -1.4804 -0.4509
18117THY    CA649010   6.023   2.245   5.554  0.3667  0.1069  0.3480
18117THY    HA649011   6.087   2.303   5.488  0.1175  0.5141  1.0940
18118THY      O49012   0.833   4.896   7.450 -0.3571  0.1143  0.4962
18118THY     HO49013   0.771   4.822   7.462  1.3992  2.2052 -0.8007
18118THY    CA149014   0.833   4.960   7.567 -0.3448  0.2981 -0.6084
18118THY    CA249015   0.960   5.011   7.611  0.5359 -0.2012  0.5055
18118THY    CP149016   1.084   5.011   7.519  0.1983 -0.4174  0.1158
18118THY    HP149017   1.051   5.016   7.414  2.1942 -1.0864  0.0425
18118THY    CP249018   1.148   4.878   7.515  0.5146 -0.1503 -0.2958
18118THY    HP249019   1.075   4.797   7.524  0.7517 -0.2230 -0.5183
18118THY    HP349020   1.225   4.864   7.591  0.5913  0.0666  1.1178
18118THY    HP449021   1.186   4.851   7.415  2.5105  0.4655  0.0698
18118THY    CP349022   1.184   5.123   7.541 -0.1034  0.2728  0.1109
18118THY    HP549023   1.135   5.220   7.534 -1.5010  0.0672 -0.5853
18118THY    HP649024   1.267   5.116   7.469 -1.7824 -1.6143 -1.7559
18118THY    HP749025   1.225   5.121   7.643 -1.7048  0.9597  1.1196
18118THY    CA349026   0.967   5.058   7.750 -0.1722  0.1457  0.3163
18118THY    HA349027   1.059   5.101   7.789  0.4271 -2.3531  1.4980
18118THY    CA449028   0.847   5.066   7.824 -0.6558  0.8761  0.2711
18118THY    HA449029   0.853   5.126   7.914 -1.9510  0.4082  1.1410
18118THY    CA549030   0.729   5.006   7.773  0.3325  0.3522 -0.6224
18118THY    CM149031   0.602   5.001   7.854 -0.0547  0.2255 -0.5631
18118THY    HM149032   0.622   5.033   7.957 -0.7866 -0.0775  0.9929
18118THY    HM249033   0.561   4.900   7.861  1.2961  0.1265 -1.1344
18118THY    HM349034   0.525   5.061   7.802 -0.0331  0.2761 -0.4913
18118THY    CA649035   0.720   4.956   7.646  0.5383  0.4905  0.0507
18118THY    HA649036   0.623   4.919   7.614 -0.2970  1.9757  0.8501
18119THY      O49037   5.371   4.454   6.278  0.0206  0.2322 -0.1380
18119THY     HO49038   5.369   4.358   6.291 -0.5770  1.8432  0.0633
18119THY    CA149039   5.368   4.502   6.400  0.8985 -0.0615  0.2055
18119THY    CA249040   5.432   4.616   6.441 -0.5549  0.2664  0.2823
18119THY    CP149041   5.527   4.692   6.340  0.1172  0.7687 -0.0662
18119THY    HP149042   5.524   4.657   6.236  2.2602  0.6840 -0.1020
18119THY    CP249043   5.674   4.682   6.383 -0.0334  0.3000  0.1728
18119THY    HP249044   5.701   4.579   6.408  0.8590 -0.3158  0.2480
18119THY    HP349045   5.691   4.747   6.469  0.9660 -0.7513  1.3501
18119THY    HP449046   5.738   4.715   6.301  0.2507  1.1398  1.7868
18119THY    CP349047   5.484   4.838   6.326 -0.9385 -0.0374  0.5070
18119THY    HP549048   5.377   4.839   6.301 -1.5989  2.5655  0.2753
18119THY    HP649049   5.533   4.896   6.246 -2.2802 -1.3960 -0.1507
18119THY    HP749050   5.490   4.890   6.422  1.5872 -0.3304  0.8772
18119THY    CA349051   5.409   4.650   6.578  1.1946 -0.0129  0.0485
18119THY    HA349052   5.463   4.739   6.609 -0.3482  1.2353  0.5913
18119THY    CA449053   5.324   4.583   6.666 -0.2538 -0.4145  0.1657
18119THY    HA449054   5.305   4.624   6.764  2.5250 -0.7121  2.5372
18119THY    CA549055   5.260   4.471   6.621 -0.4122  0.5328  0.3283
18119THY    CM149056   5.168   4.400   6.703 -0.0432 -0.4330  0.2362
18119THY    HM149057   5.215   4.317   6.758  0.4639  0.0925  0.8637
18119THY    HM249058   5.078   4.362   6.652  0.4771 -1.1068 -0.1178
18119THY    HM349059   5.132   4.468   6.781 -0.5794 -0.0030 -0.5195
18119THY    CA649060   5.285   4.430   6.488  0.5149  1.1716 -0.7388
18119THY    HA649061   5.228   4.348   6.446 -0.4081  0.8350  0.0598
18120THY      O49062   0.878   8.329   5.558 -0.0060 -0.0174  0.6048
18120THY     HO49063   0.944   8.262   5.580 -0.7513  0.3362 -0.0288
18120THY    CA149064   0.947   8.442   5.529  0.6468 -0.2590 -0.0044
18120THY    CA249065   0.893   8.564   5.551  0.1121  0.6086  0.3862
18120THY    CP149066   0.754   8.589   5.613 -0.3965  0.0553  0.0128
18120THY    HP149067   0.694   8.497   5.606  1.5225 -1.4631 -1.2072
18120THY    CP249068   0.672   8.697   5.540 -0.1089  0.2200  0.2504
18120THY    HP249069   0.651   8.659   5.440 -0.2203  0.3506 -0.0320
18120THY    HP349070   0.725   8.792   5.527 -2.8729 -2.3405  1.6172
18120THY    HP449071   0.575   8.712   5.590  0.0558  1.6620 -2.8226
18120THY    CP349072   0.759   8.633   5.760  0.5727  0.5761 -0.1050
18120THY    HP549073   0.817   8.562   5.820  0.0943  1.5379  0.3039
18120THY    HP649074   0.660   8.647   5.804  0.6760  0.0876  2.5240
18120THY    HP749075   0.807   8.731   5.760  1.9545  1.9948 -0.7422
18120THY    CA349076   0.981   8.675   5.534 -0.3390  0.3584 -0.1381
18120THY    HA349077   0.953   8.776   5.563  0.0732 -2.0036  0.7034
18120THY    CA449078   1.113   8.655   5.487  1.2018  1.0777 -0.2953
18120THY    HA449079   1.175   8.744   5.478 -0.9924 -1.1114  1.1210
18120THY    CA549080   1.153   8.525   5.461  0.1084  0.0436 -0.0660
18120THY    CM149081   1.302   8.498   5.427 -0.0661  0.3921  0.1272
18120THY    HM149082   1.363   8.465   5.512  0.0899  0.1369 -0.2409
18120THY    HM249083   1.342   8.591   5.385  1.4215 -2.4082 -1.6409
18120THY    HM349084   1.314   8.422   5.349 -0.2381  0.7796 -0.3026
18120THY    CA649085   1.077   8.421   5.478  0.0376 -0.3079  0.1776
18120THY    HA649086   1.110   8.326   5.436 -0.4344  0.9504 -0.5814
18121THY      O49087   2.834   7.092   6.092 -0.2328  0.1390 -0.1590
18121THY     HO49088   2.926   7.063   6.100 -0.5807 -2.9025 -2.5947
18121THY    CA149089   2.795   7.058   5.965 -0.2618  0.0463 -0.0423
18121THY    CA249090   2.659   7.054   5.924 -0.0038 -0.5268 -0.3087
18121THY    CP149091   2.547   7.098   6.026 -0.6632  0.2177  0.6009
18121THY    HP149092   2.598   7.141   6.113 -0.7919  0.7342 -0.2736
18121THY    CP249093   2.485   6.970   6.091 -0.6157  0.1121 -0.5845
18121THY    HP249094   2.568   6.910   6.130  0.0972 -0.6420 -0.0978
18121THY    HP349095   2.427   6.911   6.020 -2.9406  2.1304 -0.9146
18121THY    HP449096   2.419   6.998   6.174  0.8038  0.8507  0.7488
18121THY    CP349097   2.448   7.189   5.969  0.2767 -0.1302 -0.1733
18121THY    HP549098   2.372   7.217   6.043 -1.1326 -1.1628 -1.1148
18121THY    HP649099   2.392   7.151   5.882 -1.5064  1.0568 -0.3894
18121THY    HP749100   2.499   7.284   5.947  0.2307  1.1106  0.1512
18121THY    CA349101   2.624   7.019   5.794 -0.2111  0.1023 -0.3254
18121THY    HA349102   2.520   7.010   5.762  0.0274 -0.6728 -0.4074
18121THY    CA449103   2.727   7.014   5.702 -0.4259 -0.6285  0.6045
18121THY    HA449104   2.694   6.993   5.601 -2.3761  0.2196 -0.6603
18121THY    CA549105   2.862   7.019   5.735 -0.1937 -0.8630 -0.3974
18121THY    CM149106   2.969   7.001   5.633  0.8591  0.2754  0.1238
18121THY    HM149107   2.943   6.936   5.548  0.1720 -0.9329  1.9112
18121THY    HM249108   3.051   6.948   5.684 -0.2277  0.6455 -1.2704
18121THY    HM349109   2.999   7.102   5.602 -2.8777  0.1017  1.2967
18121THY    CA649110   2.895   7.044   5.870 -0.1362  1.3118 -0.2163
18121THY    HA649111   2.998   7.035   5.902  0.7452 -1.4543 -1.0238
18122THY      O49112   2.191   3.536   3.610  0.2740 -0.6852 -0.0434
18122THY     HO49113   2.124   3.597   3.643  0.7092  0.1290 -0.0018
18122THY    CA149114   2.291   3.615   3.564 -0.3029 -0.4708 -0.3058
18122THY    CA249115   2.359   3.589   3.449  0.7737 -0.4305 -1.2957
18122THY    CP149116   2.335   3.469   3.367  0.3168  0.5329  0.6358
18122THY    HP149117   2.262   3.403   3.415  0.0773  1.4037  1.5036
18122THY    CP249118   2.464   3.405   3.331 -0.1600 -0.6677 -0.2688
18122THY    HP249119   2.446   3.300   3.307 -1.2852  1.6618 -0.6642
18122THY    HP349120   2.527   3.396   3.420  1.7203 -1.7903  0.9003
18122THY    HP449121   2.516   3.455   3.248  0.6628  0.5502  0.9867
18122THY    CP349122   2.273   3.517   3.235  0.5751  0.1284 -0.0567
18122THY    HP549123   2.332   3.599   3.192  0.2649  1.8904  1.1483
18122THY    HP649124   2.175   3.563   3.255  0.3209  0.2199 -0.6210
18122THY    HP749125   2.260   3.437   3.161  0.4527  0.2215 -0.1229
18122THY    CA349126   2.466   3.680   3.411 -0.0478 -0.4537 -0.0515
18122THY    HA349127   2.526   3.653   3.324  3.2785  1.2985  1.1343
18122THY    CA449128   2.500   3.789   3.498  0.4477 -0.2096 -0.0745
18122THY    HA449129   2.569   3.867   3.467 -1.8818 -0.8382  1.8696
18122THY    CA549130   2.415   3.820   3.604  0.2108  0.0176 -0.0351
18122THY    CM149131   2.440   3.943   3.693 -0.3183  0.1241 -0.2258
18122THY    HM149132   2.424   3.932   3.801 -0.5941  0.0436 -0.6148
18122THY    HM249133   2.354   4.005   3.665 -0.2890 -0.2234 -0.3419
18122THY    HM349134   2.532   3.999   3.668 -0.9480  1.0196  1.2598
18122THY    CA649135   2.311   3.735   3.640 -0.5199 -0.1676  0.8580
18122THY    HA649136   2.244   3.756   3.723  1.1526  0.7319  2.9718
18123THY      O49137   8.169   0.567   5.821 -0.0569  0.2953 -0.3153
18123THY     HO49138   8.098   0.633   5.817  2.0854 -1.1407  2.1167
18123THY    CA149139   8.165   0.481   5.720  0.4809  0.9838 -0.1514
18123THY    CA249140   8.250   0.365   5.719  1.0016  0.6129  0.0138
18123THY    CP149141   8.349   0.335   5.835  0.3800 -0.2676 -0.2522
18123THY    HP149142   8.305   0.383   5.924  0.1597 -1.2556  1.4918
18123THY    CP249143   8.480   0.403   5.804  0.3914  0.2211  0.2406
18123THY    HP249144   8.466   0.501   5.758 -1.4319 -0.4645 -0.3008
18123THY    HP349145   8.529   0.333   5.735  0.4300 -0.1269  0.6069
18123THY    HP449146   8.546   0.403   5.892  1.3935 -0.5229  0.1973
18123THY    CP349147   8.369   0.190   5.871 -0.3364 -0.2547  0.0784
18123THY    HP549148   8.270   0.144   5.881 -0.1452  2.1602  0.0408
18123THY    HP649149   8.425   0.179   5.965  0.5279 -0.7672  0.0332
18123THY    HP749150   8.411   0.126   5.793 -0.9923 -0.7209  0.2099
18123THY    CA349151   8.232   0.277   5.609  0.4640  0.7100  0.2858
18123THY    HA349152   8.291   0.187   5.601  1.1408 -1.4405  0.8484
18123THY    CA449153   8.145   0.309   5.500  0.0341  0.3360 -0.1713
18123THY    HA449154   8.118   0.237   5.423 -2.6503  1.4628 -0.4793
18123THY    CA549155   8.074   0.432   5.501  0.2565  0.3118 -0.4157
18123THY    CM149156   7.982   0.464   5.388  0.0206  0.0966 -0.0464
18123THY    HM149157   7.982   0.574   5.378  1.0681  4.7134  0.5578
18123THY    HM249158   7.878   0.447   5.418 -0.3459  0.6756  2.6822
18123THY    HM349159   8.008   0.410   5.296 -0.3487  0.7202 -1.3266
18123THY    CA649160   8.080   0.520   5.607 -0.0000 -0.1995  0.9665
18123THY    HA649161   8.011   0.604   5.606  1.3008 -1.6877  2.0806
18124THY      O49162   3.823   8.981   5.678 -0.5444  0.0843 -0.2329
18124THY     HO49163   3.847   8.893   5.644 -0.6811 -0.3000 -0.1259
18124THY    CA149164   3.869   9.082   5.594  0.1818 -0.6383 -0.3944
18124THY    CA249165   3.800   9.119   5.479 -0.5507 -0.2217 -0.5707
18124THY    CP149166   3.675   9.041   5.436  0.1918  0.0703  0.2474
18124THY    HP149167   3.677   8.934   5.461 -1.9860 -0.2860  0.0643
18124THY    CP249168   3.633   9.050   5.288 -0.1368  0.2550 -0.3569
18124THY    HP249169   3.538   8.995   5.280 -1.5169  0.0470  1.9307
18124THY    HP349170   3.701   9.002   5.216  2.3649  0.8794  2.0622
18124THY    HP449171   3.626   9.151   5.245 -0.9370 -1.2746 -1.0165
18124THY    CP349172   3.552   9.095   5.515  0.5603  0.9981 -0.0229
18124THY    HP549173   3.459   9.047   5.484  1.1151  2.7757 -2.4250
18124THY    HP649174   3.549   9.204   5.506 -1.4365 -0.8780 -0.1785
18124THY    HP749175   3.560   9.072   5.622 -1.5624  1.3714  0.7934
18124THY    CA349176   3.847   9.226   5.402  0.5313  0.6217  0.6070
18124THY    HA349177   3.788   9.259   5.317 -0.6740  1.5311  0.9071
18124THY    CA449178   3.955   9.300   5.447 -1.2482 -0.4648 -0.0864
18124THY    HA449179   4.004   9.369   5.379  2.1013  0.0312 -1.7394
18124THY    CA549180   4.017   9.266   5.565  0.1195 -0.1194  0.5405
18124THY    CM149181   4.130   9.346   5.621  0.1969 -0.3220  0.3463
18124THY    HM149182   4.177   9.407   5.544 -1.5569 -1.0669  0.8120
18124THY    HM249183   4.202   9.284   5.675  3.5011 -1.2707  3.0439
18124THY    HM349184   4.104   9.416   5.701 -1.7191  0.1845 -0.8689
18124THY    CA649185   3.976   9.153   5.644 -0.0498  0.8427  0.2409
18124THY    HA649186   4.034   9.127   5.732  0.1517 -0.2011 -3.4919
18125THY      O49187   3.977   4.708   5.051  0.0873 -0.3645  0.6210
18125THY     HO49188   3.989   4.800   5.022 -1.9657  2.1700  1.8211
18125THY    CA149189   4.041   4.637   4.952  0.2318 -0.1262 -0.0161
18125THY    CA249190   4.001   4.502   4.925 -1.0835  0.3500 -0.1235
18125THY    CP149191   3.909   4.414   5.010  0.4831  0.0544 -0.0125
18125THY    HP149192   3.831   4.474   5.058  0.6993 -0.0682  0.3669
18125THY    CP249193   3.991   4.332   5.113 -0.6796 -0.3959  0.6787
18125THY    HP249194   4.062   4.395   5.168 -1.2027  0.2268  0.7344
18125THY    HP349195   4.052   4.260   5.057 -1.1608  0.8085 -0.7112
18125THY    HP449196   3.922   4.283   5.182  0.0118 -0.3321 -0.2321
18125THY    CP349197   3.815   4.313   4.933 -0.2198 -0.2247  0.0937
18125THY    HP549198   3.871   4.259   4.856 -0.1518 -0.6628  0.7742
18125THY    HP649199   3.742   4.372   4.877  0.2240 -2.4972 -1.3531
18125THY    HP749200   3.767   4.234   4.992  1.4474 -1.8906 -2.3084
18125THY    CA349201   4.058   4.434   4.808 -0.1300  0.7039 -0.3907
18125THY    HA349202   4.043   4.328   4.791  0.2607 -0.5282 -0.2589
18125THY    CA449203   4.138   4.508   4.720  0.4102  0.3020 -0.2624
18125THY    HA449204   4.187   4.457   4.638  2.0294  1.1917 -0.2157
18125THY    CA549205   4.169   4.643   4.752  0.1547 -0.4331  0.2960
18125THY    CM149206   4.256   4.728   4.663 -0.2265  0.6907 -0.4539
18125THY    HM149207   4.317   4.657   4.607  0.7247  1.1676 -0.0314
18125THY    HM249208   4.329   4.779   4.727 -1.1149  1.3636 -0.0078
18125THY    HM349209   4.193   4.797   4.605  2.1765  0.0082  1.3283
18125THY    CA649210   4.119   4.706   4.872 -0.0619  0.0037 -0.0619
18125THY    HA649211   4.156   4.806   4.894 -0.5102  0.1325  0.0779
18126THY      O49212   3.066   6.215   2.321 -0.3848  0.1066 -0.0683
18126THY     HO49213   3.027   6.304   2.330  1.5877  2.9701  0.6592
18126THY    CA149214   3.085   6.180   2.453  0.9371  0.7954 -0.0817
18126THY    CA249215   2.975   6.116   2.529 -0.2324  0.3343  0.1013
18126THY    CP149216   2.838   6.122   2.472 -0.1581 -1.0584 -0.5276
18126THY    HP149217   2.825   6.199   2.395 -2.4557  1.1599  1.4678
18126THY    CP249218   2.730   6.139   2.577  0.1953 -1.0605  0.1386
18126THY    HP249219   2.715   6.041   2.625 -1.7513 -1.1385  0.3582
18126THY    HP349220   2.634   6.181   2.543 -2.2335  2.5872 -1.8872
18126THY    HP449221   2.768   6.211   2.650 -0.7893  1.7617 -1.9825
18126THY    CP349222   2.807   5.981   2.398  0.7356 -0.7557  0.0103
18126THY    HP549223   2.871   5.976   2.309  2.6239  0.5630 -0.1283
18126THY    HP649224   2.700   5.991   2.376  0.8167 -1.3683 -0.4113
18126THY    HP749225   2.836   5.900   2.466  1.8322  0.8510  1.6765
18126THY    CA349226   3.000   6.063   2.651  0.3500  0.0433 -0.0894
18126THY    HA349227   2.923   6.024   2.717  1.4829  0.9071 -0.9364
18126THY    CA449228   3.129   6.076   2.700  0.1678 -0.1568 -0.5185
18126THY    HA449229   3.146   6.045   2.803  0.2663  0.5397  1.6256
18126THY    CA549230   3.234   6.137   2.632  0.3393  0.3287 -0.8044
18126THY    CM149231   3.372   6.147   2.678 -0.0410  0.0160 -0.4180
18126THY    HM149232   3.387   6.114   2.781 -1.3695  0.5373  0.5390
18126THY    HM249233   3.408   6.250   2.683 -0.3187 -0.3878 -0.2984
18126THY    HM349234   3.434   6.081   2.615 -1.7758 -1.3705 -0.8038
18126THY    CA649235   3.211   6.177   2.502 -0.1819  0.0637  0.1530
18126THY    HA649236   3.295   6.221   2.449 -0.5815  0.7592  1.8462
18127THY      O49237   2.549   3.510   4.590  0.3231 -0.1474  0.1857
18127THY     HO49238   2.575   3.550   4.675 -2.8194 -0.1861  2.7593
18127THY    CA149239   2.595   3.389   4.582 -0.4560 -0.3627 -0.3783
18127THY    CA249240   2.601   3.319   4.460  0.4802  0.3902 -0.4466
18127THY    CP149241   2.559   3.386   4.332  0.1678 -0.0225  0.4646
18127THY    HP149242   2.500   3.478   4.340  1.1719 -2.6283  1.4573
18127THY    CP249243   2.476   3.289   4.249  0.3388 -0.9885 -0.1879
18127THY    HP249244   2.416   3.234   4.323  2.3279  1.6182  0.9041
18127THY    HP349245   2.534   3.217   4.190 -2.7286 -2.3097 -1.7808
18127THY    HP449246   2.411   3.349   4.184  0.7746 -1.3310 -0.0821
18127THY    CP349247   2.676   3.439   4.249 -0.4462 -0.3671  0.4923
18127THY    HP549248   2.736   3.369   4.190 -0.6447 -1.4611  1.2193
18127THY    HP649249   2.744   3.502   4.308  0.0214 -1.5183  1.1039
18127THY    HP749250   2.634   3.520   4.187 -0.1804  0.6430  1.4244
18127THY    CA349251   2.654   3.188   4.468  0.5587  0.0067  0.2259
18127THY    HA349252   2.675   3.134   4.376  0.7211  1.1825 -1.8270
18127THY    CA449253   2.696   3.141   4.590  0.5190 -0.4812  0.4473
18127THY    HA449254   2.736   3.040   4.598 -0.6413 -0.5740 -0.0316
18127THY    CA549255   2.679   3.207   4.711 -0.2908 -0.0929  0.7892
18127THY    CM149256   2.710   3.138   4.843 -0.3001 -0.2674  0.3821
18127THY    HM149257   2.818   3.136   4.862 -0.4772  0.8842  0.7979
18127THY    HM249258   2.672   3.035   4.852 -2.6150  4.2555  1.3476
18127THY    HM349259   2.670   3.194   4.929 -1.8399  1.3732 -2.9241
18127THY    CA649260   2.622   3.333   4.705  0.0559 -0.3187  0.4420
18127THY    HA649261   2.599   3.384   4.798 -1.5464 -0.3716 -0.1187
18128THY      O49262   7.638   4.270   3.335 -0.5629 -0.5159  0.1396
18128THY     HO49263   7.588   4.352   3.353 -0.9890  1.7478 -0.5733
18128THY    CA149264   7.755   4.308   3.294  0.0545  0.2774  0.1850
18128THY    CA249265   7.856   4.209   3.253 -0.2710  0.8695  0.0711
18128THY    CP149266   7.830   4.061   3.252 -0.5210 -0.1134  0.1319
18128THY    HP149267   7.772   4.030   3.339 -1.3676 -1.1178 -1.2602
18128THY    CP249268   7.955   3.975   3.262 -0.2337  0.3873  0.2483
18128THY    HP249269   7.931   3.873   3.295  0.3281  2.0933  0.6361
18128THY    HP349270   8.026   4.018   3.334 -0.3499  2.4723 -2.7162
18128THY    HP449271   8.009   3.950   3.170 -2.0657 -0.9825  1.1825
18128THY    CP349272   7.737   4.024   3.142 -0.0327  0.8778 -0.7643
18128THY    HP549273   7.656   4.097   3.143  0.8670  0.3613  0.2797
18128THY    HP649274   7.689   3.928   3.163 -0.0515  1.0950 -0.7073
18128THY    HP749275   7.783   4.032   3.042  0.1398  1.0028 -0.1971
18128THY    CA349276   7.976   4.258   3.206 -0.3052  0.1543  0.4179
18128THY    HA349277   8.056   4.197   3.166 -0.5448  0.7011 -0.2685
18128THY    CA449278   8.002   4.394   3.188  0.1206  0.2389 -0.5592
18128THY    HA449279   8.095   4.421   3.141  0.8481  1.6224 -0.5551
18128THY    CA549280   7.907   4.489   3.229  0.2830  1.2072  1.6080
18128THY    CM149281   7.933   4.631   3.219  0.0015 -0.7405  0.3544
18128THY    HM149282   7.866   4.686   3.287 -1.3731 -2.4572  0.8821
18128THY    HM249283   7.898   4.673   3.124 -0.5675 -0.6350  0.1252
18128THY    HM349284   8.035   4.655   3.250 -0.1935  0.3250 -0.1083
18128THY    CA649285   7.780   4.446   3.276 -0.0917 -0.0315 -0.2408
18128THY    HA649286   7.702   4.521   3.283 -0.1274  0.1043 -0.2905
18129THY      O49287   5.137   0.071   4.243  0.0502  0.1312 -0.2806
18129THY     HO49288   5.085   0.032   4.171 -3.6515  2.0917  0.5647
18129THY    CA149289   5.076   0.194   4.275  0.2911 -0.6538  0.5689
18129THY    CA249290   5.141   0.286   4.358  0.1593 -0.2216  0.4092
18129THY    CP149291   5.270   0.240   4.428  0.0719  0.7500 -0.2669
18129THY    HP149292   5.330   0.193   4.349 -0.2126 -0.1784  0.8802
18129THY    CP249293   5.248   0.138   4.535 -0.0526 -0.1906 -0.5621
18129THY    HP249294   5.343   0.106   4.578  0.3033 -0.0940  0.5803
18129THY    HP349295   5.192   0.046   4.514  1.9651  0.5008 -2.0198
18129THY    HP449296   5.196   0.184   4.620  0.3836  0.5050 -1.3348
18129THY    CP349297   5.352   0.353   4.493  0.0371 -0.6999 -0.0135
18129THY    HP549298   5.440   0.315   4.546 -0.5763  0.2514 -0.1566
18129THY    HP649299   5.290   0.409   4.565 -0.7117  0.3040 -2.0043
18129THY    HP749300   5.395   0.413   4.413  1.3546 -1.4612 -1.8695
18129THY    CA349301   5.079   0.412   4.376 -0.6950  0.7047  0.5341
18129THY    HA349302   5.112   0.481   4.453 -1.5000  2.2813 -0.7457
18129THY    CA449303   4.961   0.444   4.311  0.5183 -0.2592  0.2822
18129THY    HA449304   4.908   0.532   4.347 -0.3543  0.4131 -0.5020
18129THY    CA549305   4.895   0.353   4.231 -0.0901  0.0363  0.0213
18129THY    CM149306   4.756   0.380   4.171  0.2055 -0.0589 -0.1942
18129THY    HM149307   4.758   0.469   4.108  1.6450  0.7757  0.4069
18129THY    HM249308   4.672   0.385   4.242 -1.9734 -2.4557 -0.7528
18129THY    HM349309   4.733   0.302   4.097  1.0435 -2.4865  1.7486
18129THY    CA649310   4.952   0.224   4.212  0.0108 -0.2029  0.5302
18129THY    HA649311   4.897   0.156   4.148 -0.9295  1.3865 -0.2591
18130THY      O49312   6.902   3.930   2.481 -0.0525  0.2870 -0.0622
18130THY     HO49313   6.941   4.018   2.497  0.6305  1.7842 -0.6103
18130THY    CA149314   6.910   3.878   2.607  0.5254 -1.1139  0.0035
18130THY    CA249315   6.908   3.737   2.631 -0.1463 -0.7353 -0.6387
18130THY    CP149316   6.866   3.630   2.530 -0.6231  0.4129 -0.4213
18130THY    HP149317   6.826   3.680   2.440  1.2651  1.1697  2.7482
18130THY    CP249318   6.761   3.537   2.581 -0.3584 -1.2815 -0.1912
18130THY    HP249319   6.796   3.460   2.651 -1.2056  1.6627  1.9635
18130THY    HP349320   6.736   3.467   2.501 -0.3681 -0.5356 -1.0591
18130THY    HP449321   6.685   3.593   2.635  0.9256  0.4230 -0.0053
18130THY    CP349322   6.985   3.554   2.474 -0.2659  0.0105  0.4497
18130THY    HP549323   7.042   3.515   2.559 -0.4218  0.4218  1.0924
18130THY    HP649324   7.048   3.624   2.418 -1.4038 -1.4484  0.3731
18130THY    HP749325   6.957   3.475   2.403  1.7893  0.3271 -0.6140
18130THY    CA349326   6.943   3.689   2.761  0.8666  0.6995 -0.1052
18130THY    HA349327   6.944   3.581   2.771  0.0896  0.5302 -0.1363
18130THY    CA449328   6.966   3.777   2.862  0.1835  0.0246  0.7048
18130THY    HA449329   6.981   3.742   2.963  0.2585 -0.1283  0.2845
18130THY    CA549330   6.963   3.916   2.835  0.2125 -0.1969  0.2137
18130THY    CM149331   7.028   4.016   2.930 -0.4781 -0.7151  0.0116
18130THY    HM149332   7.089   3.953   2.995 -0.4022  0.4936  1.2779
18130THY    HM249333   6.960   4.070   2.998  0.4382  0.8894 -0.7920
18130THY    HM349334   7.083   4.096   2.879  0.1606  0.3372  0.2764
18130THY    CA649335   6.945   3.968   2.707  0.6215  0.6159 -0.1643
18130THY    HA649336   6.950   4.076   2.695  1.1495  0.2162 -0.2296
18131THY      O49337   2.543   1.262   3.691  0.3829  0.1671 -0.0336
18131THY     HO49338   2.592   1.325   3.746  2.7996 -2.2682  0.3985
18131THY    CA149339   2.537   1.308   3.562  0.3373  0.2181 -0.0034
18131THY    CA249340   2.473   1.239   3.456 -0.0325 -0.0710  0.6291
18131THY    CP149341   2.413   1.102   3.486 -0.0738  0.2735  0.2480
18131THY    HP149342   2.415   1.090   3.595 -0.0270  0.0448 -2.4379
18131THY    CP249343   2.494   0.992   3.411 -0.1707  0.7968  0.2254
18131THY    HP249344   2.594   0.975   3.453  0.5058 -0.7620  0.1836
18131THY    HP349345   2.511   1.008   3.304 -5.7490 -0.3324  0.5715
18131THY    HP449346   2.430   0.904   3.414 -0.9895 -1.4455  0.6742
18131THY    CP349347   2.264   1.097   3.454 -0.4079  0.2877 -0.1341
18131THY    HP549348   2.243   1.085   3.347  0.1453 -0.1284  2.1843
18131THY    HP649349   2.206   1.182   3.493 -3.0189 -0.3122 -1.5102
18131THY    HP749350   2.218   1.009   3.501 -1.4120 -0.1141  0.1533
18131THY    CA349351   2.475   1.290   3.328 -0.2500 -0.3026  0.8027
18131THY    HA349352   2.449   1.226   3.245 -1.0333 -1.6928  2.8107
18131THY    CA449353   2.542   1.415   3.305 -0.7999  0.0590 -0.4038
18131THY    HA449354   2.563   1.447   3.203 -1.9544  0.1217  0.6406
18131THY    CA549355   2.593   1.487   3.409  0.1378  0.7676 -0.0065
18131THY    CM149356   2.649   1.628   3.375  0.3269 -0.1413  0.0698
18131THY    HM149357   2.698   1.669   3.464 -0.4645  0.6156 -0.5846
18131THY    HM249358   2.574   1.706   3.360  0.7556  0.1267  0.5387
18131THY    HM349359   2.722   1.629   3.293 -1.1976 -1.5644 -0.1578
18131THY    CA649360   2.588   1.435   3.540  0.2014 -0.0455  0.2614
18131THY    HA649361   2.630   1.491   3.623 -3.5237  1.4198  1.2243
18132THY      O49362   2.754   8.679   5.991 -0.3599 -0.3112  0.0788
18132THY     HO49363   2.753   8.750   6.059 -1.6859  0.8036 -0.9558
18132THY    CA149364   2.774   8.733   5.863  0.3679  0.3709 -0.0674
18132THY    CA249365   2.775   8.650   5.751 -0.3295  1.1866  0.9487
18132THY    CP149366   2.750   8.501   5.765  0.5041  0.0809  0.4338
18132THY    HP149367   2.695   8.486   5.859  0.2981 -0.2152 -0.7764
18132THY    CP249368   2.880   8.415   5.774 -0.7329  0.5326  0.8233
18132THY    HP249369   2.957   8.468   5.831 -0.2547  0.6136  0.0557
18132THY    HP349370   2.923   8.421   5.673 -1.6640  0.0680 -0.0454
18132THY    HP449371   2.867   8.314   5.814  0.0640  2.5969  1.4992
18132THY    CP349372   2.649   8.444   5.659  0.3204 -0.5947  0.2438
18132THY    HP549373   2.559   8.506   5.647  0.5435 -0.2706  0.6335
18132THY    HP649374   2.625   8.338   5.676 -0.8891 -2.2251  0.2169
18132THY    HP749375   2.687   8.457   5.557  0.3943 -0.5841  0.1154
18132THY    CA349376   2.806   8.708   5.624 -0.3925  0.0952 -0.8618
18132THY    HA349377   2.812   8.648   5.533  1.3410 -0.0694 -0.4909
18132THY    CA449378   2.829   8.848   5.616  0.2237  0.0782  0.0073
18132THY    HA449379   2.862   8.889   5.521 -0.0618 -0.0993 -0.1706
18132THY    CA549380   2.838   8.928   5.734 -0.4589  0.5807 -0.2289
18132THY    CM149381   2.896   9.077   5.722  0.7697 -0.2427  0.4708
18132THY    HM149382   2.848   9.134   5.642 -0.6158  0.2484  0.0621
18132THY    HM249383   3.003   9.071   5.703  0.8767  0.4629  0.0434
18132THY    HM349384   2.884   9.124   5.820 -0.7748  0.0239 -0.3936
18132THY    CA649385   2.803   8.875   5.858  0.5041  0.3356  0.9942
18132THY    HA649386   2.812   8.934   5.949  1.5109  0.3732  0.7903
18133THY      O49387   2.146   4.657   4.751  0.5298  0.0402 -0.1705
18133THY     HO49388   2.228   4.707   4.742  0.6010 -0.0089 -0.2942
18133THY    CA149389   2.119   4.613   4.628 -0.5744  0.5439 -0.2887
18133THY    CA249390   1.990   4.567   4.603 -0.7123  0.5575 -0.0887
18133THY    CP149391   1.887   4.552   4.707  1.3144 -0.4787  0.4450
18133THY    HP149392   1.943   4.520   4.796  0.7407 -0.0290  0.6626
18133THY    CP249393   1.779   4.449   4.681  0.4341  0.4936 -0.3473
18133THY    HP249394   1.832   4.358   4.652  2.3058  0.3212  0.7483
18133THY    HP349395   1.699   4.464   4.609 -0.9614  1.8211 -1.0900
18133THY    HP449396   1.745   4.428   4.784  2.0659  0.8868 -1.3130
18133THY    CP349397   1.817   4.688   4.721 -0.3795 -0.1527 -0.4956
18133THY    HP549398   1.893   4.757   4.761 -1.2085  0.2278  0.2117
18133THY    HP649399   1.734   4.680   4.791 -0.2333  0.4941  2.4174
18133THY    HP749400   1.778   4.726   4.626 -0.9959  1.4176  3.2531
18133THY    CA349401   1.975   4.533   4.460  0.4849  0.1182  0.6892
18133THY    HA349402   1.883   4.488   4.423  0.5823  0.9142 -0.1813
18133THY    CA449403   2.068   4.562   4.364  0.3358  0.3428  0.1010
18133THY    HA449404   2.046   4.546   4.259 -1.4207  0.4756  1.3074
18133THY    CA549405   2.194   4.609   4.400  0.6442 -0.0423 -0.0208
18133THY    CM149406   2.300   4.619   4.302  0.2954 -0.2773 -0.7825
18133THY    HM149407   2.366   4.532   4.307  1.4709  0.5236  0.1213
18133THY    HM249408   2.372   4.699   4.326  0.5841 -0.5595 -0.9555
18133THY    HM349409   2.259   4.639   4.202  0.0643  0.2724  1.8256
18133THY    CA649410   2.222   4.634   4.531  0.1517 -0.5193  0.2384
18133THY    HA649411   2.323   4.662   4.558 -0.2932  1.6185 -0.0503
18134THY      O49412   3.696   1.773   6.532  0.3464 -0.9631  0.0743
18134THY     HO49413   3.648   1.846   6.490  1.2290  1.4777  2.2015
18134THY    CA149414   3.720   1.808   6.658  0.4755  1.1110 -0.0293
18134THY    CA249415   3.767   1.720   6.754  0.1272 -0.2514  1.1845
18134THY    CP149416   3.779   1.570   6.710 -0.1556 -0.2143  0.1246
18134THY    HP149417   3.797   1.558   6.602 -0.9941 -0.3838  0.3859
18134THY    CP249418   3.637   1.509   6.731  1.0884 -0.1368  0.4961
18134THY    HP249419   3.639   1.409   6.686 -1.0125  3.3282 -1.2923
18134THY    HP349420   3.563   1.572   6.682 -1.1307  3.0761  0.6102
18134THY    HP449421   3.620   1.504   6.839 -1.8156 -0.5658 -0.4740
18134THY    CP349422   3.891   1.492   6.764 -0.2592  0.7080  0.1679
18134THY    HP549423   3.984   1.520   6.712  0.4939  0.2260 -2.8532
18134THY    HP649424   3.868   1.389   6.734  1.5218  0.1013 -0.0975
18134THY    HP749425   3.901   1.513   6.871  1.3736  0.3795  1.3279
18134THY    CA349426   3.773   1.763   6.890 -0.9970  0.3807  0.8196
18134THY    HA349427   3.784   1.696   6.975 -1.8325  0.7999  1.2048
18134THY    CA449428   3.749   1.900   6.919 -0.6222 -0.6798 -0.3904
18134THY    HA449429   3.755   1.944   7.018  1.6295 -0.9958  0.1354
18134THY    CA549430   3.725   1.991   6.817 -0.3251 -0.3475  0.4104
18134THY    CM149431   3.729   2.136   6.841  0.1435 -0.3444  0.2049
18134THY    HM149432   3.780   2.181   6.755 -0.7215 -0.9460  0.0592
18134THY    HM249433   3.783   2.172   6.929  0.5975 -0.6679  0.3154
18134THY    HM349434   3.631   2.185   6.847 -0.5642  1.6776 -1.3192
18134THY    CA649435   3.708   1.945   6.685  0.3912  0.2366 -1.2001
18134THY    HA649436   3.684   2.020   6.610 -0.0029  0.5781 -0.9826
18135THY      O49437   2.469   5.602   3.124 -0.0435 -0.3246  0.9914
18135THY     HO49438   2.543   5.665   3.131  0.8649  5.4526 -0.0831
18135THY    CA149439   2.444   5.567   2.996  0.2076 -0.2637 -0.0183
18135THY    CA249440   2.424   5.431   2.952  0.3536 -0.7837 -0.0992
18135THY    CP149441   2.434   5.316   3.054 -0.9953 -0.0568  0.3619
18135THY    HP149442   2.478   5.357   3.146 -0.2184  0.0971 -0.7754
18135THY    CP249443   2.528   5.200   3.000 -0.5517  0.8337 -0.6137
18135THY    HP249444   2.630   5.234   2.978 -0.5616  0.0321 -1.0873
18135THY    HP349445   2.493   5.139   2.916  1.0036  0.4456 -1.0223
18135THY    HP449446   2.549   5.140   3.090  1.6245  1.3426  0.7894
18135THY    CP349447   2.298   5.261   3.087  0.0488 -0.0002  0.7737
18135THY    HP549448   2.218   5.336   3.089 -0.6443 -1.7852  0.1334
18135THY    HP649449   2.291   5.190   3.170  0.0004  0.8267  1.7225
18135THY    HP749450   2.260   5.196   3.007 -2.7500  1.7823  0.0142
18135THY    CA349451   2.394   5.410   2.813  1.1345  0.3275  0.4888
18135THY    HA349452   2.369   5.311   2.776 -0.1963  3.2988 -0.4135
18135THY    CA449453   2.391   5.513   2.729 -0.6444  0.9362 -0.2433
18135THY    HA449454   2.385   5.499   2.622  3.1761  0.4457  0.7036
18135THY    CA549455   2.408   5.643   2.773  0.1649  0.4679 -1.3151
18135THY    CM149456   2.401   5.759   2.685  0.3288  0.2338  0.4797
18135THY    HM149457   2.346   5.731   2.594  0.5839  0.4232 -0.6927
18135THY    HM249458   2.508   5.772   2.664  0.4210  1.3996  1.8745
18135THY    HM349459   2.372   5.858   2.723 -1.7307 -1.0232  0.4293
18135THY    CA649460   2.436   5.668   2.904  0.2815  0.1196 -0.7452
18135THY    HA649461   2.447   5.771   2.938 -1.7435 -0.8310 -0.1623
18136THY      O49462   7.037   4.991   7.433  0.4067 -0.6273 -0.0100
18136THY     HO49463   6.985   4.950   7.362 -0.4766 -0.2398  0.4007
18136THY    CA149464   7.062   5.126   7.394  0.1125  0.1895  0.6955
18136THY    CA249465   7.091   5.228   7.489 -0.1811 -0.1790 -0.1698
18136THY    CP149466   7.109   5.187   7.635  0.3098 -0.3589  0.9254
18136THY    HP149467   7.108   5.079   7.654 -0.4760 -0.4377  0.9097
18136THY    CP249468   7.004   5.256   7.724 -0.6123 -0.2220  0.6117
18136THY    HP249469   7.004   5.365   7.727 -1.0751  1.0378  0.5861
18136THY    HP349470   7.015   5.211   7.823 -1.8608 -0.4627 -0.3057
18136THY    HP449471   6.903   5.224   7.695 -0.2239 -0.3099 -0.5881
18136THY    CP349472   7.247   5.226   7.698 -0.2207 -0.2050  0.6586
18136THY    HP549473   7.283   5.328   7.676 -0.5768  1.4766  1.1828
18136THY    HP649474   7.320   5.157   7.656  0.5353  0.9260  0.7345
18136THY    HP749475   7.255   5.209   7.806 -1.7971 -0.3731 -1.6144
18136THY    CA349476   7.111   5.361   7.441 -0.1594  0.1895 -0.1652
18136THY    HA349477   7.129   5.433   7.521  0.6940  0.6690 -0.8949
18136THY    CA449478   7.107   5.391   7.306 -0.3022 -0.3374 -0.4547
18136THY    HA449479   7.137   5.491   7.276  2.0287  0.7301 -0.7526
18136THY    CA549480   7.079   5.296   7.215 -0.0976  0.6828  0.4133
18136THY    CM149481   7.078   5.320   7.070  0.8950  0.5036  0.3759
18136THY    HM149482   6.971   5.302   7.051 -0.0450  4.5757  0.5904
18136THY    HM249483   7.156   5.253   7.033 -0.6805  0.6573 -1.6504
18136THY    HM349484   7.094   5.424   7.042  0.2488  2.3406  1.0232
18136THY    CA649485   7.064   5.162   7.261 -0.2998 -0.3995  0.1244
18136THY    HA649486   7.044   5.080   7.192  0.1167  1.0766 -1.2646
18137THY      O49487   5.192   3.220   4.812 -0.3448  0.0898 -0.1327
18137THY     HO49488   5.279   3.263   4.815 -0.5422 -0.6690  0.3302
18137THY    CA149489   5.174   3.177   4.686 -0.1009 -0.1616 -0.9092
18137THY    CA249490   5.130   3.052   4.643  0.8566 -1.2144  0.7182
18137THY    CP149491   5.119   2.943   4.756  0.2936  0.0689 -0.5972
18137THY    HP149492   5.189   2.962   4.838  0.8457 -0.6250  0.4626
18137THY    CP249493   5.159   2.797   4.719 -0.0834  0.4684  0.2211
18137THY    HP249494   5.264   2.795   4.686 -0.4001 -0.5686 -0.7353
18137THY    HP349495   5.084   2.748   4.656 -0.8012  0.9799  0.6528
18137THY    HP449496   5.164   2.740   4.813  4.7015  0.2117 -0.1844
18137THY    CP349497   4.975   2.958   4.807  0.0714 -0.4370  0.9088
18137THY    HP549498   4.896   2.945   4.732  0.7444 -1.0272  0.0586
18137THY    HP649499   4.960   3.058   4.849  2.1890 -0.0032  1.1092
18137THY    HP749500   4.953   2.881   4.882 -0.6263 -1.8443 -0.3196
18137THY    CA349501   5.116   3.013   4.509  0.0561  0.7244 -0.0974
18137THY    HA349502   5.087   2.913   4.479 -1.1898  2.6604 -0.3731
18137THY    CA449503   5.133   3.117   4.415 -0.2244 -0.5437 -0.2781
18137THY    HA449504   5.109   3.088   4.313 -2.2014  0.7112 -3.7400
18137THY    CA549505   5.185   3.243   4.452  0.0270  0.1982  0.0140
18137THY    CM149506   5.211   3.334   4.340 -0.1433  0.1903  0.2074
18137THY    HM149507   5.212   3.286   4.241  0.8607 -1.0824  2.6232
18137THY    HM249508   5.308   3.383   4.355  0.4472 -0.6526 -0.6751
18137THY    HM349509   5.135   3.413   4.336 -0.5800  0.5029 -0.1978
18137THY    CA649510   5.202   3.271   4.592 -0.0149  0.4206 -0.2134
18137THY    HA649511   5.233   3.369   4.629  1.2327  0.2266 -0.5109
18138THY      O49512   8.250   4.770   4.021 -0.1298  0.0849 -0.1327
18138THY     HO49513   8.305   4.835   3.976  1.5217  0.8625 -0.9407
18138THY    CA149514   8.174   4.702   3.929 -0.6044  0.2813  0.1587
18138THY    CA249515   8.178   4.564   3.913  0.3958  0.3779  0.6843
18138THY    CP149516   8.273   4.472   4.002 -0.3149 -0.1236 -0.6369
18138THY    HP149517   8.322   4.530   4.081  2.4560 -3.1025  1.4378
18138THY    CP249518   8.376   4.397   3.920  0.3822 -0.3301 -0.7238
18138THY    HP249519   8.340   4.333   3.838  0.2926 -1.2462  0.4631
18138THY    HP349520   8.453   4.349   3.980  1.5264  0.9619  2.4579
18138THY    HP449521   8.438   4.473   3.872 -1.0028  0.9367  1.3165
18138THY    CP349522   8.188   4.375   4.080  0.2685 -0.0668 -0.4594
18138THY    HP549523   8.114   4.424   4.144 -1.8495 -2.1903 -0.6766
18138THY    HP649524   8.248   4.327   4.158  0.1411 -0.3926 -1.1608
18138THY    HP749525   8.144   4.295   4.018 -0.0870  0.6832 -0.8545
18138THY    CA349526   8.102   4.506   3.812  0.4690  0.3547 -0.1337
18138THY    HA349527   8.098   4.398   3.801  0.6928  1.3344 -0.2603
18138THY    CA449528   8.043   4.582   3.723  0.3885  0.6636 -0.5112
18138THY    HA449529   7.995   4.541   3.634  2.9924 -1.7127  1.1820
18138THY    CA549530   8.047   4.718   3.727 -0.3649 -0.7194 -0.5139
18138THY    CM149531   7.971   4.797   3.622 -0.0486  0.4339  0.0455
18138THY    HM149532   7.864   4.775   3.628 -0.0945  1.5392  0.5421
18138THY    HM249533   7.998   4.776   3.518  1.1113  0.4826  1.1819
18138THY    HM349534   7.987   4.902   3.647  0.5013 -0.5750  0.2128
18138THY    CA649535   8.102   4.781   3.843 -0.6027 -0.1570 -0.0780
18138THY    HA649536   8.115   4.889   3.844  1.7376  3.1367 -0.2115
18139THY      O49537   3.755   2.183   3.553  0.3142 -0.3103  0.1598
18139THY     HO49538   3.716   2.094   3.546  2.0268  2.4649 -0.9437
18139THY    CA149539   3.876   2.160   3.497 -0.0102 -0.6229 -0.3876
18139THY    CA249540   3.943   2.260   3.427  0.2107  0.9431 -0.1813
18139THY    CP149541   3.882   2.403   3.418  0.8253 -0.0798  0.2282
18139THY    HP149542   3.827   2.432   3.508  0.4931  0.6054 -2.2471
18139THY    CP249543   3.803   2.426   3.286  0.4123  0.0024 -1.0394
18139THY    HP249544   3.705   2.376   3.278 -0.6507 -0.6890  1.0492
18139THY    HP349545   3.859   2.391   3.199  2.9700  0.1511  2.2397
18139THY    HP449546   3.798   2.534   3.267  0.6186 -2.2088 -1.3730
18139THY    CP349547   3.998   2.500   3.415 -1.0623  0.7455 -0.4652
18139THY    HP549548   4.080   2.463   3.477 -0.8866 -0.0416 -1.4362
18139THY    HP649549   3.966   2.598   3.453 -1.7821  0.7386 -0.6887
18139THY    HP749550   4.035   2.516   3.313 -2.7446  0.1577 -0.0767
18139THY    CA349551   4.064   2.226   3.356  0.2961 -0.4668 -0.3346
18139THY    HA349552   4.120   2.308   3.314  0.0880  3.9614  2.4021
18139THY    CA449553   4.114   2.091   3.358  0.3759  0.1111 -1.1779
18139THY    HA449554   4.203   2.068   3.300  0.1848 -1.8026  2.2143
18139THY    CA549555   4.040   1.994   3.430  0.6224 -0.3119  0.3518
18139THY    CM149556   4.089   1.854   3.430 -0.1528 -0.0566  0.7944
18139THY    HM149557   4.123   1.822   3.529  1.1979 -0.9558 -0.6997
18139THY    HM249558   4.175   1.849   3.362 -0.1280  0.0682 -2.2337
18139THY    HM349559   4.005   1.797   3.389 -0.0880  1.0542 -0.1281
18139THY    CA649560   3.927   2.033   3.498 -0.0709 -0.9589 -0.8475
18139THY    HA649561   3.871   1.953   3.546 -0.1649  0.4268  0.0153
18140THY      O49562   2.005   4.371   3.091  0.0543 -0.2058 -0.1180
18140THY     HO49563   2.046   4.316   3.022  0.6405  0.9517 -1.1732
18140THY    CA149564   1.993   4.290   3.199 -0.2983 -0.1220 -0.0452
18140THY    CA249565   1.877   4.270   3.273  0.8866 -0.9162  0.6613
18140THY    CP149566   1.743   4.320   3.220 -0.1568 -0.4745 -0.1541
18140THY    HP149567   1.748   4.364   3.119 -1.0282 -0.8251 -0.8104
18140THY    CP249568   1.693   4.435   3.303  0.6425 -0.2950  0.0782
18140THY    HP249569   1.770   4.510   3.324 -0.8612 -0.0044  1.5977
18140THY    HP349570   1.666   4.395   3.402  3.1753  0.4454  0.0336
18140THY    HP449571   1.605   4.491   3.268  0.8177 -1.5039 -0.3841
18140THY    CP349572   1.631   4.216   3.209  0.5477 -0.4006  0.3955
18140THY    HP549573   1.659   4.132   3.145 -3.3936 -1.5754 -0.2439
18140THY    HP649574   1.546   4.262   3.158 -0.3102  0.6796  0.0558
18140THY    HP749575   1.596   4.172   3.304  0.1198 -0.8705 -0.3009
18140THY    CA349576   1.874   4.188   3.389 -0.3199 -0.1525 -0.4824
18140THY    HA349577   1.777   4.178   3.436  0.1752  1.1992  0.6815
18140THY    CA449578   1.989   4.130   3.431 -0.1548 -0.3387 -1.0188
18140THY    HA449579   1.974   4.075   3.523  0.3626 -0.4703 -1.3860
18140THY    CA549580   2.106   4.146   3.357 -0.4066  0.0247 -0.0101
18140THY    CM149581   2.239   4.097   3.412 -0.2741  0.4857 -0.1524
18140THY    HM149582   2.325   4.092   3.344 -1.0910 -0.4832 -1.5616
18140THY    HM249583   2.232   3.992   3.445 -2.4251 -0.3851 -0.3277
18140THY    HM349584   2.260   4.145   3.509  0.7084  1.5989 -2.6508
18140THY    CA649585   2.109   4.233   3.240 -0.9366  0.1776  0.7359
18140THY    HA649586   2.201   4.253   3.186 -1.2175 -0.6230 -0.0868
18141THY      O49587   0.315   6.750   4.830  0.2074 -0.1140  0.8151
18141THY     HO49588   0.234   6.702   4.807 -1.6922 -0.6713  4.0322
18141THY    CA149589   0.365   6.695   4.947  0.8982 -0.0904  0.2696
18141THY    CA249590   0.441   6.768   5.040  0.1632 -0.2917 -0.3309
18141THY    CP149591   0.497   6.906   5.010  0.6758  0.0848 -0.0441
18141THY    HP149592   0.446   6.945   4.921 -0.1305  0.8855  0.7790
18141THY    CP249593   0.641   6.881   4.978  0.4443 -0.2179  0.6618
18141THY    HP249594   0.640   6.810   4.894 -0.0812  0.2879  0.0621
18141THY    HP349595   0.688   6.832   5.063 -0.9303  0.2030  0.0171
18141THY    HP449596   0.689   6.971   4.937 -0.2203 -1.3239  0.5381
18141THY    CP349597   0.469   7.007   5.125 -0.8240 -0.2042  0.0701
18141THY    HP549598   0.530   6.984   5.213 -0.3805 -0.5011  0.1078
18141THY    HP649599   0.364   7.001   5.157 -1.1631 -0.3949  3.3884
18141THY    HP749600   0.483   7.111   5.094 -1.6694 -0.8139  0.0110
18141THY    CA349601   0.480   6.701   5.163  0.0169 -0.6003 -0.5569
18141THY    HA349602   0.528   6.757   5.243 -3.3349  0.6165  0.8173
18141THY    CA449603   0.445   6.570   5.186  0.4614  0.6731 -0.6361
18141THY    HA449604   0.489   6.526   5.275  1.5281  0.8073  0.6240
18141THY    CA549605   0.367   6.500   5.094 -0.5672  0.1722  0.2216
18141THY    CM149606   0.338   6.350   5.120 -0.7971  0.1561 -0.1402
18141THY    HM149607   0.362   6.310   5.219 -3.6526  0.9256 -0.1954
18141THY    HM249608   0.401   6.295   5.049  0.0688  1.0415 -0.3041
18141THY    HM349609   0.231   6.330   5.108 -1.2100  1.1811  1.2706
18141THY    CA649610   0.321   6.567   4.982  0.0695  0.0896  0.3928
18141THY    HA649611   0.260   6.513   4.909  0.0953  0.2959  0.0805
18142THY      O49612   3.265   7.749   4.974 -0.1198  0.6717 -0.0127
18142THY     HO49613   3.298   7.829   4.931 -1.5910 -1.5365 -0.5165
18142THY    CA149614   3.205   7.678   4.872  0.2617 -0.2494 -0.3817
18142THY    CA249615   3.206   7.535   4.869  0.2944 -0.1659 -0.3512
18142THY    CP149616   3.280   7.443   4.970  0.3721  1.0322 -0.1367
18142THY    HP149617   3.321   7.496   5.057 -0.6300  2.5437 -1.7428
18142THY    CP249618   3.403   7.374   4.909  0.3818  0.3096 -0.2456
18142THY    HP249619   3.380   7.317   4.819 -0.2321 -1.4839  2.5968
18142THY    HP349620   3.452   7.311   4.984 -0.4274  2.8751  1.9707
18142THY    HP449621   3.471   7.455   4.878  0.7076 -1.9692 -1.3179
18142THY    CP349622   3.176   7.340   5.030  0.0862  0.5969  0.4055
18142THY    HP549623   3.084   7.398   5.042  0.8747  0.0491  1.8250
18142THY    HP649624   3.223   7.311   5.125  1.3196 -0.4756 -1.3224
18142THY    HP749625   3.150   7.256   4.965  0.0429  0.7152  0.3276
18142THY    CA349626   3.131   7.480   4.764  0.5016 -0.4669  0.4084
18142THY    HA349627   3.131   7.372   4.757  1.5829  0.7809  0.2973
18142THY    CA449628   3.061   7.565   4.668 -0.3977  0.4144  0.2758
18142THY    HA449629   3.003   7.508   4.596  0.6357  0.2464 -0.6199
18142THY    CA549630   3.065   7.703   4.675 -0.1365 -0.2015 -0.0835
18142THY    CM149631   2.984   7.781   4.580  0.4359 -0.7681 -0.7999
18142THY    HM149632   2.875   7.769   4.585  0.4672 -2.0537 -1.9392
18142THY    HM249633   3.011   7.760   4.475  0.0352 -1.0096 -0.1341
18142THY    HM349634   3.001   7.889   4.586 -3.4257 -1.0693 -0.0468
18142THY    CA649635   3.146   7.761   4.771  0.4150  0.5735 -0.0623
18142THY    HA649636   3.148   7.869   4.766  1.0702 -3.7158 -0.1290
18143THY      O49637   1.546   5.241   2.422  0.0948  0.1968  0.2704
18143THY     HO49638   1.461   5.198   2.443 -1.8555 -1.9609  2.7585
18143THY    CA149639   1.536   5.262   2.288  0.3588 -0.0128  0.2498
18143THY    CA249640   1.641   5.324   2.214  0.0835 -0.4642 -0.0745
18143THY    CP149641   1.768   5.361   2.291 -0.4334 -0.1132  0.5256
18143THY    HP149642   1.767   5.350   2.400  2.0227 -0.0264  0.6760
18143THY    CP249643   1.823   5.502   2.272  0.0666 -0.2591 -0.3076
18143THY    HP249644   1.888   5.518   2.358 -0.5737 -0.1877  2.4322
18143THY    HP349645   1.738   5.569   2.288 -3.0692 -0.4514 -3.8813
18143THY    HP449646   1.865   5.519   2.172  0.8062 -0.5004 -3.1132
18143THY    CP349647   1.883   5.272   2.246 -0.5531  0.4324 -0.2167
18143THY    HP549648   1.933   5.303   2.153  1.8099  1.7771  0.2226
18143THY    HP649649   1.834   5.176   2.224  1.3930 -0.2051 -1.1175
18143THY    HP749650   1.955   5.266   2.329 -0.7515  0.5409 -1.1958
18143THY    CA349651   1.630   5.337   2.075 -0.2840 -0.1714 -0.4477
18143THY    HA349652   1.710   5.389   2.023 -0.7048 -1.4598 -1.0486
18143THY    CA449653   1.515   5.289   2.010 -0.4084  0.3124  0.3939
18143THY    HA449654   1.500   5.305   1.904 -2.8126  0.2040 -1.9847
18143THY    CA549655   1.411   5.233   2.084 -0.0006  0.1325 -0.2884
18143THY    CM149656   1.283   5.181   2.025 -1.0042 -0.3937 -0.1081
18143THY    HM149657   1.218   5.143   2.105  1.1852  2.1291  1.1306
18143THY    HM249658   1.312   5.110   1.948 -0.8287  0.2533 -0.7457
18143THY    HM349659   1.232   5.258   1.966  0.8524 -1.0254  0.6804
18143THY    CA649660   1.425   5.222   2.222  0.6925 -0.3980  0.2754
18143THY    HA649661   1.350   5.172   2.283  2.2853 -0.9429 -3.0244
18144THY      O49662   3.623   1.946   6.329 -0.2553 -0.5022  0.2433
18144THY     HO49663   3.526   1.940   6.321 -0.4445  1.8723 -0.9687
18144THY    CA149664   3.653   2.051   6.256 -0.0551 -0.5548  0.0090
18144THY    CA249665   3.780   2.090   6.220 -0.5461  0.2025 -0.1780
18144THY    CP149666   3.902   2.015   6.270  0.2710 -0.0805  0.0246
18144THY    HP149667   3.877   1.912   6.301  1.7192 -0.9655 -0.6206
18144THY    CP249668   3.960   2.083   6.393 -0.0865 -0.1063  1.3159
18144THY    HP249669   4.021   2.006   6.443 -0.9308  0.1096  0.7662
18144THY    HP349670   3.887   2.103   6.472  0.7180  1.2256 -0.6475
18144THY    HP449671   4.004   2.179   6.366  1.3132  0.0844  0.7517
18144THY    CP349672   4.021   1.992   6.167  0.5014  0.2431 -0.5340
18144THY    HP549673   4.065   2.090   6.144 -0.9970  3.0995  0.9106
18144THY    HP649674   3.985   1.952   6.072  1.5827  0.2771 -1.6618
18144THY    HP749675   4.112   1.944   6.207  1.6321 -1.7190 -0.1669
18144THY    CA349676   3.798   2.202   6.138 -0.2520  0.4513 -0.0562
18144THY    HA349677   3.898   2.233   6.106 -1.0674 -2.5828 -0.1712
18144THY    CA449678   3.686   2.269   6.093 -0.3599 -0.1282 -0.1691
18144THY    HA449679   3.705   2.348   6.020  1.9883 -1.4927 -1.8533
18144THY    CA549680   3.559   2.233   6.134  0.2784 -0.2816  0.5179
18144THY    CM149681   3.445   2.315   6.094  0.3641  0.2951  0.2347
18144THY    HM149682   3.435   2.417   6.133 -2.8998 -2.0531  0.9818
18144THY    HM249683   3.358   2.258   6.127  0.4443 -0.3258 -0.2546
18144THY    HM349684   3.434   2.312   5.985  2.1052  0.0640  0.8584
18144THY    CA649685   3.540   2.124   6.217  0.6940 -0.6481  0.0961
18144THY    HA649686   3.442   2.113   6.265  0.6360 -0.5332  1.0483
18145THY      O49687   2.998   4.558   1.991  0.4566 -0.4342 -0.4561
18145THY     HO49688   3.002   4.627   2.059 -1.2487 -1.6386  0.9082
18145THY    CA149689   2.925   4.453   2.026  0.1373 -0.4345 -0.0851
18145THY    CA249690   2.882   4.356   1.934  0.5773  0.1140 -0.7776
18145THY    CP149691   2.911   4.377   1.781 -0.1740  0.2711  1.1142
18145THY    HP149692   2.922   4.483   1.757  0.1662 -1.9392  0.6307
18145THY    CP249693   2.815   4.323   1.670 -0.6247 -0.1781 -0.0383
18145THY    HP249694   2.714   4.355   1.699  0.1746  0.0383  2.5515
18145THY    HP349695   2.821   4.215   1.655  3.6748  1.0364 -0.1514
18145THY    HP449696   2.839   4.379   1.579 -0.1853  0.3847  0.7053
18145THY    CP349697   3.052   4.328   1.749  0.4835 -0.2023  0.2913
18145THY    HP549698   3.059   4.220   1.769  1.3209 -1.1018  0.1693
18145THY    HP649699   3.129   4.373   1.813  3.8067 -2.0344 -2.3640
18145THY    HP749700   3.071   4.351   1.644  0.0155 -0.5106 -0.6488
18145THY    CA349701   2.792   4.257   1.985 -0.5487  0.4522 -0.3650
18145THY    HA349702   2.764   4.175   1.918  2.2797  0.9772 -1.8866
18145THY    CA449703   2.750   4.254   2.119  0.0992 -0.2327  0.3648
18145THY    HA449704   2.684   4.175   2.154  0.5133  0.4925  0.3369
18145THY    CA549705   2.790   4.353   2.208  0.6049 -0.1623  0.1878
18145THY    CM149706   2.740   4.351   2.346  0.8774  0.3834 -0.3879
18145THY    HM149707   2.798   4.426   2.402  2.7777 -1.0312 -0.7293
18145THY    HM249708   2.761   4.259   2.400  1.7641 -1.5086 -1.3404
18145THY    HM349709   2.632   4.375   2.349  0.7931 -0.2839 -0.6811
18145THY    CA649710   2.885   4.445   2.157  0.4330 -0.7332  0.7258
18145THY    HA649711   2.903   4.522   2.230 -1.6265  0.3635  0.2439
18146THY      O49712   6.524   0.999   3.488  0.1299 -0.1495 -0.1324
18146THY     HO49713   6.532   1.080   3.434 -0.2817  0.6998  0.4922
18146THY    CA149714   6.386   0.996   3.511  0.3639  0.8144  0.2832
18146THY    CA249715   6.325   0.919   3.604 -0.2073  0.1557  0.0476
18146THY    CP149716   6.409   0.808   3.663 -0.5823 -0.1294 -0.0140
18146THY    HP149717   6.515   0.794   3.639 -0.6271 -0.4510  0.1890
18146THY    CP249718   6.351   0.662   3.635 -0.0914  0.0449  0.0755
18146THY    HP249719   6.295   0.645   3.542 -1.9044  1.0534  0.3039
18146THY    HP349720   6.273   0.638   3.708  0.5592  1.3830  1.8611
18146THY    HP449721   6.417   0.575   3.646 -0.6009 -0.5711 -0.3991
18146THY    CP349722   6.426   0.836   3.818  0.5811  0.0635 -0.3065
18146THY    HP549723   6.325   0.840   3.861  0.6103  0.0566  0.6368
18146THY    HP649724   6.465   0.937   3.833 -3.6476  0.0722  1.5528
18146THY    HP749725   6.496   0.768   3.868 -0.9669  1.3208 -1.0357
18146THY    CA349726   6.186   0.918   3.622  0.1374  0.5707 -0.1427
18146THY    HA349727   6.144   0.846   3.692  1.9953  1.3969 -0.4599
18146THY    CA449728   6.110   1.013   3.551  0.7526 -0.1752  0.2639
18146THY    HA449729   6.003   1.012   3.571  0.7086 -0.4118 -0.6010
18146THY    CA549730   6.177   1.105   3.463  1.1289 -0.6967  0.3073
18146THY    CM149731   6.103   1.207   3.390 -0.0081  0.3366 -0.7359
18146THY    HM149732   6.119   1.310   3.423 -3.0849  1.0356 -0.4062
18146THY    HM249733   5.998   1.189   3.415  0.6717  4.2663 -0.1576
18146THY    HM349734   6.127   1.202   3.283  0.1958  0.0908  2.9228
18146THY    CA649735   6.314   1.098   3.442 -0.5811 -0.2547  0.5347
18146THY    HA649736   6.362   1.167   3.374 -0.8052 -0.5171  0.4310
18147THY      O49737   1.824   3.983   4.882  0.5226  0.3179 -0.2663
18147THY     HO49738   1.800   3.954   4.971  0.4766  0.9506  1.5688
18147THY    CA149739   1.916   4.080   4.898  0.0568 -0.1620  0.8555
18147THY    CA249740   2.023   4.097   4.812 -0.2283 -0.3053  0.2535
18147THY    CP149741   2.031   4.002   4.686 -0.0461 -0.1308 -0.2572
18147THY    HP149742   1.954   3.924   4.686 -0.0658 -1.5112 -0.2674
18147THY    CP249743   2.165   3.939   4.687 -0.0868  0.2312 -0.4634
18147THY    HP249744   2.192   3.909   4.789 -1.1319  0.9287  0.8560
18147THY    HP349745   2.242   4.012   4.660 -0.0127 -0.7037 -0.8661
18147THY    HP449746   2.175   3.858   4.613 -2.1982 -1.3360  0.6040
18147THY    CP349747   2.020   4.096   4.564 -0.0018  0.0241 -0.0148
18147THY    HP549748   1.930   4.159   4.568  0.3474 -0.5620  0.5389
18147THY    HP649749   2.005   4.033   4.475  1.2477 -0.5932  0.5186
18147THY    HP749750   2.105   4.164   4.551 -0.3940  2.2219  0.9699
18147THY    CA349751   2.115   4.203   4.829 -0.2553 -0.4077  0.1664
18147THY    HA349752   2.206   4.214   4.771 -0.9160 -1.6563 -0.6743
18147THY    CA449753   2.099   4.294   4.935  0.0101  0.2133  0.6860
18147THY    HA449754   2.164   4.380   4.937 -0.6621 -0.4597  1.2216
18147THY    CA549755   1.976   4.287   5.011 -0.7883 -0.2084  0.3636
18147THY    CM149756   1.945   4.394   5.114 -0.1220  0.1167  0.0657
18147THY    HM149757   1.839   4.409   5.134  0.3502  1.7483  1.5290
18147THY    HM249758   1.976   4.489   5.070 -1.2651  1.3950  1.0611
18147THY    HM349759   2.007   4.386   5.205  1.7198 -1.0929 -0.1824
18147THY    CA649760   1.886   4.181   4.996  0.1732  0.3875 -0.0833
18147THY    HA649761   1.793   4.173   5.052  0.0605  0.0908 -0.9665
18148THY      O49762   5.775   6.771   6.911  0.1085 -0.3964 -0.7104
18148THY     HO49763   5.720   6.734   6.840 -0.2971 -1.4166  1.6336
18148THY    CA149764   5.742   6.905   6.905 -0.4740  0.2028 -0.1635
18148THY    CA249765   5.747   6.981   7.022  0.1459 -0.0928  0.4397
18148THY    CP149766   5.807   6.933   7.156  0.1204  0.3224  0.1301
18148THY    HP149767   5.864   6.843   7.130 -0.6348  0.3239 -0.3627
18148THY    CP249768   5.696   6.884   7.255 -0.4789 -0.0885  0.1996
18148THY    HP249769   5.632   6.821   7.194  0.7082  0.3618 -1.5125
18148THY    HP349770   5.642   6.964   7.307  1.9074  0.4380  1.5775
18148THY    HP449771   5.738   6.823   7.336  0.8319 -1.0045 -0.1584
18148THY    CP349772   5.906   7.029   7.222 -0.2659 -0.4146  0.3994
18148THY    HP549773   5.852   7.103   7.282  0.8963  0.0950  0.8475
18148THY    HP649774   5.966   7.091   7.154 -2.1767 -2.2224  0.3856
18148THY    HP749775   5.972   6.977   7.292 -0.8324  0.5330  0.9252
18148THY    CA349776   5.702   7.117   6.998  0.3923 -0.4649 -0.7050
18148THY    HA349777   5.698   7.177   7.088  0.8101 -0.2587 -0.9864
18148THY    CA449778   5.636   7.164   6.883  0.1008  0.0486 -0.4295
18148THY    HA449779   5.591   7.262   6.873  0.4730 -0.4218 -0.3040
18148THY    CA549780   5.631   7.086   6.772  0.3810  0.2320  0.4849
18148THY    CM149781   5.573   7.129   6.648 -0.1107 -0.5608 -0.3806
18148THY    HM149782   5.520   7.225   6.656 -1.9172 -2.0345 -1.1844
18148THY    HM249783   5.490   7.068   6.611 -1.2377  1.9078 -0.4956
18148THY    HM349784   5.656   7.133   6.578  1.3212  1.0190 -1.1997
18148THY    CA649785   5.692   6.959   6.777 -0.1513  0.0758 -0.4105
18148THY    HA649786   5.687   6.887   6.696 -0.1726  0.4858 -0.8767
18149THY      O49787   4.355   1.628   2.166  0.2450 -0.4369 -0.5225
18149THY     HO49788   4.280   1.618   2.228 -0.4176 -1.0672  0.3783
18149THY    CA149789   4.457   1.691   2.234 -0.0472  0.0585 -0.5526
18149THY    CA249790   4.548   1.777   2.165 -0.6716 -0.3605 -0.5794
18149THY    CP149791   4.528   1.798   2.013 -0.3146 -0.3735  0.0514
18149THY    HP149792   4.498   1.706   1.961 -0.7130 -0.5147  0.2585
18149THY    CP249793   4.660   1.813   1.945  0.1143  0.6995 -0.2746
18149THY    HP249794   4.645   1.804   1.837  1.4120  0.6030 -1.7134
18149THY    HP349795   4.734   1.736   1.972 -1.8130  0.5565 -2.2470
18149THY    HP449796   4.701   1.914   1.961  0.1020  0.2986 -0.2034
18149THY    CP349797   4.416   1.899   1.968 -0.1834 -1.4157 -0.4525
18149THY    HP549798   4.406   1.905   1.859  1.0550 -1.4744  1.9726
18149THY    HP649799   4.446   1.998   2.004  1.0287  0.8862 -1.5702
18149THY    HP749800   4.318   1.876   2.012 -0.2909 -1.4664 -0.0983
18149THY    CA349801   4.641   1.855   2.240  0.4717 -0.0568  0.3231
18149THY    HA349802   4.699   1.935   2.195  0.5414 -0.2926  0.1424
18149THY    CA449803   4.635   1.842   2.377 -0.0708  0.3449 -0.3103
18149THY    HA449804   4.701   1.903   2.437 -2.1292  0.6378  1.7801
18149THY    CA549805   4.554   1.756   2.446  0.3718 -0.5283  0.5007
18149THY    CM149806   4.541   1.773   2.599  0.1611 -0.0918  0.1399
18149THY    HM149807   4.632   1.729   2.641  0.7662 -2.4570 -1.0664
18149THY    HM249808   4.457   1.715   2.639  0.3043 -0.1176 -0.0844
18149THY    HM349809   4.537   1.878   2.631  0.3148  1.9007 -0.4195
18149THY    CA649810   4.459   1.680   2.376 -0.2564  0.2047 -0.0243
18149THY    HA649811   4.372   1.639   2.427 -0.9329  0.1488  1.2837
18150THY      O49812   7.989   0.855   5.816  0.3025  0.0970 -0.2961
18150THY     HO49813   7.942   0.852   5.901 -0.7386 -0.4720 -0.6822
18150THY    CA149814   8.064   0.968   5.813 -0.9007 -0.2570 -0.2595
18150THY    CA249815   8.175   0.986   5.726 -0.5886  0.0150 -0.4513
18150THY    CP149816   8.213   0.881   5.622 -0.4405  0.7563 -0.1669
18150THY    HP149817   8.166   0.786   5.653 -1.6051  0.9371  0.4526
18150THY    CP249818   8.364   0.850   5.616 -0.3071  0.7435  0.0505
18150THY    HP249819   8.431   0.935   5.598 -0.3494 -0.2986 -0.1200
18150THY    HP349820   8.377   0.793   5.523 -0.9902 -0.6867  2.1368
18150THY    HP449821   8.402   0.798   5.705  0.3410 -0.0668 -0.9046
18150THY    CP349822   8.156   0.906   5.480 -0.4726  0.0222 -0.0188
18150THY    HP549823   8.176   0.823   5.411  1.2117  1.3968 -0.8012
18150THY    HP649824   8.187   1.000   5.433 -2.7071  0.2163  0.8818
18150THY    HP749825   8.047   0.911   5.489 -0.5952 -0.4825 -1.2626
18150THY    CA349826   8.241   1.109   5.717 -0.1917  0.2341  0.1108
18150THY    HA349827   8.331   1.116   5.655 -0.4873 -0.2026  0.1153
18150THY    CA449828   8.192   1.215   5.795 -0.0154  0.2322 -0.4544
18150THY    HA449829   8.221   1.318   5.776  0.1856 -1.7589 -0.8226
18150THY    CA549830   8.091   1.185   5.888 -0.3947 -0.1113 -1.2441
18150THY    CM149831   8.037   1.303   5.970  1.1259  0.5988 -0.8315
18150THY    HM149832   7.949   1.277   6.030  0.3478 -0.4562 -0.6893
18150THY    HM249833   8.012   1.386   5.903  0.9604 -0.3864 -1.6600
18150THY    HM349834   8.119   1.351   6.024  0.3952 -2.1372  4.2147
18150THY    CA649835   8.025   1.069   5.903 -0.5195  0.5632  0.7053
18150THY    HA649836   7.944   1.054   5.973 -0.6257  0.6878  1.7582
18151THY      O49837   6.559   5.001   3.850  0.2992  0.0774 -0.2639
18151THY     HO49838   6.505   5.055   3.790  1.1755 -0.1355  0.4072
18151THY    CA149839   6.661   5.077   3.904  0.6915  0.5708  0.0011
18151THY    CA249840   6.775   5.018   3.952  0.0813 -0.6373 -0.0593
18151THY    CP149841   6.794   4.873   3.927  0.7240  0.8995 -0.2908
18151THY    HP149842   6.702   4.819   3.904  1.7521  1.3195 -2.3039
18151THY    CP249843   6.849   4.798   4.052 -0.0764  0.5519  0.8436
18151THY    HP249844   6.880   4.695   4.030 -0.2443  2.5739  0.3330
18151THY    HP349845   6.777   4.801   4.134  0.1387  0.7241  1.7236
18151THY    HP449846   6.945   4.839   4.085 -0.1426  3.4756 -1.1236
18151THY    CP349847   6.896   4.854   3.809  0.0559 -0.1653  0.7757
18151THY    HP549848   6.898   4.751   3.771  2.6288  3.0303 -0.5199
18151THY    HP649849   6.994   4.880   3.850  0.6428  0.1112 -1.5871
18151THY    HP749850   6.880   4.931   3.733  2.0330 -1.4135  0.0306
18151THY    CA349851   6.879   5.103   3.996  0.3104  0.9446  0.6962
18151THY    HA349852   6.968   5.068   4.048  0.9924 -0.2973  0.5311
18151THY    CA449853   6.856   5.236   4.004 -0.1057  0.3380 -0.0264
18151THY    HA449854   6.928   5.300   4.055 -2.5033 -0.3993  3.5279
18151THY    CA549855   6.738   5.291   3.951  0.5249 -0.5789  0.1121
18151THY    CM149856   6.713   5.439   3.964  0.2970 -0.8035 -0.2656
18151THY    HM149857   6.748   5.476   4.061  0.5112 -1.6912  1.9796
18151THY    HM249858   6.605   5.456   3.954  0.2003 -1.2439 -1.0672
18151THY    HM349859   6.768   5.490   3.884 -0.2730 -0.1006  1.5080
18151THY    CA649860   6.641   5.218   3.898  0.5055 -0.5554  0.2494
18151THY    HA649861   6.544   5.260   3.875  0.9252 -1.9510  0.4945
18152THY      O49862   1.930   6.887   5.017  0.3217  0.1683  0.6544
18152THY     HO49863   2.017   6.850   4.994 -0.4986 -1.0122 -0.6538
18152THY    CA149864   1.955   6.994   5.092  0.7747  0.1670 -0.4294
18152THY    CA249865   1.856   7.041   5.182  0.2776 -0.7525 -0.8349
18152THY    CP149866   1.725   6.962   5.213 -0.0988 -0.5002 -0.3276
18152THY    HP149867   1.717   6.886   5.134 -1.8720 -0.7752  0.1013
18152THY    CP249868   1.598   7.046   5.192 -0.2472  0.3395 -0.2548
18152THY    HP249869   1.594   7.103   5.099 -1.1846  1.4645  1.6136
18152THY    HP349870   1.594   7.110   5.281  1.2173  1.1974 -1.2728
18152THY    HP449871   1.511   6.979   5.187 -0.5055 -0.5682  0.1390
18152THY    CP349872   1.730   6.886   5.343 -0.0328 -0.4242 -0.2197
18152THY    HP549873   1.786   6.935   5.424 -0.4254 -0.1643 -0.2016
18152THY    HP649874   1.783   6.793   5.320 -1.0652 -0.5727 -0.7812
18152THY    HP749875   1.625   6.866   5.367 -0.2402 -3.0811 -3.1208
18152THY    CA349876   1.883   7.154   5.265  0.1913  0.1492  0.2232
18152THY    HA349877   1.819   7.177   5.349  0.9179  0.9237 -0.4989
18152THY    CA449878   2.009   7.217   5.246 -0.0312 -0.0811  0.3040
18152THY    HA449879   2.045   7.292   5.315  0.0771 -0.4270  0.5747
18152THY    CA549880   2.104   7.177   5.149  0.7658  0.7813 -0.3201
18152THY    CM149881   2.232   7.249   5.142  0.5577 -0.7234 -0.5768
18152THY    HM149882   2.295   7.222   5.227  1.0329 -0.0718  2.2685
18152THY    HM249883   2.212   7.357   5.138 -1.1611  1.2283 -0.7702
18152THY    HM349884   2.286   7.231   5.048 -1.1691 -2.0025  0.6061
18152THY    CA649885   2.070   7.064   5.063 -0.1084 -0.5757 -1.0658
18152THY    HA649886   2.145   7.029   4.993  1.6440  1.3297 -1.2979
18153THY      O49887   6.024   3.992   2.763  0.2857  0.2068 -0.0210
18153THY     HO49888   6.047   3.939   2.841 -0.0880 -0.0754 -0.6125
18153THY    CA149889   5.996   4.116   2.810  0.0442  0.2860 -1.0624
18153THY    CA249890   5.939   4.218   2.731 -0.2689 -0.3657 -0.0894
18153THY    CP149891   5.916   4.202   2.580  0.2819 -0.6454  0.4771
18153THY    HP149892   5.956   4.104   2.553  1.2209  3.1352 -0.3499
18153THY    CP249893   5.982   4.310   2.493 -0.0509 -0.3971 -0.3838
18153THY    HP249894   5.904   4.368   2.443  0.7767  0.0357  1.1537
18153THY    HP349895   6.040   4.275   2.407  1.1061  0.3000 -0.2294
18153THY    HP449896   6.040   4.381   2.552  0.6451  0.2617 -1.4740
18153THY    CP349897   5.766   4.200   2.551  0.4256 -0.1317  0.5695
18153THY    HP549898   5.722   4.116   2.608 -1.3421  0.5155  1.8818
18153THY    HP649899   5.743   4.173   2.448 -2.1685  0.2150  1.1726
18153THY    HP749900   5.704   4.288   2.569 -1.7431  2.2471 -1.2701
18153THY    CA349901   5.900   4.337   2.794  0.0918  0.6555  0.0232
18153THY    HA349902   5.849   4.410   2.731  0.5071 -2.1676 -1.9735
18153THY    CA449903   5.911   4.353   2.935 -0.1920 -0.3105  0.1249
18153THY    HA449904   5.872   4.445   2.978 -0.1156 -1.6469  0.8123
18153THY    CA549905   5.972   4.248   3.004 -0.0753 -0.1989  0.1017
18153THY    CM149906   5.996   4.272   3.152  0.0912  1.0606  0.2536
18153THY    HM149907   6.073   4.350   3.158  2.4462  1.3846 -1.9542
18153THY    HM249908   6.036   4.180   3.199 -0.5039  0.5152 -0.2917
18153THY    HM349909   5.903   4.309   3.196 -1.0967 -1.2285  0.1415
18153THY    CA649910   6.007   4.131   2.946 -0.4402  0.4609  0.1452
18153THY    HA649911   6.046   4.052   3.010  1.5558  0.5119  1.1051
18154THY      O49912   3.147   1.793   2.646  0.0687  0.3274  0.5997
18154THY     HO49913   3.070   1.846   2.673 -1.2973  1.3419 -1.7750
18154THY    CA149914   3.226   1.847   2.548  0.8144 -0.7896  0.6582
18154THY    CA249915   3.319   1.769   2.479 -0.6189 -0.8013  0.6723
18154THY    CP149916   3.348   1.627   2.531 -0.8682  1.2445 -0.7861
18154THY    HP149917   3.302   1.617   2.630 -0.5118  1.3924 -0.9784
18154THY    CP249918   3.501   1.602   2.549  1.0411 -0.3137 -0.3501
18154THY    HP249919   3.541   1.605   2.447 -0.6489 -1.0298  3.4697
18154THY    HP349920   3.517   1.509   2.606 -0.8784 -1.6793 -1.6044
18154THY    HP449921   3.537   1.687   2.607 -1.4972  1.0900 -0.1256
18154THY    CP349922   3.276   1.525   2.454 -0.3681 -0.3498  1.1845
18154THY    HP549923   3.287   1.429   2.505  0.9906 -0.0471  1.4779
18154THY    HP649924   3.322   1.511   2.356 -0.9875 -0.3582 -1.1677
18154THY    HP749925   3.167   1.537   2.459 -0.7923  0.5052 -2.2384
18154THY    CA349926   3.376   1.826   2.359  0.0584  0.1500  0.0106
18154THY    HA349927   3.443   1.766   2.298 -1.1571 -0.6353 -0.5847
18154THY    CA449928   3.338   1.951   2.317  0.2217  0.1207 -0.1278
18154THY    HA449929   3.373   1.989   2.222  0.2828 -0.2909 -1.1824
18154THY    CA549930   3.244   2.025   2.390  0.4550  0.9320  0.3787
18154THY    CM149931   3.199   2.153   2.328  0.4839  0.0741 -0.4158
18154THY    HM149932   3.093   2.148   2.299  0.4506 -0.5286  2.1648
18154THY    HM249933   3.251   2.174   2.234  3.5947  1.9734  0.9941
18154THY    HM349934   3.212   2.228   2.407 -1.1713  0.8774 -0.9230
18154THY    CA649935   3.187   1.969   2.502  0.4936 -0.0290 -0.1569
18154THY    HA649936   3.102   2.017   2.549  0.9429  0.3581  0.2726
18155THY      O49937   7.660   8.471   5.820 -0.2621 -0.9125 -0.4700
18155THY     HO49938   7.627   8.485   5.911 -4.0107 -2.0468 -0.7820
18155THY    CA149939   7.756   8.381   5.835 -0.7005 -0.1243 -0.1131
18155THY    CA249940   7.813   8.318   5.725 -0.4741  0.4518 -0.2892
18155THY    CP149941   7.761   8.352   5.586 -0.0907 -0.6252 -0.2250
18155THY    HP149942   7.654   8.371   5.591  0.2020 -1.9672  2.1087
18155THY    CP249943   7.766   8.236   5.487 -0.2870 -0.1436 -0.1113
18155THY    HP249944   7.735   8.143   5.535 -0.9753  0.0732  0.2228
18155THY    HP349945   7.873   8.227   5.463 -0.6216 -2.9042  1.9271
18155THY    HP449946   7.712   8.260   5.394 -0.4868  0.0912  0.3587
18155THY    CP349947   7.842   8.481   5.542  0.2529  0.3095  0.0677
18155THY    HP549948   7.777   8.541   5.477  0.5599 -0.9432 -0.9153
18155THY    HP649949   7.914   8.438   5.472 -1.1842 -1.0227 -0.2963
18155THY    HP749950   7.884   8.536   5.627 -0.9309  1.1358 -0.2530
18155THY    CA349951   7.917   8.226   5.745 -0.8313  0.2354 -0.1578
18155THY    HA349952   7.968   8.178   5.661 -1.4104 -0.1881 -0.0480
18155THY    CA449953   7.968   8.204   5.872  0.5196  0.0547 -0.2310
18155THY    HA449954   8.057   8.143   5.880  1.5467 -3.7644  0.5321
18155THY    CA549955   7.909   8.274   5.980  0.5634 -0.2201  0.2511
18155THY    CM149956   7.957   8.241   6.106  0.2218 -0.0558 -0.1452
18155THY    HM149957   7.995   8.139   6.119  1.7597  1.3776  0.5559
18155THY    HM249958   7.879   8.262   6.181 -0.0966 -1.0299  2.6216
18155THY    HM349959   8.037   8.312   6.131  1.1829  0.9805 -1.5550
18155THY    CA649960   7.800   8.359   5.968 -0.3576  0.3822  0.1359
18155THY    HA649961   7.764   8.413   6.055  1.2672  0.5278  1.0703
18156THY      O49962   5.105   1.424   3.550 -0.6260  0.3370 -0.2889
18156THY     HO49963   5.119   1.410   3.455 -1.0327  0.1490  0.4900
18156THY    CA149964   5.134   1.309   3.616 -0.0997  0.9181 -0.8230
18156THY    CA249965   5.215   1.308   3.737 -0.5520 -0.5475 -0.7806
18156THY    CP149966   5.276   1.440   3.791 -0.5308 -0.3784  0.3619
18156THY    HP149967   5.268   1.510   3.708  0.8758  1.2216  2.5537
18156THY    CP249968   5.422   1.424   3.833 -0.0298  0.3438  0.4975
18156THY    HP249969   5.426   1.354   3.917 -2.6096 -1.1779 -1.6814
18156THY    HP349970   5.469   1.520   3.856  0.4141 -2.4731  1.0441
18156THY    HP449971   5.476   1.388   3.744  2.4069  2.6533 -2.0960
18156THY    CP349972   5.198   1.500   3.905 -0.1111  0.2681 -0.7369
18156THY    HP549973   5.250   1.594   3.924  1.8104 -1.1469 -1.4381
18156THY    HP649974   5.194   1.442   3.998 -1.4133 -1.0110 -2.8477
18156THY    HP749975   5.091   1.516   3.885 -0.8124  3.1701 -1.1549
18156THY    CA349976   5.247   1.184   3.796  0.0703 -0.2873 -0.0997
18156THY    HA349977   5.301   1.173   3.889  0.5120 -0.1617  2.4289
18156THY    CA449978   5.194   1.071   3.730 -0.2035  0.0275  0.3305
18156THY    HA449979   5.217   0.977   3.778 -0.9968  2.5645  1.3415
18156THY    CA549980   5.122   1.073   3.619 -0.0395  0.1633 -0.2269
18156THY    CM149981   5.077   0.945   3.547  0.1534 -0.1734  0.3906
18156THY    HM149982   5.056   0.963   3.441 -1.0919  0.0806  0.4904
18156THY    HM249983   4.981   0.917   3.592  0.8422  0.8671 -0.3597
18156THY    HM349984   5.147   0.863   3.569  0.6922 -3.2078 -0.0631
18156THY    CA649985   5.083   1.194   3.560 -0.1993  0.3923 -0.0137
18156THY    HA649986   5.023   1.197   3.469  0.1911  0.1275  2.4291
18157THY      O49987   9.119   7.067   2.585 -0.1766  0.4587 -0.2627
18157THY     HO49988   9.091   7.013   2.509 -0.9045 -0.7793  1.7556
18157THY    CA149989   9.015   7.053   2.664 -0.3671 -1.0850  0.0471
18157THY    CA249990   9.012   7.106   2.794  0.3236 -0.1289  0.4940
18157THY    CP149991   9.132   7.181   2.847 -0.6586  0.3345  0.0995
18157THY    HP149992   9.218   7.172   2.779 -0.0655  1.1176 -0.2638
18157THY    CP249993   9.183   7.123   2.978  0.0593 -0.7486 -0.2303
18157THY    HP249994   9.269   7.177   3.016  0.1536  0.9247 -1.4731
18157THY    HP349995   9.219   7.022   2.953  0.6573  1.1931 -0.5399
18157THY    HP449996   9.099   7.134   3.048  0.8103  0.0654  0.3450
18157THY    CP349997   9.106   7.330   2.849 -0.4945 -0.0151 -0.3479
18157THY    HP549998   9.197   7.375   2.891 -0.6018  0.3096 -0.4309
18157THY    HP649999   9.019   7.358   2.910 -0.3850  0.6418 -1.4010
18157THY    HP750000   9.089   7.379   2.753 -0.5763  0.5614  0.8029
18157THY    CA350001   8.893   7.094   2.864 -0.4046  0.5599 -0.3693
18157THY    HA350002   8.886   7.123   2.968 -1.4911  0.2956  0.3549
18157THY    CA450003   8.788   7.021   2.816 -0.2567  0.0678 -0.4435
18157THY    HA450004   8.696   7.010   2.872  0.4915  1.4427  0.1093
18157THY    CA550005   8.794   6.971   2.684 -0.6254 -0.0241 -0.3546
18157THY    CM150006   8.679   6.887   2.628  0.5341 -0.2638  0.1919
18157THY    HM150007   8.716   6.784   2.626  0.8782 -0.5476  0.3184
18157THY    HM250008   8.642   6.911   2.527  1.2451 -0.7459 -0.6957
18157THY    HM350009   8.593   6.887   2.696 -0.3177 -1.3017  1.1456
18157THY    CA650010   8.911   6.984   2.608  0.4571  0.1749 -0.4702
18157THY    HA650011   8.918   6.953   2.504  0.0133  0.0026 -0.0141
18158THY      O50012   1.864   6.299   7.502 -0.2630 -0.6512 -0.5684
18158THY     HO50013   1.878   6.256   7.588  0.9576 -0.5591  0.0001
18158THY    CA150014   1.774   6.228   7.428 -0.1753  0.7786 -0.3116
18158THY    CA250015   1.681   6.286   7.336 -0.7738  0.2807  0.3687
18158THY    CP150016   1.668   6.437   7.312 -0.4568 -0.4165 -0.5522
18158THY    HP150017   1.766   6.485   7.321 -0.2783 -1.3171 -0.7102
18158THY    CP250018   1.581   6.506   7.409 -0.3597  0.1077 -0.1313
18158THY    HP250019   1.545   6.436   7.486  0.1478 -2.3104 -3.3119
18158THY    HP350020   1.490   6.544   7.361  0.2755 -0.0522  1.2235
18158THY    HP450021   1.632   6.594   7.448  1.1400 -1.6208 -0.1822
18158THY    CP350022   1.645   6.476   7.165  1.3077 -0.2328 -1.0785
18158THY    HP550023   1.542   6.441   7.146  0.9039 -0.4606  0.1741
18158THY    HP650024   1.699   6.424   7.085 -1.5737 -1.9087 -1.7685
18158THY    HP750025   1.639   6.582   7.140 -0.6950 -1.7544 -1.4870
18158THY    CA350026   1.602   6.190   7.268 -0.3715  0.4091 -1.4877
18158THY    HA350027   1.527   6.235   7.204 -0.0458  1.0149 -0.0254
18158THY    CA450028   1.606   6.056   7.289 -0.6257 -0.4801  0.5456
18158THY    HA450029   1.540   5.983   7.243  1.0455 -3.0377  0.5352
18158THY    CA550030   1.685   6.007   7.391 -0.0246  0.6819  0.2232
18158THY    CM150031   1.686   5.857   7.412  0.0797 -0.7816  0.2638
18158THY    HM150032   1.594   5.812   7.373  3.0862 -3.5780 -4.2418
18158THY    HM250033   1.710   5.840   7.518 -1.2896 -0.2682  1.3192
18158THY    HM350034   1.761   5.818   7.342  1.5758 -0.1148  1.8003
18158THY    CA650035   1.772   6.091   7.456  0.0608  0.4366 -0.0516
18158THY    HA650036   1.833   6.052   7.537 -1.1623  1.5910  0.3702
18159THY      O50037   3.870   4.780   6.551 -0.2912 -0.4755 -0.0842
18159THY     HO50038   3.842   4.722   6.479  0.1886 -0.6841 -0.0675
18159THY    CA150039   3.754   4.787   6.621 -0.6701  0.0330 -0.2715
18159THY    CA250040   3.732   4.891   6.716 -0.3388  0.4782 -0.1913
18159THY    CP150041   3.840   4.991   6.763  0.0014  0.2067  0.0826
18159THY    HP150042   3.937   4.960   6.720 -0.2337  1.6525 -2.9851
18159THY    CP250043   3.866   4.971   6.911 -0.6155  0.1844 -0.1769
18159THY    HP250044   3.967   5.006   6.937 -0.8969  1.2287 -0.0897
18159THY    HP350045   3.859   4.863   6.928  0.9744  0.3930 -0.2830
18159THY    HP450046   3.803   5.029   6.980  2.0662  1.3212  1.6093
18159THY    CP350047   3.808   5.128   6.724 -0.2424 -0.3894  0.5418
18159THY    HP550048   3.801   5.125   6.614  0.9525 -0.4711  0.2715
18159THY    HP650049   3.883   5.204   6.743 -1.4923  1.5180  1.3652
18159THY    HP750050   3.710   5.153   6.768  0.5469  1.1477  1.0110
18159THY    CA350051   3.604   4.900   6.776  0.0915  0.0017 -0.6864
18159THY    HA350052   3.588   4.986   6.841  1.3425 -0.8069  0.1796
18159THY    CA450053   3.506   4.806   6.742  0.7497 -0.1263  0.5761
18159THY    HA450054   3.405   4.819   6.780  0.8694  0.4036 -0.0166
18159THY    CA550055   3.525   4.706   6.646 -0.3459 -0.1400 -0.9992
18159THY    CM150056   3.415   4.629   6.592 -0.1130 -0.1697 -0.2121
18159THY    HM150057   3.436   4.523   6.611 -3.1693  2.6697 -0.4738
18159THY    HM250058   3.398   4.651   6.486  1.6987  0.0053  2.4545
18159THY    HM350059   3.320   4.656   6.640  0.0018 -0.6623  1.1198
18159THY    CA650060   3.650   4.699   6.583  0.0044  0.0358 -0.4168
18159THY    HA650061   3.674   4.631   6.502 -1.6247 -0.9303  0.1112
18160THY      O50062   1.706   6.663   4.947  0.1898  0.7532 -0.4978
18160THY     HO50063   1.751   6.746   4.970 -1.8743  0.4711  0.7677
18160THY    CA150064   1.641   6.676   4.824  0.4079  0.2129  0.1956
18160THY    CA250065   1.547   6.585   4.776  0.1700 -0.8025 -0.7232
18160THY    CP150066   1.513   6.455   4.855  0.4565 -0.6677  0.3651
18160THY    HP150067   1.591   6.419   4.923 -1.9611  1.3687 -1.4371
18160THY    CP250068   1.509   6.341   4.749  0.5986 -1.0762  0.1026
18160THY    HP250069   1.590   6.343   4.676  1.4842 -0.1581 -0.7137
18160THY    HP350070   1.411   6.344   4.700 -0.6395  1.2530  1.0077
18160THY    HP450071   1.519   6.242   4.795  1.1560 -0.2586  0.5253
18160THY    CP350072   1.386   6.477   4.943  0.6681 -0.6920  0.0844
18160THY    HP550073   1.296   6.506   4.887  0.0269  1.1167  1.8126
18160THY    HP650074   1.402   6.563   5.009 -1.1904 -0.0565 -0.0205
18160THY    HP750075   1.363   6.379   4.987  0.1867 -1.6402 -0.2491
18160THY    CA350076   1.488   6.620   4.653  0.2994  0.3177  0.1758
18160THY    HA350077   1.412   6.552   4.615  0.2986 -0.2036  0.4646
18160THY    CA450078   1.527   6.734   4.580  0.6983  0.5077 -0.3175
18160THY    HA450079   1.478   6.759   4.486 -0.9676  1.7776  1.5279
18160THY    CA550080   1.615   6.827   4.640  0.6428 -0.4447  0.1268
18160THY    CM150081   1.657   6.940   4.559 -0.2878 -0.2230  0.3127
18160THY    HM150082   1.710   7.019   4.613  0.4756  0.6157 -0.7453
18160THY    HM250083   1.568   6.988   4.516  1.1659 -2.0939  1.4922
18160THY    HM350084   1.713   6.911   4.469  0.5103 -0.2487  1.8450
18160THY    CA650085   1.663   6.799   4.772 -0.9098  0.5443 -0.7146
18160THY    HA650086   1.735   6.868   4.818 -0.2633 -0.3015 -0.8068
18161THY      O50087   3.099   8.664   4.984  0.2347 -0.7184  0.1576
18161THY     HO50088   3.030   8.605   4.950 -0.4779 -0.1685  0.6511
18161THY    CA150089   3.024   8.750   5.054 -0.1525 -0.0696 -0.2437
18161THY    CA250090   3.056   8.787   5.182  0.0364  0.2892 -1.4182
18161THY    CP150091   3.171   8.728   5.263  0.1187 -0.1631 -0.1152
18161THY    HP150092   3.218   8.645   5.208  2.1667  0.4128  0.5891
18161THY    CP250093   3.124   8.658   5.398 -0.3444 -0.3777 -0.1148
18161THY    HP250094   3.196   8.598   5.454  0.3414 -1.5743 -0.4494
18161THY    HP350095   3.048   8.580   5.386 -0.4230  1.5183 -0.3724
18161THY    HP450096   3.090   8.731   5.472  1.4994  2.7792 -2.2175
18161THY    CP350097   3.279   8.830   5.303 -0.1383 -0.3270 -0.6132
18161THY    HP550098   3.296   8.908   5.228  3.7445  2.0299  1.0978
18161THY    HP650099   3.372   8.778   5.328 -0.7325 -0.5898 -1.8347
18161THY    HP750100   3.238   8.871   5.396 -1.2778 -0.7323 -0.7915
18161THY    CA350101   2.977   8.893   5.246  0.1066 -0.1299  0.4214
18161THY    HA350102   3.009   8.931   5.343  1.0497 -0.8429  1.5327
18161THY    CA450103   2.862   8.941   5.180  0.6306 -0.5932  0.5908
18161THY    HA450104   2.793   9.011   5.226  1.9356 -0.8031  2.0877
18161THY    CA550105   2.815   8.884   5.059 -0.3577 -0.2380 -0.1295
18161THY    CM150106   2.692   8.928   4.996 -0.5129  0.8810  0.0815
18161THY    HM150107   2.684   9.035   4.974 -2.1951  0.3761 -0.1174
18161THY    HM250108   2.605   8.904   5.058  0.4880  1.8505 -1.1650
18161THY    HM350109   2.677   8.881   4.898 -0.9259  0.9811  0.0009
18161THY    CA650110   2.902   8.794   4.994 -0.3112  0.0171  0.1229
18161THY    HA650111   2.874   8.748   4.899 -0.7011 -0.0598  0.5138
18162THY      O50112   4.294   4.680   5.431 -0.2268  0.0002  0.2180
18162THY     HO50113   4.298   4.669   5.335 -0.8985 -0.1701  1.2252
18162THY    CA150114   4.415   4.693   5.483  0.2310  0.3353 -0.2740
18162THY    CA250115   4.429   4.778   5.590  0.1674  0.2092  0.1024
18162THY    CP150116   4.302   4.845   5.652 -1.0829  0.0209  0.4871
18162THY    HP150117   4.214   4.785   5.628  0.1288 -0.4260 -1.1734
18162THY    CP250118   4.284   4.989   5.605 -0.0851  0.0531 -0.3257
18162THY    HP250119   4.198   5.033   5.656  0.7921  1.8997 -0.6707
18162THY    HP350120   4.253   4.990   5.500 -1.3140  0.3386  2.9348
18162THY    HP450121   4.381   5.039   5.619 -0.0141  1.5842 -0.8342
18162THY    CP350122   4.298   4.859   5.810  0.0907  0.1331 -0.4574
18162THY    HP550123   4.362   4.944   5.835  0.1507  0.4884 -0.6044
18162THY    HP650124   4.342   4.771   5.858  0.7951 -0.3647 -0.3773
18162THY    HP750125   4.194   4.878   5.840 -0.3804  0.4938 -3.2555
18162THY    CA350126   4.555   4.812   5.638 -0.8830  0.4886 -0.2704
18162THY    HA350127   4.571   4.892   5.709  0.7797  0.5806 -0.6340
18162THY    CA450128   4.668   4.745   5.583 -0.1703  0.2245 -0.7273
18162THY    HA450129   4.767   4.773   5.619 -0.8438  1.3816  0.2725
18162THY    CA550130   4.658   4.653   5.486  0.8525  0.0412 -0.2776
18162THY    CM150131   4.777   4.588   5.423 -0.3373 -0.0154  0.1778
18162THY    HM150132   4.748   4.522   5.341  1.5509  0.5627 -1.4771
18162THY    HM250133   4.824   4.521   5.496 -0.1788 -0.5612 -0.3164
18162THY    HM350134   4.849   4.666   5.394  0.3732  0.4923 -0.2771
18162THY    CA650135   4.528   4.628   5.434 -0.0804  0.5984  0.5505
18162THY    HA650136   4.515   4.560   5.350  0.0649  0.6685  0.4371
18163THY      O50137   4.987   0.261   3.887 -0.0150  0.4310  0.3218
18163THY     HO50138   4.980   0.198   3.960 -0.5321  0.5600  0.5232
18163THY    CA150139   4.862   0.292   3.846  0.3724  0.4399 -0.0707
18163THY    CA250140   4.821   0.424   3.824  0.3747 -0.0420 -0.9704
18163THY    CP150141   4.938   0.523   3.820  0.0895 -0.8124  0.4379
18163THY    HP150142   5.022   0.476   3.769  0.5953 -0.1208  0.5841
18163THY    CP250143   4.983   0.578   3.949 -0.0763 -0.0418  0.0016
18163THY    HP250144   4.901   0.617   4.009  2.3303  1.1798  3.7194
18163THY    HP350145   5.050   0.661   3.926 -1.3125 -0.0197  1.0243
18163THY    HP450146   5.036   0.497   4.001 -0.8263 -0.5539 -0.8399
18163THY    CP350147   4.899   0.647   3.727 -0.2204  0.7516  0.3697
18163THY    HP550148   4.823   0.713   3.771 -1.0549  0.7681 -0.5844
18163THY    HP650149   4.861   0.611   3.631  2.6254 -1.7399  3.4587
18163THY    HP750150   4.983   0.711   3.698 -1.3840 -1.1469  1.1175
18163THY    CA350151   4.686   0.456   3.812 -0.4308  0.2464 -0.6841
18163THY    HA350152   4.644   0.552   3.786 -1.8417  0.0130 -1.3380
18163THY    CA450153   4.592   0.349   3.808  0.1830  0.3063 -0.4159
18163THY    HA450154   4.486   0.368   3.792  0.4994  0.6283  1.8766
18163THY    CA550155   4.629   0.217   3.826 -0.0465  0.5071 -0.8991
18163THY    CM150156   4.523   0.107   3.822  0.4756 -0.6088  0.1999
18163THY    HM150157   4.448   0.110   3.743 -0.8972  0.5692 -1.1522
18163THY    HM250158   4.463   0.115   3.914 -0.7572 -1.4987  1.6548
18163THY    HM350159   4.578   0.013   3.808  0.3244 -2.1221  0.3161
18163THY    CA650160   4.766   0.193   3.839 -0.7940  0.2512  0.4502
18163THY    HA650161   4.798   0.090   3.853 -1.8932 -2.6328 -0.3842
18164THY      O50162   8.727   0.725   7.345 -0.1564  0.0182  0.3568
18164THY     HO50163   8.811   0.702   7.302 -1.2457 -1.6674 -0.6836
18164THY    CA150164   8.671   0.608   7.355  0.0693  0.8584 -0.7250
18164THY    CA250165   8.538   0.581   7.387  0.7526 -0.4972 -0.4222
18164THY    CP150166   8.431   0.687   7.391 -0.0537 -0.7449  0.0432
18164THY    HP150167   8.466   0.781   7.347 -1.3979 -3.0702 -0.4686
18164THY    CP250168   8.386   0.718   7.534  0.2527 -0.2043  0.5606
18164THY    HP250169   8.475   0.737   7.596 -0.1101  0.2333  0.8565
18164THY    HP350170   8.341   0.630   7.582 -0.5302  0.4460  1.2937
18164THY    HP450171   8.323   0.807   7.534 -1.0590 -1.6279 -0.3328
18164THY    CP350172   8.309   0.653   7.309 -0.2150 -0.3080 -0.6764
18164THY    HP550173   8.338   0.627   7.206 -0.6377 -0.6207  0.0416
18164THY    HP650174   8.224   0.722   7.316  0.1095 -0.8620 -0.2027
18164THY    HP750175   8.265   0.557   7.337 -1.4719 -3.5475 -1.1889
18164THY    CA350176   8.495   0.444   7.418  0.7293  0.0939  0.4665
18164THY    HA350177   8.398   0.418   7.460  1.0056  0.0141 -0.7469
18164THY    CA450178   8.591   0.340   7.400 -0.2509  0.2681  0.1659
18164THY    HA450179   8.575   0.235   7.423  2.1978 -0.4317 -0.4170
18164THY    CA550180   8.722   0.369   7.369 -0.5869 -0.4401  0.4416
18164THY    CM150181   8.826   0.264   7.358  0.5230  0.3511 -0.0839
18164THY    HM150182   8.828   0.201   7.448  1.4966  0.2918 -0.1527
18164THY    HM250183   8.925   0.308   7.346 -0.0411 -1.1591  0.8286
18164THY    HM350184   8.798   0.196   7.276 -0.7881  2.4308 -2.2463
18164THY    CA650185   8.763   0.502   7.344  0.3879 -0.5016  0.2338
18164THY    HA650186   8.867   0.517   7.318  0.2805 -0.1616  1.7714
18165THY      O50187   1.969   0.408   4.730 -0.1275 -0.1038 -0.0969
18165THY     HO50188   1.883   0.449   4.710  1.6946 -1.7192  3.4149
18165THY    CA150189   2.030   0.380   4.612  0.0827  0.5641  0.4055
18165THY    CA250190   2.161   0.335   4.608  0.6088 -0.2405 -0.3409
18165THY    CP150191   2.230   0.312   4.745 -0.7466 -0.1651 -0.0647
18165THY    HP150192   2.188   0.379   4.821 -2.3922 -0.6853 -0.4512
18165THY    CP250193   2.382   0.346   4.737  0.1158  0.0334  1.1222
18165THY    HP250194   2.431   0.269   4.676 -1.8425 -1.7955  1.2502
18165THY    HP350195   2.430   0.355   4.835  0.0724 -0.0665  2.6400
18165THY    HP450196   2.381   0.443   4.686 -3.2064  0.8273  1.6500
18165THY    CP350197   2.216   0.167   4.792 -0.3745 -0.2124 -0.2003
18165THY    HP550198   2.267   0.158   4.889  0.4695 -0.3332  2.3326
18165THY    HP650199   2.269   0.093   4.731 -0.9564  1.1925 -1.8148
18165THY    HP750200   2.109   0.143   4.789 -0.0415 -2.6523 -1.7814
18165THY    CA350201   2.232   0.322   4.484 -0.1324 -0.0716  0.0821
18165THY    HA350202   2.335   0.286   4.482 -0.3306  1.9316 -0.6758
18165THY    CA450203   2.160   0.339   4.362 -0.1918  0.0469  0.3012
18165THY    HA450204   2.214   0.325   4.269  2.3197  1.6728 -1.5654
18165THY    CA550205   2.028   0.377   4.368 -0.3179 -0.2896 -0.0826
18165THY    CM150206   1.960   0.407   4.235 -0.9950 -0.1598 -0.8067
18165THY    HM150207   1.997   0.331   4.165 -1.1701 -2.3582  1.0397
18165THY    HM250208   1.982   0.507   4.196 -1.0781  2.2716  0.2221
18165THY    HM350209   1.851   0.396   4.243 -1.0908  1.1818  0.6951
18165THY    CA650210   1.963   0.401   4.494  0.2635  0.3386 -0.0712
18165THY    HA650211   1.862   0.440   4.493  0.4128  0.8144  0.3308
18166THY      O50212   7.081   2.280   6.842 -0.3775 -0.0368  0.0268
18166THY     HO50213   7.024   2.231   6.904 -3.7387 -1.9258  1.2061
18166THY    CA150214   7.095   2.204   6.735  0.0235 -0.1758  0.4321
18166THY    CA250215   7.150   2.073   6.746 -0.4269  0.1061 -0.1379
18166THY    CP150216   7.182   2.015   6.886  0.2328 -0.2976 -0.2597
18166THY    HP150217   7.118   2.056   6.965  2.1738  1.8506 -1.1485
18166THY    CP250218   7.320   2.063   6.930  0.2328 -0.0643  0.5873
18166THY    HP250219   7.396   2.046   6.853  2.3734  2.1438 -0.5368
18166THY    HP350220   7.335   1.997   7.017  0.1443 -0.1732  0.4241
18166THY    HP450221   7.320   2.169   6.958  2.4287  0.4241  0.5092
18166THY    CP350222   7.156   1.863   6.887 -0.2987  0.4332  0.2296
18166THY    HP550223   7.131   1.833   6.989  1.6317  0.5219 -1.2767
18166THY    HP650224   7.242   1.803   6.856 -0.5511 -0.2428  0.2044
18166THY    HP750225   7.077   1.827   6.819  0.4237 -0.0793 -0.4179
18166THY    CA350226   7.173   2.001   6.640  0.3435  0.1725  0.4159
18166THY    HA350227   7.225   1.906   6.644  0.7917 -0.9745  0.5951
18166THY    CA450228   7.126   2.045   6.516  0.7633 -0.1748  0.3047
18166THY    HA450229   7.142   1.981   6.430  0.5594 -0.0210  0.0474
18166THY    CA550230   7.069   2.175   6.502  0.0198 -0.3588 -0.8287
18166THY    CM150231   7.009   2.214   6.369  0.4157  0.5248  0.3170
18166THY    HM150232   7.034   2.313   6.330  1.0446  1.5052  0.5584
18166THY    HM250233   6.900   2.224   6.384  0.3121 -0.3708  0.6455
18166THY    HM350234   7.021   2.144   6.286 -1.7888 -0.6870  1.2755
18166THY    CA650235   7.063   2.255   6.612 -0.2793 -0.2447 -0.8915
18166THY    HA650236   7.024   2.356   6.619 -0.5923  1.8414 -1.1054
18167THY      O50237   3.343   5.935   7.377  0.2376  0.1264  0.2052
18167THY     HO50238   3.268   5.984   7.416 -1.3464  1.3509 -2.9500
18167THY    CA150239   3.300   5.938   7.244 -0.6547 -0.4823  0.3348
18167THY    CA250240   3.336   5.835   7.154  0.8493 -0.3401  0.0349
18167THY    CP150241   3.422   5.720   7.207 -0.2482  0.0474  0.4108
18167THY    HP150242   3.505   5.777   7.252  0.2140  0.3466 -0.4825
18167THY    CP250243   3.479   5.637   7.092 -0.3068  0.3335  0.5369
18167THY    HP250244   3.566   5.580   7.128 -0.7977  1.2350  0.3414
18167THY    HP350245   3.514   5.702   7.011 -1.1002  0.7644  1.5261
18167THY    HP450246   3.398   5.577   7.049 -0.2801 -0.1057  0.8099
18167THY    CP350247   3.348   5.626   7.306 -0.5022  0.0494 -0.1813
18167THY    HP550248   3.313   5.669   7.401 -2.5219 -1.1509  0.9536
18167THY    HP650249   3.415   5.540   7.321 -0.9240  2.5932 -0.1424
18167THY    HP750250   3.254   5.597   7.258 -2.1235  1.1999  2.7508
18167THY    CA350251   3.275   5.839   7.026 -0.6550 -0.2402  0.5452
18167THY    HA350252   3.302   5.772   6.946 -0.5198 -1.6694  2.2292
18167THY    CA450253   3.197   5.947   6.982  0.0272 -0.3838 -0.0843
18167THY    HA450254   3.131   5.939   6.896  0.2769 -0.7541  1.4675
18167THY    CA550255   3.175   6.054   7.070  0.3569 -0.2914  0.2106
18167THY    CM150256   3.089   6.170   7.031  0.0034 -0.2103  0.0329
18167THY    HM150257   2.989   6.126   7.016 -0.0999  0.9585 -0.1748
18167THY    HM250258   3.115   6.220   6.938 -1.2170 -0.2910  0.5598
18167THY    HM350259   3.101   6.251   7.104  0.6082 -0.9257  0.6020
18167THY    CA650260   3.227   6.043   7.200  0.2163  0.1486  0.1956
18167THY    HA650261   3.214   6.125   7.271  0.3115  1.5088 -0.9197
18168THY      O50262   4.898   2.578   4.198  0.0801 -0.8122  0.2207
18168THY     HO50263   4.848   2.659   4.177  0.7674  0.0149  0.8696
18168THY    CA150264   4.886   2.575   4.330 -1.0369  0.3600 -0.1923
18168THY    CA250265   4.980   2.505   4.404  0.0462  0.2499  0.3243
18168THY    CP150266   5.088   2.426   4.336 -0.4333 -0.1006 -0.4457
18168THY    HP150267   5.055   2.374   4.245  0.9212 -0.9947  0.2130
18168THY    CP250268   5.129   2.310   4.424  0.1061  0.5240 -0.1650
18168THY    HP250269   5.037   2.275   4.472 -2.1950 -2.0974  1.8494
18168THY    HP350270   5.208   2.339   4.493  0.4609 -0.4525  1.2865
18168THY    HP450271   5.182   2.233   4.366  1.7090  2.2170 -0.3872
18168THY    CP350272   5.213   2.521   4.310  0.3908  0.4277  0.1044
18168THY    HP550273   5.240   2.569   4.404 -0.2395  0.6629  0.0022
18168THY    HP650274   5.180   2.599   4.240 -0.2187 -0.8803 -1.2625
18168THY    HP750275   5.296   2.462   4.269 -1.9717 -0.0619 -3.1670
18168THY    CA350276   4.973   2.516   4.545 -0.1685  0.1072  0.3529
18168THY    HA350277   5.039   2.462   4.612 -3.1570  3.3398  0.3077
18168THY    CA450278   4.873   2.597   4.603 -0.1334 -0.5083 -0.0752
18168THY    HA450279   4.871   2.598   4.711 -0.0088 -0.5093  0.2416
18168THY    CA550280   4.776   2.657   4.530 -0.3055  0.4113  0.3250
18168THY    CM150281   4.663   2.732   4.587 -0.4542 -0.3182 -0.2426
18168THY    HM150282   4.668   2.837   4.555 -1.8251  0.3260  0.0413
18168THY    HM250283   4.658   2.722   4.696  2.8469  0.0977  1.3627
18168THY    HM350284   4.576   2.678   4.546  0.4813 -0.4578 -1.7151
18168THY    CA650285   4.789   2.654   4.389  0.0507  0.3338 -0.6792
18168THY    HA650286   4.727   2.717   4.326 -1.4682  0.0007 -2.4103
18169THY      O50287   5.429   3.240   6.986  0.3957  0.3456 -0.1881
18169THY     HO50288   5.444   3.171   7.053 -1.0791 -1.4394 -2.4060
18169THY    CA150289   5.453   3.190   6.865 -0.4056  0.1537 -0.4451
18169THY    CA250290   5.457   3.269   6.754  0.2951  0.5006 -0.6216
18169THY    CP150291   5.430   3.419   6.763 -0.5002 -0.3947 -0.2004
18169THY    HP150292   5.378   3.445   6.856 -2.4552 -1.8181  1.2833
18169THY    CP250293   5.325   3.449   6.660 -0.2319 -0.2544 -0.5688
18169THY    HP250294   5.367   3.445   6.560  0.9427  0.1737  0.5763
18169THY    HP350295   5.284   3.549   6.681  1.1630 -1.2690  0.2444
18169THY    HP450296   5.236   3.384   6.657 -1.1045 -0.8782  0.6195
18169THY    CP350297   5.554   3.516   6.738  0.4659  0.4685 -0.5845
18169THY    HP550298   5.598   3.554   6.831 -0.8119  0.3774  1.2824
18169THY    HP650299   5.524   3.610   6.689 -0.4415  1.9385 -0.0658
18169THY    HP750300   5.636   3.469   6.683  1.0480  0.6238  0.2330
18169THY    CA350301   5.481   3.207   6.631  0.9020  0.1715 -0.1005
18169THY    HA350302   5.495   3.271   6.544  0.8802 -0.0233 -0.3558
18169THY    CA450303   5.486   3.069   6.619  0.3890 -0.4445  0.1190
18169THY    HA450304   5.515   3.020   6.526  1.7810  0.0926 -0.1501
18169THY    CA550305   5.489   2.993   6.736 -0.1993  0.2121 -0.5466
18169THY    CM150306   5.524   2.848   6.725 -0.9361 -0.3066  0.1492
18169THY    HM150307   5.437   2.781   6.732  1.0238 -2.3878 -2.8705
18169THY    HM250308   5.594   2.840   6.809  0.5567 -1.4539  0.8778
18169THY    HM350309   5.578   2.819   6.634 -1.7638 -0.3804 -1.2269
18169THY    CA650310   5.465   3.050   6.856  0.3285  0.2720  0.2517
18169THY    HA650311   5.459   2.976   6.936  0.1641 -1.0897 -1.2434
18170THY      O50312   1.033   3.215   6.116  0.3337  0.1792 -0.1288
18170THY     HO50313   1.051   3.302   6.075 -0.2480 -1.5276 -0.7674
18170THY    CA150314   1.150   3.179   6.170  0.7041  0.0482  0.1409
18170THY    CA250315   1.161   3.062   6.253  0.2705 -0.7027 -0.2155
18170THY    CP150316   1.039   2.982   6.282 -0.0579 -0.9862 -0.8829
18170THY    HP150317   0.957   3.005   6.212 -1.3837  0.9148  0.4561
18170THY    CP250318   0.997   3.000   6.435  0.4679  0.8570 -0.3067
18170THY    HP250319   0.913   2.933   6.458 -0.8640  2.5713  1.7973
18170THY    HP350320   0.966   3.105   6.444  0.0428  0.1418 -0.3661
18170THY    HP450321   1.076   2.973   6.507 -0.3190  1.8060 -0.1463
18170THY    CP350322   1.072   2.833   6.256  0.4878 -0.2810  0.0590
18170THY    HP550323   1.136   2.792   6.335  1.7453 -0.5957  1.3603
18170THY    HP650324   1.108   2.828   6.153 -2.1358 -1.4479  2.5198
18170THY    HP750325   0.975   2.781   6.248  0.7655 -1.2066 -0.3299
18170THY    CA350326   1.284   3.020   6.297  0.1200  0.2774  0.1116
18170THY    HA350327   1.300   2.937   6.366  1.2982  0.7610  0.7151
18170THY    CA450328   1.397   3.088   6.248 -0.0166 -0.0759  0.8332
18170THY    HA450329   1.498   3.056   6.275 -1.5140  0.5949 -4.1501
18170THY    CA550330   1.386   3.201   6.164 -0.2857 -0.3060  0.2635
18170THY    CM150331   1.502   3.278   6.135 -0.6920  0.1872 -0.6456
18170THY    HM150332   1.597   3.234   6.170  0.6613 -2.3747  0.0774
18170THY    HM250333   1.491   3.376   6.183  2.7852  3.2630 -1.5160
18170THY    HM350334   1.510   3.300   6.028  2.2576  0.0190 -1.9338
18170THY    CA650335   1.263   3.248   6.125 -0.2128  0.0315  0.3352
18170THY    HA650336   1.253   3.326   6.050 -0.6051 -0.2528  0.0196
18171THY      O50337   1.374   8.263   4.632  0.5250 -0.0500  0.4655
18171THY     HO50338   1.311   8.325   4.673 -0.4084  1.0944 -1.1516
18171THY    CA150339   1.298   8.145   4.617 -0.0075  1.1133 -0.6979
18171THY    CA250340   1.342   8.040   4.529  0.0977 -0.7578 -0.0013
18171THY    CP150341   1.476   8.049   4.458  0.9277 -0.7021 -0.1460
18171THY    HP150342   1.521   8.145   4.486  0.7671 -0.8817 -0.0164
18171THY    CP250343   1.456   8.052   4.306 -0.0482  0.2531 -0.5666
18171THY    HP250344   1.434   7.954   4.262  1.1608 -2.1599  0.1616
18171THY    HP350345   1.546   8.081   4.251  0.1949 -0.0187 -1.7941
18171THY    HP450346   1.381   8.130   4.292  2.2612  1.1247  1.9647
18171THY    CP350347   1.563   7.931   4.493 -0.1415 -0.3222 -0.2753
18171THY    HP550348   1.570   7.912   4.601  3.1442  0.3652  3.6531
18171THY    HP650349   1.665   7.956   4.463 -0.0262 -0.7937 -1.2412
18171THY    HP750350   1.533   7.842   4.436 -0.3483  0.5997 -0.8074
18171THY    CA350351   1.259   7.930   4.509 -0.0048  0.4856  0.3081
18171THY    HA350352   1.293   7.844   4.453 -0.8626 -0.7498  0.7420
18171THY    CA450353   1.137   7.926   4.576  0.0479 -0.5309 -0.5487
18171THY    HA450354   1.073   7.839   4.565 -0.1088  0.3898 -0.5609
18171THY    CA550355   1.094   8.024   4.666 -0.4834  0.4345  0.4920
18171THY    CM150356   0.961   8.027   4.730 -0.5809 -0.6306 -0.0705
18171THY    HM150357   0.967   8.083   4.824  0.0394 -0.3456 -0.5968
18171THY    HM250358   0.927   7.927   4.761  1.5498 -1.1624 -1.0251
18171THY    HM350359   0.886   8.081   4.672 -0.3155  1.7677  3.1611
18171THY    CA650360   1.171   8.143   4.674 -0.5271 -0.7989  0.6322
18171THY    HA650361   1.132   8.216   4.744  1.3295 -1.7878  2.6987
18172THY      O50362   3.656   4.583   3.163  0.3299  0.3581  0.1372
18172THY     HO50363   3.679   4.598   3.070  0.3505  0.3603  0.1189
18172THY    CA150364   3.650   4.458   3.182 -0.3847  0.1072  0.3909
18172THY    CA250365   3.614   4.406   3.307 -0.4263 -0.5437  0.3118
18172THY    CP150366   3.563   4.512   3.405 -0.3077 -0.0699  0.4902
18172THY    HP150367   3.515   4.591   3.346 -0.3209  0.0683  0.5863
18172THY    CP250368   3.689   4.572   3.481  0.3271 -0.1918 -0.1203
18172THY    HP250369   3.719   4.501   3.559  2.1864 -0.9641 -0.2539
18172THY    HP350370   3.666   4.659   3.543 -0.7255  1.3086 -1.3950
18172THY    HP450371   3.774   4.588   3.414 -1.2278 -1.8101  1.8326
18172THY    CP350372   3.452   4.464   3.499 -0.1943 -0.3154 -0.4997
18172THY    HP550373   3.425   4.545   3.567  0.9263 -0.0349 -0.3415
18172THY    HP650374   3.488   4.377   3.555  0.0371  0.4125  0.0504
18172THY    HP750375   3.362   4.435   3.444 -1.6349  0.2871  2.5026
18172THY    CA350376   3.608   4.265   3.332  1.4606  0.6022 -0.3469
18172THY    HA350377   3.560   4.220   3.418 -1.2708 -2.9792 -5.2034
18172THY    CA450378   3.644   4.189   3.221  0.6216 -0.6318  0.0847
18172THY    HA450379   3.637   4.082   3.242 -0.6054  1.1803  0.4735
18172THY    CA550380   3.698   4.237   3.100  0.2686 -0.1385  0.1992
18172THY    CM150381   3.736   4.146   2.993  0.1728  0.2180  0.7454
18172THY    HM150382   3.801   4.192   2.918  0.4157  0.9084  1.5561
18172THY    HM250383   3.646   4.112   2.940  0.3372  0.0166  0.6300
18172THY    HM350384   3.785   4.053   3.022  0.0512  2.5785  1.3446
18172THY    CA650385   3.700   4.377   3.082  0.1444  0.2566 -0.1822
18172THY    HA650386   3.742   4.421   2.992  0.3989  0.8499  0.8000
18173THY      O50387   2.120   8.060   2.480  0.3136 -0.5188 -0.1891
18173THY     HO50388   2.078   8.140   2.517  0.2574  0.2999 -0.5924
18173THY    CA150389   2.020   7.986   2.424 -0.0810  0.4038 -0.0291
18173THY    CA250390   2.028   7.845   2.419 -0.2288  0.1566 -0.3201
18173THY    CP150391   2.159   7.774   2.463 -0.1144 -0.3600  0.4325
18173THY    HP150392   2.245   7.841   2.471 -0.6228  0.2254  1.0277
18173THY    CP250393   2.213   7.665   2.360 -0.4489 -0.4535  0.0136
18173THY    HP250394   2.280   7.709   2.285 -1.0544 -0.4128  1.0575
18173THY    HP350395   2.130   7.602   2.326 -0.5906 -0.6680  0.3109
18173THY    HP450396   2.273   7.595   2.418 -0.7734  0.3976  0.4116
18173THY    CP350397   2.131   7.710   2.601 -0.4032  0.3065  0.1676
18173THY    HP550398   2.216   7.652   2.638 -0.3088  1.3863  0.9575
18173THY    HP650399   2.045   7.642   2.596 -1.1836  0.0481  1.1273
18173THY    HP750400   2.113   7.781   2.683  1.1756  1.3202 -0.5621
18173THY    CA350401   1.914   7.778   2.375  0.2303 -0.1193 -0.5394
18173THY    HA350402   1.909   7.671   2.391  0.9315  0.2995 -0.5157
18173THY    CA450403   1.806   7.852   2.334  0.2234  0.2765 -0.1398
18173THY    HA450404   1.717   7.794   2.311 -0.0506  2.9517 -0.9493
18173THY    CA550405   1.792   7.991   2.337 -0.4565 -0.4306 -0.2679
18173THY    CM150406   1.671   8.067   2.290 -0.5217 -0.0301 -0.3967
18173THY    HM150407   1.688   8.175   2.300 -0.9710 -1.4948 -0.1711
18173THY    HM250408   1.583   8.042   2.350  0.4205  0.9996 -1.3377
18173THY    HM350409   1.657   8.043   2.184  0.4369 -0.4594  0.8043
18173THY    CA650410   1.910   8.056   2.378  0.2933 -0.5793 -0.4912
18173THY    HA650411   1.918   8.163   2.366  2.3220 -0.1742 -0.5562
18174THY      O50412   1.053   3.515   4.295  0.0412 -0.7370  0.2936
18174THY     HO50413   0.995   3.448   4.255  1.3951 -2.3052  0.0017
18174THY    CA150414   1.000   3.544   4.416 -0.2901 -0.1667 -0.3712
18174THY    CA250415   1.059   3.636   4.509  0.1101  0.1344  0.5389
18174THY    CP150416   1.178   3.726   4.477  0.1557 -0.0735  0.0918
18174THY    HP150417   1.206   3.703   4.374  2.9618  1.0427 -1.9666
18174THY    CP250418   1.294   3.690   4.567  0.6797  0.3795  0.5254
18174THY    HP250419   1.326   3.585   4.568  1.9688  2.9023  0.8583
18174THY    HP350420   1.273   3.721   4.670  1.7682  1.0604 -0.8979
18174THY    HP450421   1.384   3.747   4.540  0.9218 -0.2681 -0.1475
18174THY    CP350422   1.137   3.874   4.487  0.5533 -0.0109  0.4647
18174THY    HP550423   1.226   3.933   4.461  0.4650  1.1500  1.1454
18174THY    HP650424   1.105   3.909   4.586 -1.7651 -0.5046 -0.1114
18174THY    HP750425   1.065   3.897   4.407  1.3449 -0.5331  1.1999
18174THY    CA350426   0.992   3.653   4.636 -0.4555  0.5683  0.2159
18174THY    HA350427   1.034   3.724   4.707  0.6645 -0.4353  0.5798
18174THY    CA450428   0.890   3.557   4.670 -0.2414  0.0266  0.8163
18174THY    HA450429   0.854   3.549   4.772  1.8426  0.9974  2.9711
18174THY    CA550430   0.835   3.475   4.578  0.2353  0.0177 -0.5018
18174THY    CM150431   0.724   3.379   4.614 -0.4637  0.2673  0.0365
18174THY    HM150432   0.625   3.424   4.617 -0.1808  1.3243  0.6347
18174THY    HM250433   0.739   3.328   4.710  0.5558 -0.8138 -1.8460
18174THY    HM350434   0.716   3.293   4.546 -1.3889  0.6059 -0.1559
18174THY    CA650435   0.880   3.481   4.449 -0.4198 -0.3620 -0.1153
18174THY    HA650436   0.832   3.427   4.367 -2.8482  0.8280  0.0847
18175THY      O50437   8.996   1.497   6.995  0.4576  0.0218 -0.4550
18175THY     HO50438   8.987   1.462   6.905 -0.8260  0.1147 -0.4270
18175THY    CA150439   8.910   1.598   6.999  0.2582 -0.3569  0.1340
18175THY    CA250440   8.912   1.698   7.096  0.5522 -0.2036  0.3971
18175THY    CP150441   9.042   1.710   7.181  0.0850  0.1387  0.0795
18175THY    HP150442   9.089   1.611   7.190  0.4842 -3.0157 -0.1117
18175THY    CP250443   9.024   1.767   7.322 -1.0444 -0.0896 -0.5536
18175THY    HP250444   9.116   1.743   7.377 -0.6891  0.6706  2.2109
18175THY    HP350445   8.940   1.710   7.363 -0.6601 -0.4932 -1.4317
18175THY    HP450446   9.003   1.873   7.333 -2.7034  0.2703 -0.8966
18175THY    CP350447   9.153   1.793   7.112  1.0743  0.2038 -0.1942
18175THY    HP550448   9.114   1.894   7.095 -0.2617 -0.8258 -0.8508
18175THY    HP650449   9.187   1.750   7.017  0.3609  0.9575 -2.5789
18175THY    HP750450   9.230   1.800   7.189  1.5461 -0.1697 -1.0870
18175THY    CA350451   8.802   1.793   7.101 -0.0340  0.6521 -0.2720
18175THY    HA350452   8.810   1.877   7.169 -1.1647  1.6178 -0.9197
18175THY    CA450453   8.698   1.781   6.998 -0.3577 -0.3052  0.5235
18175THY    HA450454   8.609   1.843   6.992 -3.0410  0.1815 -2.9301
18175THY    CA550455   8.698   1.671   6.913 -0.1776 -0.4212 -0.7248
18175THY    CM150456   8.595   1.651   6.814 -0.1055  0.5013 -0.0544
18175THY    HM150457   8.509   1.718   6.829 -0.8162  0.9544 -1.0334
18175THY    HM250458   8.556   1.549   6.807 -0.7804  0.0680  0.2309
18175THY    HM350459   8.638   1.667   6.715 -1.4336 -0.2845 -1.0738
18175THY    CA650460   8.806   1.581   6.912  0.4991 -0.2194  0.0418
18175THY    HA650461   8.803   1.500   6.840  2.0405 -0.0079 -0.2228
18176THY      O50462   6.829   6.227   5.812  0.8521 -0.1048  0.0471
18176THY     HO50463   6.808   6.312   5.768  1.9562 -1.8775 -0.5387
18176THY    CA150464   6.772   6.234   5.940  0.3860  0.4288 -0.0126
18176THY    CA250465   6.767   6.119   6.015 -0.0403  0.3947  0.1749
18176THY    CP150466   6.837   5.988   5.962 -0.3448 -0.4510  1.4864
18176THY    HP150467   6.925   6.011   5.900 -0.8751 -1.9514 -0.2732
18176THY    CP250468   6.742   5.896   5.885  0.4678  0.3618  0.3957
18176THY    HP250469   6.790   5.806   5.845 -0.2681 -2.2252  1.0692
18176THY    HP350470   6.703   5.949   5.797  0.5508  1.2390  1.9782
18176THY    HP450471   6.648   5.880   5.938  0.4485  1.3874  3.3074
18176THY    CP350472   6.884   5.889   6.074 -0.3203 -0.1703 -0.5282
18176THY    HP550473   6.810   5.823   6.122 -2.1751  1.0565  2.2243
18176THY    HP650474   6.906   5.956   6.158 -1.3178  1.5227 -2.2161
18176THY    HP750475   6.971   5.831   6.043  0.7383 -0.6794  1.2386
18176THY    CA350476   6.712   6.122   6.149  0.6348  0.1757 -0.0266
18176THY    HA350477   6.701   6.031   6.208  2.0289 -0.4610 -0.6320
18176THY    CA450478   6.653   6.248   6.192  0.0213  0.1475  0.2668
18176THY    HA450479   6.601   6.244   6.287  1.1560  0.8643  1.6237
18176THY    CA550480   6.661   6.363   6.107  0.2668 -0.4870  0.5767
18176THY    CM150481   6.600   6.488   6.161 -0.0525  0.0766 -0.0640
18176THY    HM150482   6.663   6.520   6.245  0.4316 -1.0755  2.1864
18176THY    HM250483   6.499   6.464   6.198 -0.3056 -1.4686 -1.5515
18176THY    HM350484   6.585   6.571   6.091 -0.1180  1.7691  1.4123
18176THY    CA650485   6.714   6.353   5.978  0.6070 -0.2487  0.4403
18176THY    HA650486   6.704   6.442   5.917 -0.9652  1.4722  1.5223
18177THY      O50487   7.868   0.984   3.422  0.0454 -0.6412  0.0414
18177THY     HO50488   7.869   1.074   3.386 -1.5824  2.6352  1.5387
18177THY    CA150489   7.851   0.903   3.312  0.6167 -0.1244  0.0905
18177THY    CA250490   7.733   0.820   3.302 -0.5897 -0.2582  0.2741
18177THY    CP150491   7.632   0.816   3.423 -0.6357  0.1249  1.1572
18177THY    HP150492   7.648   0.909   3.479 -0.7473  2.1734  0.0109
18177THY    CP250493   7.645   0.700   3.527 -0.8462 -0.2651  0.1982
18177THY    HP250494   7.579   0.700   3.614 -0.1140  0.3030 -0.4499
18177THY    HP350495   7.747   0.694   3.566 -0.8096 -0.4139 -0.1914
18177THY    HP450496   7.637   0.612   3.462  1.3638 -1.1058  0.5643
18177THY    CP350497   7.490   0.823   3.360  0.1913  0.6164 -0.8932
18177THY    HP550498   7.490   0.896   3.279 -0.4188 -0.5007 -2.0889
18177THY    HP650499   7.415   0.841   3.438 -1.2591 -0.6791 -1.1741
18177THY    HP750500   7.464   0.722   3.327 -0.2081 -2.7344  0.1998
18177THY    CA350501   7.712   0.735   3.194 -0.0132  0.8678 -0.5087
18177THY    HA350502   7.632   0.662   3.196  0.6645  2.2758 -1.2525
18177THY    CA450503   7.801   0.752   3.079  0.2154  0.1894 -0.7767
18177THY    HA450504   7.799   0.698   2.985 -1.1064 -0.3213  0.0866
18177THY    CA550505   7.923   0.829   3.103  0.0511 -0.0463  0.9456
18177THY    CM150506   8.018   0.847   2.992 -0.5003  0.3713 -0.6716
18177THY    HM150507   7.962   0.859   2.899 -1.0499  1.0762  4.1366
18177THY    HM250508   8.091   0.766   2.981 -0.7760  1.2915 -1.0711
18177THY    HM350509   8.090   0.927   3.013 -0.4762  1.0804 -0.8706
18177THY    CA650510   7.943   0.905   3.219 -0.4141  0.6639 -0.2365
18177THY    HA650511   8.038   0.951   3.243 -1.5264  0.8754  2.0796
18178THY      O50512   8.816   1.456   2.701 -0.2822 -0.5277 -0.2526
18178THY     HO50513   8.830   1.449   2.797 -0.3036 -0.6305 -2.3472
18178THY    CA150514   8.773   1.581   2.669  0.0025 -0.1798  0.0957
18178THY    CA250515   8.856   1.695   2.664 -0.2686  0.2371 -0.8543
18178THY    CP150516   9.002   1.680   2.682 -0.5265  0.1567 -0.3178
18178THY    HP150517   9.027   1.574   2.672 -1.9770 -1.0797 -0.5824
18178THY    CP250518   9.050   1.740   2.813  0.0120 -0.6899 -0.2716
18178THY    HP250519   9.062   1.849   2.814  0.8785  2.8577 -0.2667
18178THY    HP350520   9.139   1.688   2.849  0.1568  0.3630  0.6633
18178THY    HP450521   8.980   1.721   2.895  0.0958 -0.8565 -1.3381
18178THY    CP350522   9.080   1.755   2.569 -0.2174 -0.4040 -1.2162
18178THY    HP550523   9.187   1.733   2.581  0.0409 -2.1185 -1.0264
18178THY    HP650524   9.078   1.863   2.582  1.4363 -0.9628 -1.0915
18178THY    HP750525   9.057   1.728   2.465  0.7252 -1.6984  2.4533
18178THY    CA350526   8.790   1.820   2.633  0.0890  0.0111 -0.4141
18178THY    HA350527   8.849   1.911   2.632 -1.6711  1.0486  0.7870
18178THY    CA450528   8.655   1.818   2.606 -0.0600 -0.5105 -0.5073
18178THY    HA450529   8.609   1.911   2.572  0.0083  1.3319  0.2462
18178THY    CA550530   8.579   1.700   2.607 -0.1796  0.7765 -0.3188
18178THY    CM150531   8.431   1.700   2.575  0.3527  0.0911  0.3607
18178THY    HM150532   8.387   1.798   2.595 -3.0412  0.0084 -1.0218
18178THY    HM250533   8.378   1.629   2.640 -0.0450  0.1253  0.6855
18178THY    HM350534   8.430   1.672   2.469  1.9574  0.0547  0.3611
18178THY    CA650535   8.639   1.583   2.645 -0.2754  0.1555 -0.0720
18178THY    HA650536   8.585   1.489   2.650  1.4770  1.6898 -1.0893
18179THY      O50537   9.131   6.060   6.947 -0.0020  0.1222 -0.6291
18179THY     HO50538   9.213   6.038   6.900  1.1982  1.9553 -0.2606
18179THY    CA150539   9.141   6.193   6.983  1.0068 -0.2993 -0.2085
18179THY    CA250540   9.086   6.233   7.107 -0.2474  0.3825  0.2513
18179THY    CP150541   9.043   6.127   7.213  0.5864  0.1200 -0.2820
18179THY    HP150542   9.070   6.023   7.192 -0.7111 -0.6194 -0.4995
18179THY    CP250543   8.886   6.114   7.211 -0.1855 -0.2495  0.1405
18179THY    HP250544   8.859   6.043   7.289  2.6920 -1.3562 -2.3824
18179THY    HP350545   8.854   6.062   7.120 -1.2189  0.9080 -1.2994
18179THY    HP450546   8.837   6.212   7.220  0.2664  1.8857  0.2048
18179THY    CP350547   9.079   6.157   7.360 -0.1834  0.0041 -0.8568
18179THY    HP550548   9.026   6.249   7.386 -0.7254  1.0190 -1.4471
18179THY    HP650549   9.187   6.176   7.365 -0.1456 -1.7610 -0.4378
18179THY    HP750550   9.057   6.074   7.428 -0.0809  0.8838 -0.1800
18179THY    CA350551   9.066   6.368   7.137  0.4546 -0.5801 -0.4276
18179THY    HA350552   9.018   6.400   7.229 -0.6038 -0.1158 -3.0488
18179THY    CA450553   9.108   6.465   7.046  0.1108  0.6833 -0.5465
18179THY    HA450554   9.104   6.573   7.059  3.3685 -2.9363  0.2692
18179THY    CA550555   9.172   6.420   6.929  0.2760  0.3389  0.7530
18179THY    CM150556   9.236   6.520   6.845 -0.2244 -0.1284 -0.4848
18179THY    HM150557   9.224   6.623   6.880  3.3246 -1.0308  0.3698
18179THY    HM250558   9.197   6.513   6.742 -0.7376  0.1291 -1.7171
18179THY    HM350559   9.344   6.503   6.833  0.3669 -0.2446  2.7534
18179THY    CA650560   9.188   6.285   6.893  0.7765 -0.7048 -0.3460
18179THY    HA650561   9.229   6.256   6.796 -1.3727 -2.1842  1.2187
18180THY      O50562   8.486   3.127   4.672  0.2130  0.5017  0.5257
18180THY     HO50563   8.454   3.219   4.669 -0.5255  1.7109  0.3346
18180THY    CA150564   8.610   3.144   4.638 -0.3042  0.2608  0.4570
18180THY    CA250565   8.686   3.035   4.592 -0.4305 -0.2063  0.4377
18180THY    CP150566   8.627   2.894   4.604 -0.1652  0.0822  0.0736
18180THY    HP150567   8.557   2.877   4.686 -1.5595 -1.0360  0.2553
18180THY    CP250568   8.739   2.791   4.613 -0.6310 -0.4711 -0.4873
18180THY    HP250569   8.819   2.809   4.686 -1.3106  0.0876  0.3230
18180THY    HP350570   8.796   2.773   4.521  0.6826  0.2292 -0.0143
18180THY    HP450571   8.700   2.692   4.641  4.0206  1.7198 -2.0100
18180THY    CP350572   8.543   2.869   4.475 -0.2872 -0.3695  0.4362
18180THY    HP550573   8.480   2.952   4.440  2.6677 -4.1487  1.3959
18180THY    HP650574   8.468   2.796   4.507 -2.4172 -2.5761  1.4938
18180THY    HP750575   8.590   2.829   4.385 -0.2179 -0.3074  0.3763
18180THY    CA350576   8.814   3.073   4.545 -0.4988  0.0674 -0.4545
18180THY    HA350577   8.887   3.001   4.510  0.4483 -1.4027  1.1314
18180THY    CA450578   8.858   3.208   4.538 -0.0171 -0.4495 -0.2079
18180THY    HA450579   8.957   3.234   4.502  0.3476  1.3902  1.2222
18180THY    CA550580   8.773   3.310   4.578 -0.8295 -0.0178  0.1404
18180THY    CM150581   8.808   3.455   4.545  0.0453 -0.7749 -0.6441
18180THY    HM150582   8.719   3.512   4.518 -1.2223  2.2612 -0.9761
18180THY    HM250583   8.888   3.467   4.470  1.2797  0.6262  0.2108
18180THY    HM350584   8.850   3.505   4.633  3.8450 -1.8914 -1.5268
18180THY    CA650585   8.654   3.276   4.636  0.1322 -0.7218 -0.5246
18180THY    HA650586   8.595   3.353   4.684 -0.7505  0.7997 -2.0740
18181THY      O50587   0.100   2.166   2.667 -0.6307 -0.0432 -0.4708
18181THY     HO50588   0.081   2.141   2.575  0.3788 -0.3624 -0.1571
18181THY    CA150589   0.170   2.062   2.722  0.1609 -0.4072 -0.4154
18181THY    CA250590   0.223   2.076   2.854  0.4257  0.5950 -0.1005
18181THY    CP150591   0.224   2.212   2.924  0.7999  0.3903 -0.6207
18181THY    HP150592   0.234   2.291   2.850 -1.1564  0.4807 -0.2334
18181THY    CP250593   0.344   2.227   3.019 -0.3290  0.4177  0.5674
18181THY    HP250594   0.336   2.162   3.107  0.0795  0.2040  0.2205
18181THY    HP350595   0.345   2.335   3.034  1.5520  3.2764  0.2859
18181THY    HP450596   0.440   2.202   2.972 -1.2264 -2.2276  1.7614
18181THY    CP350597   0.092   2.245   3.005  0.2597  0.5232 -0.6155
18181THY    HP550598   0.004   2.209   2.950 -0.1977  0.4694  0.5359
18181THY    HP650599   0.067   2.351   3.020 -0.3520  0.2035 -0.7104
18181THY    HP750600   0.098   2.206   3.107 -1.0279  0.7943 -0.1579
18181THY    CA350601   0.259   1.962   2.924 -0.0151  0.7617  0.0788
18181THY    HA350602   0.302   1.970   3.023  1.1946  0.4968 -2.2937
18181THY    CA450603   0.254   1.841   2.856  0.0416 -0.4035 -0.0517
18181THY    HA450604   0.286   1.750   2.905  0.2045  0.5654  0.5058
18181THY    CA550605   0.221   1.838   2.719 -0.6224  0.0153  0.2578
18181THY    CM150606   0.237   1.705   2.646 -0.4976 -0.6529 -0.4848
18181THY    HM150607   0.152   1.640   2.671 -2.0693 -1.5856  1.0955
18181THY    HM250608   0.330   1.652   2.670  0.2302  2.2141  1.8425
18181THY    HM350609   0.234   1.719   2.537  1.4743 -0.7528 -0.6527
18181THY    CA650610   0.176   1.948   2.647  0.4278 -0.2317  1.1775
18181THY    HA650611   0.156   1.949   2.540  3.0718 -0.8722 -1.3341
18182THY      O50612   7.957   2.128   1.899 -0.0707 -0.4189 -0.1686
18182THY     HO50613   8.037   2.102   1.849 -0.3385 -2.1342  1.9989
18182THY    CA150614   7.923   2.253   1.857  0.3566  0.0969  0.3724
18182THY    CA250615   7.839   2.324   1.937 -0.2025  0.0012  0.1563
18182THY    CP150616   7.758   2.264   2.055  0.5505 -0.0707  0.8861
18182THY    HP150617   7.809   2.173   2.090 -1.9590  3.5313  0.6267
18182THY    CP250618   7.614   2.235   1.989 -0.7057  0.0185 -0.2351
18182THY    HP250619   7.547   2.187   2.061 -1.2187 -0.9067 -0.9405
18182THY    HP350620   7.630   2.165   1.906 -0.0092  0.3922 -0.5268
18182THY    HP450621   7.577   2.333   1.956 -2.3679  1.3394 -0.3651
18182THY    CP350622   7.743   2.342   2.177  0.1159 -0.8171  0.3270
18182THY    HP550623   7.848   2.360   2.202  0.1685 -0.8591  0.0820
18182THY    HP650624   7.685   2.287   2.252  1.3457 -1.5417 -2.0747
18182THY    HP750625   7.691   2.438   2.164  0.9605  0.2233  0.9479
18182THY    CA350626   7.809   2.456   1.902 -0.3099 -0.3722 -0.4333
18182THY    HA350627   7.728   2.505   1.954  0.4150  0.1950  0.1800
18182THY    CA450628   7.871   2.507   1.782  0.3288 -0.5024  0.1660
18182THY    HA450629   7.859   2.611   1.753 -2.0349 -0.4889 -0.0336
18182THY    CA550630   7.960   2.428   1.707  0.1577 -0.2263 -0.6983
18182THY    CM150631   8.028   2.494   1.582 -0.3121  0.0830  0.1138
18182THY    HM150632   7.957   2.540   1.512  0.7913 -1.0933  0.0906
18182THY    HM250633   8.090   2.432   1.517 -1.8663 -1.2100 -0.1691
18182THY    HM350634   8.091   2.579   1.610  0.1832 -1.2143  0.1943
18182THY    CA650635   7.985   2.299   1.742  0.0981  0.3357 -0.1150
18182THY    HA650636   8.048   2.233   1.682 -1.5144  0.7934 -2.2003
18183THY      O50637   2.467   5.962   3.204  0.5769  0.5485 -0.2665
18183THY     HO50638   2.436   5.898   3.269 -0.1116  0.8886  0.3970
18183THY    CA150639   2.556   6.045   3.260  0.1743  0.1646  0.5496
18183THY    CA250640   2.581   6.168   3.207 -0.3575  0.0254  0.1069
18183THY    CP150641   2.514   6.214   3.075 -0.6176 -0.8451 -0.4209
18183THY    HP150642   2.424   6.157   3.053 -1.8628  0.4671  0.9635
18183THY    CP250643   2.608   6.160   2.968 -0.2521  0.3149 -0.3232
18183THY    HP250644   2.563   6.162   2.868 -1.6442  0.9090 -0.6443
18183THY    HP350645   2.641   6.058   2.987  4.6953 -0.7154  0.8090
18183THY    HP450646   2.704   6.212   2.957  0.6550  0.3485 -1.9295
18183THY    CP350647   2.497   6.363   3.054  0.4559 -0.5641 -0.2188
18183THY    HP550648   2.583   6.428   3.073 -2.1088 -1.5341  3.7639
18183THY    HP650649   2.411   6.402   3.109  1.1832  0.8486 -0.5295
18183THY    HP750650   2.471   6.383   2.950  0.8244 -0.7114 -0.4978
18183THY    CA350651   2.681   6.242   3.270 -0.2274  0.3131 -0.0965
18183THY    HA350652   2.704   6.339   3.228 -0.6957  2.1274  0.8328
18183THY    CA450653   2.752   6.194   3.382  0.7442  0.0059 -0.2471
18183THY    HA450654   2.827   6.255   3.431 -2.0271  1.6461  2.1662
18183THY    CA550655   2.712   6.074   3.438  0.7253 -0.1756 -0.5457
18183THY    CM150656   2.776   6.024   3.565 -0.2644 -1.1496  0.2072
18183THY    HM150657   2.773   6.090   3.652 -0.9816  2.1967 -3.8777
18183THY    HM250658   2.882   6.005   3.546  0.2690  2.1397 -0.5802
18183THY    HM350659   2.737   5.932   3.610 -1.4814  2.1281  2.1717
18183THY    CA650660   2.611   6.002   3.380 -0.5519 -0.4464  0.0393
18183THY    HA650661   2.576   5.909   3.424  2.4924  1.3938 -0.3945
18184THY      O50662   5.531   3.111   7.235 -0.0414  0.1067 -0.1494
18184THY     HO50663   5.542   3.201   7.270 -1.6360  0.3070 -0.0024
18184THY    CA150664   5.624   3.035   7.285  0.2187 -0.6618 -0.4840
18184THY    CA250665   5.614   2.893   7.290 -0.3064 -0.2659 -0.0869
18184THY    CP150666   5.500   2.808   7.231 -0.8010 -0.2319 -0.0008
18184THY    HP150667   5.428   2.872   7.180  0.1636 -3.0819 -1.0219
18184THY    CP250668   5.427   2.727   7.343 -0.3164  0.4184  0.1646
18184THY    HP250669   5.449   2.767   7.442 -2.4560  1.2883 -0.6626
18184THY    HP350670   5.472   2.627   7.343  1.6558 -2.2547  0.9410
18184THY    HP450671   5.317   2.735   7.337 -0.1946  0.4576  2.5990
18184THY    CP350672   5.546   2.706   7.121  0.3716  0.3921  0.0454
18184THY    HP550673   5.589   2.614   7.163  0.2052 -0.6367 -0.5104
18184THY    HP650674   5.617   2.760   7.059  0.8906 -0.3143 -1.4059
18184THY    HP750675   5.459   2.682   7.058  0.8692 -0.2536 -0.0719
18184THY    CA350676   5.719   2.827   7.354  0.0997 -0.5837  0.0036
18184THY    HA350677   5.721   2.719   7.368  1.7101  1.4505  0.2299
18184THY    CA450678   5.829   2.890   7.399 -0.0213  0.2453  0.2743
18184THY    HA450679   5.906   2.835   7.454 -0.0307 -1.1038 -1.1425
18184THY    CA550680   5.840   3.032   7.396 -0.4488  0.4723 -0.1573
18184THY    CM150681   5.949   3.105   7.460 -0.6789  0.0594 -1.1883
18184THY    HM150682   6.043   3.111   7.404 -2.5455 -3.1983 -0.1543
18184THY    HM250683   5.959   3.058   7.559  1.1658 -0.0967 -1.2159
18184THY    HM350684   5.935   3.211   7.484  0.0973 -0.9859 -0.8307
18184THY    CA650685   5.739   3.102   7.338 -0.2832 -0.1595  0.0362
18184THY    HA650686   5.756   3.208   7.348  1.6987  2.1216 -0.4217
18185THY      O50687   7.127   5.121   2.555  0.1671  0.3311  1.0195
18185THY     HO50688   7.070   5.127   2.477 -0.0577  0.1150 -2.1650
18185THY    CA150689   7.062   5.045   2.642 -0.5280  0.2028  0.0641
18185THY    CA250690   7.116   5.026   2.770  0.2892 -0.2014  0.0858
18185THY    CP150691   7.231   5.106   2.813 -0.0180 -0.1896 -0.3553
18185THY    HP150692   7.242   5.193   2.747  0.3515 -2.4623 -2.0388
18185THY    CP250693   7.359   5.024   2.794 -0.2694 -0.0048  0.4058
18185THY    HP250694   7.358   4.993   2.689  2.0772 -0.1271  0.5882
18185THY    HP350695   7.362   4.934   2.857  0.5019 -1.6498 -0.7547
18185THY    HP450696   7.446   5.090   2.805  0.7203 -1.0063 -0.6934
18185THY    CP350697   7.222   5.151   2.958 -0.0306  0.1226  0.1492
18185THY    HP550698   7.240   5.068   3.027  5.3477 -0.2187  0.7097
18185THY    HP650699   7.134   5.210   2.986 -0.4916 -0.0178 -0.4592
18185THY    HP750700   7.305   5.220   2.974  2.3342 -0.0779 -2.4466
18185THY    CA350701   7.057   4.929   2.859  0.0098  1.2390  0.5194
18185THY    HA350702   7.100   4.905   2.956  3.2731 -0.0846  0.4136
18185THY    CA450703   6.929   4.873   2.817 -0.1677  0.2630  0.2604
18185THY    HA450704   6.883   4.797   2.880 -0.7241 -0.4847 -0.0283
18185THY    CA550705   6.870   4.898   2.690 -0.6556  0.3824 -0.3334
18185THY    CM150706   6.734   4.844   2.658 -0.3995  0.0252  0.6156
18185THY    HM150707   6.705   4.870   2.555 -3.0804  0.2980 -0.9134
18185THY    HM250708   6.661   4.902   2.716 -0.2500  0.2765  0.5537
18185THY    HM350709   6.718   4.737   2.675 -0.7861  1.3822  0.8780
18185THY    CA650710   6.937   4.990   2.606 -1.1181 -0.4518  0.4151
18185THY    HA650711   6.898   5.003   2.506 -1.1139 -0.5925 -0.6260
18186THY      O50712   0.979   8.832   3.997  0.6597 -0.0632 -1.1122
18186THY     HO50713   0.891   8.812   3.961 -0.0215  1.4938 -1.0368
18186THY    CA150714   0.971   8.968   3.997 -0.1967 -0.1057  0.2923
18186THY    CA250715   1.098   9.034   4.013  0.0385  0.3345  0.1689
18186THY    CP150716   1.237   8.951   4.015 -0.6001 -0.3708 -0.0903
18186THY    HP150717   1.220   8.855   4.066 -1.4035  0.1586  0.3258
18186THY    CP250718   1.342   9.017   4.110  0.4042  0.0826  0.1743
18186THY    HP250719   1.427   8.955   4.140 -0.4908  2.7473  0.1158
18186THY    HP350720   1.300   9.024   4.211  0.9304  0.2111  1.9795
18186THY    HP450721   1.375   9.114   4.070 -0.5394  0.8099  0.8088
18186THY    CP350722   1.292   8.935   3.875  0.4192 -0.0751 -0.5140
18186THY    HP550723   1.209   8.893   3.818  0.1395 -0.2711  0.2906
18186THY    HP650724   1.372   8.859   3.879  1.2313  0.9635  0.3589
18186THY    HP750725   1.322   9.027   3.824 -1.2251 -1.4339 -0.7027
18186THY    CA350726   1.092   9.179   4.021  0.0380 -0.2924  0.0451
18186THY    HA350727   1.184   9.235   4.025  0.2535 -2.0823 -0.1519
18186THY    CA450728   0.973   9.251   4.004  0.3194 -0.3411  0.0277
18186THY    HA450729   0.958   9.356   4.023 -1.0792 -1.2683  0.0329
18186THY    CA550730   0.851   9.183   3.977  0.4888 -0.6051  0.2968
18186THY    CM150731   0.717   9.246   3.966  1.0769 -0.0111  0.7102
18186THY    HM150732   0.644   9.211   4.041  0.0883 -0.6178  1.4236
18186THY    HM250733   0.694   9.205   3.867  1.1081  0.1052  0.4031
18186THY    HM350734   0.721   9.355   3.955 -4.2045  1.5550  1.3880
18186THY    CA650735   0.848   9.041   3.975 -0.3109 -0.6319  0.2572
18186THY    HA650736   0.755   8.988   3.958 -0.5491 -0.6802  0.6939
18187THY      O50737   6.509   5.723   4.721 -0.7356 -0.4203  0.5072
18187THY     HO50738   6.577   5.714   4.791 -2.6379  2.0762  3.5460
18187THY    CA150739   6.481   5.605   4.664  0.1596  0.4039 -0.0514
18187THY    CA250740   6.461   5.586   4.523 -0.5209 -0.6698  0.0406
18187THY    CP150741   6.476   5.704   4.429  0.7778 -0.1295 -0.2019
18187THY    HP150742   6.489   5.796   4.488 -0.3218  1.7347 -1.1912
18187THY    CP250743   6.339   5.743   4.355 -0.4287 -0.1412 -0.2730
18187THY    HP250744   6.277   5.799   4.425  0.3122 -1.6831  2.6716
18187THY    HP350745   6.284   5.655   4.318  0.5187 -0.5807 -0.7002
18187THY    HP450746   6.363   5.807   4.269  0.2508  1.3996  1.6212
18187THY    CP350747   6.594   5.685   4.325  0.5187 -0.1543  0.1441
18187THY    HP550748   6.559   5.612   4.252 -1.5247 -0.3143  1.2300
18187THY    HP650749   6.687   5.646   4.370 -0.1682 -1.2989 -3.1501
18187THY    HP750750   6.619   5.772   4.264  2.9226  0.9660  0.3217
18187THY    CA350751   6.423   5.461   4.472  0.3906  0.5109 -0.2823
18187THY    HA350752   6.397   5.448   4.367 -0.1364  0.8094 -1.8901
18187THY    CA450753   6.412   5.353   4.563  0.2594 -0.3160 -0.2585
18187THY    HA450754   6.372   5.262   4.520  0.7547 -1.9185  0.2433
18187THY    CA550755   6.422   5.370   4.706  0.5784 -0.4370 -0.8742
18187THY    CM150756   6.406   5.257   4.798 -0.2076 -0.6614  0.1422
18187THY    HM150757   6.411   5.284   4.904 -0.2114 -0.4729 -0.5806
18187THY    HM250758   6.495   5.194   4.793  0.6827 -0.1117  1.3228
18187THY    HM350759   6.310   5.209   4.775 -0.0512 -0.8825 -0.0656
18187THY    CA650760   6.457   5.497   4.750 -0.6741  0.1735 -0.4308
18187THY    HA650761   6.467   5.516   4.857  0.2207  0.1654 -0.8109
18188THY      O50762   1.625   5.652   6.762  0.1579  0.5327 -0.0121
18188THY     HO50763   1.613   5.746   6.740  0.1157  0.8944  0.0705
18188THY    CA150764   1.600   5.637   6.895 -1.0761  0.1472 -0.1654
18188THY    CA250765   1.682   5.545   6.972  0.4966  0.1856 -0.4227
18188THY    CP150766   1.789   5.459   6.904  0.2643 -0.5880  0.2511
18188THY    HP150767   1.778   5.473   6.796  1.0667 -0.6293  0.6671
18188THY    CP250768   1.769   5.317   6.943  0.1557  0.1484  0.1379
18188THY    HP250769   1.667   5.288   6.916 -0.7807  3.0835  0.4219
18188THY    HP350770   1.787   5.305   7.050  0.1121  0.2526  0.9096
18188THY    HP450771   1.836   5.254   6.883  0.0509 -0.4119  0.5507
18188THY    CP350772   1.935   5.500   6.936 -0.1433 -0.5113  0.0928
18188THY    HP550773   1.952   5.494   7.044 -1.1997 -0.3183  0.2867
18188THY    HP650774   1.958   5.605   6.913  1.2001  1.5884  0.3079
18188THY    HP750775   1.998   5.428   6.882  0.2272  0.1864 -0.1084
18188THY    CA350776   1.654   5.546   7.111 -0.2353 -0.1114  0.2268
18188THY    HA350777   1.725   5.484   7.165  1.3263 -4.4673 -2.2565
18188THY    CA450778   1.550   5.628   7.165  1.0818 -0.5867 -0.6398
18188THY    HA450779   1.530   5.616   7.271 -0.7101 -1.0303 -1.9552
18188THY    CA550780   1.471   5.702   7.079  0.8643  0.2840  1.0904
18188THY    CM150781   1.364   5.783   7.130 -1.1143  0.2069 -0.2855
18188THY    HM150782   1.351   5.784   7.239 -0.4801  0.2969  1.7619
18188THY    HM250783   1.273   5.749   7.077  0.4851 -1.3056 -2.5101
18188THY    HM350784   1.392   5.884   7.101 -0.5428 -1.3987 -0.8679
18188THY    CA650785   1.498   5.711   6.947 -1.0010 -0.2105  0.3060
18188THY    HA650786   1.429   5.757   6.876 -0.6953 -2.0245 -1.8168
18189THY      O50787   6.016   4.139   5.427  0.0102  0.5664  0.1295
18189THY     HO50788   6.021   4.142   5.524 -0.4098  0.6860 -1.6782
18189THY    CA150789   6.126   4.069   5.387 -0.1742 -0.2623 -0.1559
18189THY    CA250790   6.141   3.999   5.264 -0.2171  0.0170  0.5283
18189THY    CP150791   6.034   4.014   5.158  1.0270 -0.9065 -0.1646
18189THY    HP150792   5.962   4.089   5.193  1.9745 -0.4033  0.5270
18189THY    CP250793   5.941   3.894   5.148 -0.4737  0.1101 -0.1725
18189THY    HP250794   5.895   3.872   5.245 -0.5153  0.7601  2.4568
18189THY    HP350795   5.997   3.803   5.125 -2.3100 -0.9115 -1.1117
18189THY    HP450796   5.862   3.916   5.075  1.6510 -2.0579  0.6949
18189THY    CP350797   6.091   4.069   5.026  0.8570 -0.3605  0.3211
18189THY    HP550798   6.179   4.134   5.036  1.4384 -0.1433 -0.4787
18189THY    HP650799   6.016   4.115   4.961 -0.1212 -0.3313 -1.1632
18189THY    HP750800   6.127   3.985   4.965  0.2624 -0.4496  0.1271
18189THY    CA350801   6.258   3.920   5.240  0.4700 -0.2835 -1.0353
18189THY    HA350802   6.277   3.859   5.152  1.4084  0.4158 -1.7865
18189THY    CA450803   6.349   3.903   5.342 -0.3107 -0.1327  0.0825
18189THY    HA450804   6.430   3.832   5.331 -1.0489 -0.5450 -0.7157
18189THY    CA550805   6.341   3.979   5.456  0.2316 -0.0600  0.4391
18189THY    CM150806   6.444   3.967   5.573  0.0171 -0.4880 -0.4155
18189THY    HM150807   6.522   3.895   5.546  0.8471 -0.3406  0.4051
18189THY    HM250808   6.388   3.930   5.660 -0.6689 -1.2681 -1.2900
18189THY    HM350809   6.487   4.061   5.609 -3.2617  3.5804 -0.1626
18189THY    CA650810   6.232   4.061   5.477  0.0420  0.0893  0.1047
18189THY    HA650811   6.229   4.126   5.564  0.4152 -1.0046  1.6386
18190THY      O50812   4.139   2.555   5.378 -0.3660  0.3067  0.1914
18190THY     HO50813   4.156   2.471   5.331 -2.2003 -1.5846  0.7651
18190THY    CA150814   4.201   2.556   5.500  0.9071 -0.4454 -0.5989
18190THY    CA250815   4.129   2.596   5.613  1.0483 -0.2126  0.2035
18190THY    CP150816   3.987   2.643   5.598  0.5989 -0.6586 -0.0478
18190THY    HP150817   3.947   2.581   5.516 -0.0434  0.9037 -1.8176
18190THY    CP250818   3.977   2.787   5.556 -0.1961 -0.7565 -0.5598
18190THY    HP250819   3.878   2.820   5.522  0.9640 -0.4126  3.9293
18190THY    HP350820   4.038   2.806   5.467  0.4843 -0.5343 -1.6354
18190THY    HP450821   4.021   2.849   5.634 -0.6256  0.8783 -2.2189
18190THY    CP350822   3.887   2.631   5.719 -0.4561  0.2678  0.4239
18190THY    HP550823   3.878   2.530   5.761 -3.4031  0.0595  0.5158
18190THY    HP650824   3.786   2.660   5.690 -1.4982  0.2946 -2.7604
18190THY    HP750825   3.916   2.698   5.801  2.3434 -0.8332  0.7045
18190THY    CA350826   4.197   2.604   5.738 -0.2952  0.0283  0.3224
18190THY    HA350827   4.145   2.636   5.828 -0.1030  0.4862 -0.6257
18190THY    CA450828   4.325   2.553   5.752 -0.7318 -0.1743 -0.2637
18190THY    HA450829   4.363   2.558   5.854  0.2403 -0.4307 -1.7882
18190THY    CA550830   4.392   2.492   5.639  0.1586 -0.8949 -0.4937
18190THY    CM150831   4.527   2.438   5.657 -0.0376  0.9095 -0.5746
18190THY    HM150832   4.543   2.387   5.753  0.3685  1.1654  0.0328
18190THY    HM250833   4.605   2.511   5.635 -0.1154 -0.7714 -0.9544
18190THY    HM350834   4.531   2.356   5.583 -1.6586  1.6142 -1.3510
18190THY    CA650835   4.328   2.504   5.517 -0.3477  0.0606 -0.5112
18190THY    HA650836   4.383   2.469   5.430 -1.0789 -1.4597  1.8604
18191THY      O50837   7.026   1.526   3.355 -0.0172  0.0878 -0.1265
18191THY     HO50838   6.999   1.477   3.275 -1.2575  0.1360  0.4434
18191THY    CA150839   7.142   1.592   3.324 -0.2561  0.5372 -0.3070
18191THY    CA250840   7.243   1.616   3.417 -0.2375 -0.3266 -0.3112
18191THY    CP150841   7.242   1.556   3.562 -0.1580  0.2672 -0.5528
18191THY    HP150842   7.154   1.491   3.575  0.8895  0.7178 -1.9109
18191THY    CP250843   7.227   1.670   3.670  0.3501 -0.4072  0.4615
18191THY    HP250844   7.130   1.722   3.673 -0.6878  0.2116 -1.4079
18191THY    HP350845   7.295   1.753   3.650  1.3173  0.9869  0.0442
18191THY    HP450846   7.247   1.634   3.772  0.2165  0.1645  1.9123
18191THY    CP350847   7.354   1.455   3.579  0.5200 -0.1285  0.0912
18191THY    HP550848   7.453   1.492   3.549  0.9301  0.5925 -0.3939
18191THY    HP650849   7.335   1.364   3.521 -0.8391 -2.6419  1.8684
18191THY    HP750850   7.359   1.428   3.686 -0.1235  0.5298  2.3342
18191THY    CA350851   7.357   1.693   3.380 -0.2260 -0.0729 -0.0450
18191THY    HA350852   7.439   1.721   3.446 -0.9971  0.8090  0.1680
18191THY    CA450853   7.370   1.734   3.247  0.1531 -0.2425  0.3100
18191THY    HA450854   7.463   1.774   3.208  0.4943  1.4471  1.2381
18191THY    CA550855   7.268   1.721   3.160  0.3069 -0.1359  0.2870
18191THY    CM150856   7.277   1.765   3.021 -0.3635  0.5402 -0.5121
18191THY    HM150857   7.231   1.863   3.009  3.4781  0.8794  1.5213
18191THY    HM250858   7.232   1.687   2.958  1.8125 -1.7649 -0.0321
18191THY    HM350859   7.379   1.773   2.981 -0.2724  0.7651 -0.5264
18191THY    CA650860   7.153   1.651   3.196  0.6902 -0.0773  0.1527
18191THY    HA650861   7.071   1.649   3.124  0.4734  0.1394 -2.5646
18192THY      O50862   2.168   5.997   7.618  0.1447  0.7795 -0.2396
18192THY     HO50863   2.163   6.024   7.524 -0.4530  0.5652 -1.0604
18192THY    CA150864   2.286   5.932   7.646 -0.2356  0.2136 -0.1377
18192THY    CA250865   2.369   5.973   7.751 -0.0035  0.3674 -0.3396
18192THY    CP150866   2.347   6.101   7.827 -0.3694  0.4599 -0.6296
18192THY    HP150867   2.238   6.114   7.830 -0.4364  2.0656 -1.3678
18192THY    CP250868   2.395   6.220   7.755 -0.3072  0.6493 -0.1183
18192THY    HP250869   2.340   6.312   7.778  0.5172  0.9241  0.3189
18192THY    HP350870   2.380   6.201   7.648  0.7553  0.9199 -2.9779
18192THY    HP450871   2.503   6.228   7.771  0.2996 -1.6389 -2.4868
18192THY    CP350872   2.402   6.099   7.972 -0.2119 -0.1340 -0.0255
18192THY    HP550873   2.374   6.007   8.024  0.4469  1.3831  0.5961
18192THY    HP650874   2.363   6.191   8.016 -0.1935 -2.0502  0.9620
18192THY    HP750875   2.511   6.103   7.984  0.2116 -3.3928  1.0068
18192THY    CA350876   2.491   5.903   7.769  0.2693  0.7358 -0.6530
18192THY    HA350877   2.565   5.929   7.844  1.3230 -0.9973  1.6419
18192THY    CA450878   2.517   5.786   7.698 -0.0650 -0.0299  0.7733
18192THY    HA450879   2.595   5.718   7.731 -0.5998 -0.2732  0.0272
18192THY    CA550880   2.436   5.746   7.589 -0.7562  0.3520 -1.1082
18192THY    CM150881   2.464   5.631   7.488 -0.0966 -0.1957 -1.0278
18192THY    HM150882   2.369   5.582   7.465 -0.1595 -0.5963 -0.7233
18192THY    HM250883   2.526   5.561   7.545 -1.2358  0.7121 -1.3338
18192THY    HM350884   2.516   5.673   7.401 -0.4890 -0.3593 -0.8776
18192THY    CA650885   2.325   5.825   7.561  0.4061 -0.3768 -0.3411
18192THY    HA650886   2.258   5.792   7.483 -1.4905  1.0574 -0.0868
18193THY      O50887   4.928   1.899   2.531  0.4287  0.3960  0.1684
18193THY     HO50888   4.920   1.974   2.592  1.3121  1.8671 -0.8899
18193THY    CA150889   4.925   1.797   2.610  1.1922 -0.4908 -0.4790
18193THY    CA250890   4.921   1.667   2.557  0.6324 -0.4899 -0.3168
18193THY    CP150891   4.962   1.637   2.412  0.0767 -0.3866 -0.5415
18193THY    HP150892   4.956   1.733   2.358  2.1639 -2.7587 -1.6097
18193THY    CP250893   4.863   1.541   2.348 -0.4530  0.5677  0.2049
18193THY    HP250894   4.761   1.580   2.349 -1.0625  3.7310 -1.1759
18193THY    HP350895   4.860   1.447   2.404 -1.1442  0.4992  0.1807
18193THY    HP450896   4.901   1.528   2.246 -0.9129  0.4973 -0.6349
18193THY    CP350897   5.113   1.593   2.402 -0.6372  0.0794  0.0566
18193THY    HP550898   5.140   1.590   2.295  0.4323  0.3238 -3.5305
18193THY    HP650899   5.139   1.493   2.437 -0.6971 -1.1153 -0.3975
18193THY    HP750900   5.180   1.657   2.461 -1.2327  0.7828  0.0341
18193THY    CA350901   4.918   1.557   2.646  0.3210 -0.0390  0.1999
18193THY    HA350902   4.927   1.460   2.598 -0.7427 -0.3546  0.2360
18193THY    CA450903   4.905   1.580   2.781 -0.3222 -0.8927  0.0632
18193THY    HA450904   4.894   1.492   2.843  0.2896 -1.9202 -0.7660
18193THY    CA550905   4.913   1.712   2.833 -0.5779 -1.0985  1.0009
18193THY    CM150906   4.892   1.747   2.985  0.5421  0.4227 -0.5478
18193THY    HM150907   4.885   1.665   3.057  1.2791  0.2785 -0.7492
18193THY    HM250908   4.789   1.782   2.995  0.1972 -1.0009 -1.0988
18193THY    HM350909   4.974   1.810   3.021  1.8614  0.3451 -2.1591
18193THY    CA650910   4.910   1.812   2.746  0.1185 -0.3920 -0.4391
18193THY    HA650911   4.896   1.909   2.794 -0.6531  0.4219 -0.9421
18194THY      O50912   1.408   2.404   7.703 -0.0874  0.1967 -0.3693
18194THY     HO50913   1.403   2.470   7.633  0.8752  1.1186  0.7319
18194THY    CA150914   1.536   2.406   7.725 -0.9791 -0.4159  0.7034
18194THY    CA250915   1.613   2.290   7.721  0.5761  0.2675  0.0107
18194THY    CP150916   1.545   2.154   7.694  0.9804  0.0688  0.6660
18194THY    HP150917   1.436   2.153   7.694  0.8968  0.8929 -2.4596
18194THY    CP250918   1.578   2.050   7.802  1.1338 -0.3561 -0.1299
18194THY    HP250919   1.571   2.091   7.904  0.6255 -0.1900 -0.6005
18194THY    HP350920   1.682   2.019   7.790  0.6408 -1.3971 -1.4821
18194THY    HP450921   1.505   1.968   7.795  0.7540 -0.8408  0.2423
18194THY    CP350922   1.578   2.097   7.553 -0.1346  0.5608 -0.7058
18194THY    HP550923   1.513   2.014   7.521  0.3287 -1.4931 -0.3285
18194THY    HP650924   1.683   2.072   7.533  0.2600 -1.5170  2.1428
18194THY    HP750925   1.560   2.168   7.471 -0.1557  0.1002 -1.2378
18194THY    CA350926   1.748   2.299   7.746  0.3013 -0.2435  0.2190
18194THY    HA350927   1.799   2.205   7.727 -1.4248 -1.5700 -0.4982
18194THY    CA450928   1.817   2.426   7.751  0.7685 -0.0687  0.0927
18194THY    HA450929   1.919   2.424   7.788  0.1495  1.7218 -0.0338
18194THY    CA550930   1.743   2.546   7.743  0.4638 -0.0402  0.1306
18194THY    CM150931   1.824   2.674   7.760  0.3531  0.4974 -0.7761
18194THY    HM150932   1.760   2.732   7.827  0.8896  1.0057 -0.7623
18194THY    HM250933   1.835   2.730   7.667 -1.5120  1.3188  1.1187
18194THY    HM350934   1.920   2.657   7.811  0.5430  0.1828 -0.6535
18194THY    CA650935   1.603   2.534   7.740  0.1348 -0.0737  0.3605
18194THY    HA650936   1.537   2.620   7.745  0.6154  0.4513  0.7089
18195THY      O50937   3.376   8.605   4.861 -0.5749 -0.0495 -0.1014
18195THY     HO50938   3.303   8.625   4.921 -1.7349 -0.8906 -1.5679
18195THY    CA150939   3.451   8.526   4.936  1.0122  0.0671  0.0206
18195THY    CA250940   3.589   8.503   4.909  0.0041  0.4074 -0.1162
18195THY    CP150941   3.652   8.568   4.789 -0.4232  0.1739  0.1490
18195THY    HP150942   3.581   8.617   4.723  0.4746 -0.8700  0.0853
18195THY    CP250943   3.729   8.470   4.705 -0.5286 -0.4376  0.0731
18195THY    HP250944   3.809   8.434   4.771 -1.8750  1.0873 -0.2543
18195THY    HP350945   3.770   8.514   4.614 -2.4318 -1.1219  0.5313
18195THY    HP450946   3.668   8.380   4.692 -0.4859 -1.2128  0.1509
18195THY    CP350947   3.741   8.683   4.835  0.7624  0.9092 -0.4262
18195THY    HP550948   3.836   8.649   4.878  1.8442  1.7178  3.1545
18195THY    HP650949   3.690   8.767   4.884 -0.2753  0.8725 -1.0294
18195THY    HP750950   3.779   8.738   4.748 -0.8456  0.0437 -0.6355
18195THY    CA350951   3.657   8.424   5.005  0.3035  0.2115 -0.6132
18195THY    HA350952   3.765   8.412   5.001  0.3048 -0.1836 -0.4747
18195THY    CA450953   3.580   8.365   5.111 -0.6868 -0.8658  0.8275
18195THY    HA450954   3.626   8.304   5.188  0.8783 -0.9920  1.7918
18195THY    CA550955   3.435   8.376   5.111 -0.3555 -0.5122  0.3965
18195THY    CM150956   3.364   8.310   5.220  0.0702 -0.9483  0.2209
18195THY    HM150957   3.258   8.301   5.194 -0.6032  1.2984  1.2168
18195THY    HM250958   3.356   8.379   5.304  0.7781 -0.7028  0.0255
18195THY    HM350959   3.408   8.212   5.245 -2.2566 -0.8271 -0.8575
18195THY    CA650960   3.372   8.464   5.032  0.2285  0.6485 -1.1512
18195THY    HA650961   3.267   8.486   5.045  0.5801  2.5366 -0.3801
18196THY      O50962   6.140   4.956   3.823 -0.4744 -0.1444 -0.2317
18196THY     HO50963   6.125   4.869   3.784  2.7975 -0.0867 -0.9587
18196THY    CA150964   6.060   4.967   3.931 -0.0841 -0.1721  0.1674
18196THY    CA250965   6.100   5.021   4.053  0.3037 -0.9078 -0.6000
18196THY    CP150966   6.240   5.067   4.056  0.0210 -0.4414 -0.4212
18196THY    HP150967   6.303   5.005   3.990 -2.1846 -2.7015 -0.4309
18196THY    CP250968   6.312   5.070   4.195 -0.0338  0.6273 -0.2311
18196THY    HP250969   6.282   4.981   4.251 -0.5018 -0.3280 -0.6775
18196THY    HP350970   6.297   5.165   4.248  1.1747  0.5178  0.0446
18196THY    HP450971   6.422   5.070   4.189  0.0717  2.1649 -0.8896
18196THY    CP350972   6.242   5.213   4.006  0.7060  0.6276  0.4229
18196THY    HP550973   6.165   5.274   4.056 -1.0060  2.1017 -2.7160
18196THY    HP650974   6.215   5.219   3.900 -0.3605  0.7170 -1.9064
18196THY    HP750975   6.341   5.259   4.020  0.2066  0.0490  1.7212
18196THY    CA350976   6.007   5.024   4.163 -1.1307  0.0561 -0.0205
18196THY    HA350977   6.031   5.069   4.259  0.2591 -0.0434 -0.5078
18196THY    CA450978   5.879   4.968   4.145 -0.0687 -0.2066 -0.1651
18196THY    HA450979   5.803   4.972   4.223 -1.3262 -1.4302  0.6724
18196THY    CA550980   5.843   4.916   4.020 -0.2739 -1.0889  0.5037
18196THY    CM150981   5.712   4.842   4.013 -0.3988  0.1900 -1.0451
18196THY    HM150982   5.691   4.784   4.104 -0.3113 -0.7314 -2.6011
18196THY    HM250983   5.708   4.767   3.933 -0.8197  0.2554 -1.0922
18196THY    HM350984   5.634   4.914   3.988 -1.3205  0.2812 -1.9876
18196THY    CA650985   5.937   4.901   3.921 -0.1798  0.9902  0.1406
18196THY    HA650986   5.906   4.850   3.830  0.2631  0.5589  0.6384
18197THY      O50987   4.504   7.117   6.663  0.6821  0.8039  0.0485
18197THY     HO50988   4.598   7.110   6.638  0.5291 -0.0606  0.8786
18197THY    CA150989   4.447   7.017   6.602  0.5503 -0.2094  0.7310
18197THY    CA250990   4.336   6.945   6.656  0.6659 -0.5247 -0.0324
18197THY    CP150991   4.285   6.982   6.796 -0.2318 -0.2493 -0.0496
18197THY    HP150992   4.308   7.082   6.834  3.0202  0.4526 -0.9434
18197THY    CP250993   4.360   6.898   6.899 -0.7395  0.3064  0.1994
18197THY    HP250994   4.298   6.909   6.989 -3.3275 -1.0638 -1.9197
18197THY    HP350995   4.463   6.928   6.921 -0.7428  1.8127 -0.7774
18197THY    HP450996   4.370   6.793   6.869  4.0544 -0.1518  0.5343
18197THY    CP350997   4.132   6.962   6.818  0.0730  0.2098 -0.1488
18197THY    HP550998   4.110   6.855   6.817  0.6905 -1.8934 -0.3006
18197THY    HP650999   4.083   7.006   6.730  0.3459  0.0983 -0.0630
18197THY    HP751000   4.102   7.014   6.909  0.4921 -0.3346  1.0852
18197THY    CA351001   4.291   6.832   6.595  1.1227  0.2128  0.3126
18197THY    HA351002   4.223   6.760   6.641  0.2847 -1.1999  0.1661
18197THY    CA451003   4.334   6.803   6.463 -0.4936 -0.1798  0.9059
18197THY    HA451004   4.296   6.721   6.404  0.6320 -2.3998  1.8989
18197THY    CA551005   4.425   6.886   6.397 -0.7378 -0.1689 -0.4654
18197THY    CM151006   4.480   6.854   6.264 -0.1447  0.2275 -0.8708
18197THY    HM151007   4.405   6.804   6.203 -0.0020 -1.6277  1.0240
18197THY    HM251008   4.561   6.781   6.275 -1.2598  1.9257 -1.9204
18197THY    HM351009   4.497   6.951   6.215 -0.4423  2.3925  0.3424
18197THY    CA651010   4.477   6.992   6.471 -0.2596  0.0170 -0.7003
18197THY    HA651011   4.559   7.051   6.431 -0.3412 -0.9189 -1.2166
18198THY      O51012   3.162   1.110   5.095 -0.2743 -0.0777  0.3850
18198THY     HO51013   3.076   1.149   5.070 -1.2704  2.8856  0.3328
18198THY    CA151014   3.230   1.101   4.981  0.5479  0.2735  0.4973
18198THY    CA251015   3.361   1.050   4.969 -0.1737  0.0406  0.1526
18198THY    CP151016   3.445   1.032   5.097  0.4684  0.2493  0.0587
18198THY    HP151017   3.426   1.111   5.171 -1.0610  0.8488 -0.8115
18198THY    CP251018   3.591   1.061   5.072 -0.5213 -0.7178  0.4063
18198THY    HP251019   3.639   0.982   5.013  1.0936 -1.7239  2.0981
18198THY    HP351020   3.640   1.067   5.170  0.7015 -1.2995  0.2435
18198THY    HP451021   3.601   1.158   5.024  1.2980  0.9835  1.1354
18198THY    CP351022   3.436   0.889   5.162  0.4388  0.3206 -0.1747
18198THY    HP551023   3.375   0.820   5.103 -0.8097  0.5758  0.6635
18198THY    HP651024   3.391   0.907   5.261 -0.3522 -0.1889  0.8174
18198THY    HP751025   3.535   0.843   5.173 -0.2674  1.4524 -1.5010
18198THY    CA351026   3.412   1.036   4.838  0.1315  0.1895 -0.2847
18198THY    HA351027   3.514   1.003   4.818 -0.2817 -0.9472 -0.9069
18198THY    CA451028   3.332   1.064   4.727 -0.5103 -0.1454  0.7400
18198THY    HA451029   3.365   1.046   4.625 -1.4868 -0.4892  0.8377
18198THY    CA551030   3.194   1.090   4.744 -0.2188  0.6869 -0.4309
18198THY    CM151031   3.103   1.110   4.618 -0.9064 -0.0590  0.1253
18198THY    HM151032   2.998   1.095   4.647 -2.6421 -3.6461  3.5710
18198THY    HM251033   3.132   1.036   4.542  0.2222  1.2185 -0.7984
18198THY    HM351034   3.122   1.210   4.577 -2.0894  1.1822  0.8877
18198THY    CA651035   3.145   1.100   4.873  0.0650  0.5569 -0.3523
18198THY    HA651036   3.038   1.115   4.881 -0.2320 -3.3323  0.6106
18199THY      O51037   2.262   4.439   6.400  0.0739  0.0228 -0.1838
18199THY     HO51038   2.181   4.395   6.431 -0.6562 -0.4312  0.8200
18199THY    CA151039   2.252   4.565   6.461  0.8727 -0.4970  0.9658
18199THY    CA251040   2.341   4.674   6.448  0.3669 -0.2949 -0.1618
18199THY    CP151041   2.451   4.656   6.345  0.0585  0.1744 -0.8558
18199THY    HP151042   2.425   4.570   6.282  0.1207 -1.6739  0.4353
18199THY    CP251043   2.588   4.636   6.413  0.0852 -0.2031 -0.4233
18199THY    HP251044   2.583   4.542   6.469  0.3825 -1.5220 -1.2516
18199THY    HP351045   2.614   4.729   6.464 -0.5074  1.4025 -1.1062
18199THY    HP451046   2.677   4.610   6.354  0.7389  0.6192 -0.0712
18199THY    CP351047   2.459   4.779   6.251 -0.0091  0.5350  0.4901
18199THY    HP551048   2.527   4.763   6.167  1.3381  1.5434  0.7870
18199THY    HP651049   2.482   4.874   6.301 -1.8663 -0.3358  1.4539
18199THY    HP751050   2.357   4.799   6.217 -0.7779  2.2257 -0.3290
18199THY    CA351051   2.316   4.781   6.529 -0.0600 -0.4374  0.6812
18199THY    HA351052   2.378   4.869   6.512 -0.1876 -3.6764  0.2726
18199THY    CA451053   2.213   4.783   6.618  0.6124 -0.2643 -0.0251
18199THY    HA451054   2.199   4.873   6.677  2.5868  0.3109 -0.0483
18199THY    CA551055   2.131   4.669   6.640 -0.5378 -0.0148 -0.0132
18199THY    CM151056   2.053   4.661   6.779  0.0482 -0.5799  0.8600
18199THY    HM151057   2.019   4.762   6.802  0.9224 -0.3936  1.1171
18199THY    HM251058   2.101   4.620   6.868 -2.2727  0.3116 -0.1015
18199THY    HM351059   1.970   4.591   6.761  1.2903 -2.0559 -0.3313
18199THY    CA651060   2.151   4.566   6.555  0.1189 -0.4569  0.6840
18199THY    HA651061   2.087   4.479   6.562 -0.2382  0.0151  0.9777
18200THY      O51062   7.670   2.714   5.741  0.6281  0.3272 -0.4535
18200THY     HO51063   7.670   2.736   5.836 -3.8306  0.0160  2.0296
18200THY    CA151064   7.623   2.826   5.680 -0.0522  0.1895  0.5634
18200THY    CA251065   7.639   2.844   5.539  0.1791 -0.1073 -0.5438
18200THY    CP151066   7.727   2.754   5.448 -0.1463 -0.7489 -0.2567
18200THY    HP151067   7.804   2.708   5.511 -1.4819  1.5452  0.4867
18200THY    CP251068   7.807   2.840   5.354  0.2995  0.1344  0.0922
18200THY    HP251069   7.751   2.871   5.265 -0.3209  0.9998  1.5774
18200THY    HP351070   7.889   2.786   5.306  0.3819 -0.5164  0.7799
18200THY    HP451071   7.852   2.929   5.400 -2.2984  2.3369  0.3851
18200THY    CP351072   7.646   2.647   5.387 -0.0862 -0.4612 -0.1367
18200THY    HP551073   7.589   2.593   5.463  0.9793  2.0497  2.0474
18200THY    HP651074   7.715   2.578   5.335 -1.0317 -2.0471  0.0640
18200THY    HP751075   7.582   2.685   5.306  0.7105 -1.1485 -0.2138
18200THY    CA351076   7.578   2.962   5.489 -0.5483  0.2468 -0.3432
18200THY    HA351077   7.582   2.993   5.385  3.1558  0.2896 -0.2588
18200THY    CA451078   7.493   3.042   5.564  0.1412 -0.2781  0.0951
18200THY    HA451079   7.449   3.130   5.518  0.2963 -0.5588  0.0278
18200THY    CA551080   7.475   3.015   5.695  0.9308  0.1936  0.3606
18200THY    CM151081   7.372   3.094   5.773 -0.1757 -0.6720 -0.0574
18200THY    HM151082   7.379   3.200   5.748 -0.3151 -0.1213  0.0818
18200THY    HM251083   7.381   3.079   5.881 -0.6548 -0.5367  0.5978
18200THY    HM351084   7.270   3.058   5.755 -0.4284 -2.6558  1.4316
18200THY    CA651085   7.534   2.904   5.751  0.4104 -0.4673 -0.5993
18200THY    HA651086   7.515   2.886   5.857 -1.0714 -0.9410 -2.0187
18201THY      O51087   8.593   7.741   4.589 -0.0938  0.2811 -0.0122
18201THY     HO51088   8.502   7.729   4.622 -0.6363 -1.0896  0.1414
18201THY    CA151089   8.653   7.780   4.699  0.2903  0.1058 -0.0773
18201THY    CA251090   8.791   7.821   4.697  0.5439 -0.3904 -1.3634
18201THY    CP151091   8.878   7.814   4.570  0.6873  0.1458  0.0464
18201THY    HP151092   8.814   7.754   4.503  0.1859  0.9445 -0.3298
18201THY    CP251093   9.004   7.742   4.592  0.8511  0.3180  0.0133
18201THY    HP251094   8.985   7.645   4.641 -0.2893  0.8056  0.4647
18201THY    HP351095   9.084   7.795   4.644  1.4870 -1.7211  1.1665
18201THY    HP451096   9.063   7.729   4.500  1.1385  0.1101  2.3785
18201THY    CP351097   8.885   7.951   4.497 -0.4935  0.1291 -0.0579
18201THY    HP551098   8.918   7.943   4.392  0.4946  0.2007  2.2953
18201THY    HP651099   8.946   8.017   4.560 -1.4501  0.3435  0.6420
18201THY    HP751100   8.790   8.004   4.503 -0.1660 -2.5685  1.0217
18201THY    CA351101   8.842   7.869   4.819 -0.3799 -0.6116  0.0620
18201THY    HA351102   8.946   7.901   4.814 -0.4100 -1.9518  0.0227
18201THY    CA451103   8.764   7.873   4.933  0.1604 -0.6158 -0.1668
18201THY    HA451104   8.804   7.912   5.026  0.3812  0.7233 -3.2961
18201THY    CA551105   8.634   7.833   4.928  0.3526 -0.3362  0.2181
18201THY    CM151106   8.550   7.826   5.050 -0.1674 -0.8038 -0.0870
18201THY    HM151107   8.459   7.884   5.029 -0.0395 -0.6821  0.1574
18201THY    HM251108   8.602   7.869   5.136 -0.1824 -1.0617  0.4570
18201THY    HM351109   8.516   7.727   5.081  0.2753 -2.5809 -0.8498
18201THY    CA651110   8.580   7.793   4.810 -0.1669 -0.0207 -0.3031
18201THY    HA651111   8.475   7.765   4.810  0.6470 -0.4985 -3.8524
18202THY      O51112   6.602   3.210   3.388 -0.2824 -0.3010 -0.7152
18202THY     HO51113   6.679   3.156   3.362  0.6712  1.3278 -0.2094
18202THY    CA151114   6.620   3.337   3.333 -0.6847 -0.2332 -0.4969
18202THY    CA251115   6.623   3.450   3.413 -0.2203 -0.0250  0.4697
18202THY    CP151116   6.610   3.433   3.563  0.2604 -0.2153 -0.2957
18202THY    HP151117   6.604   3.328   3.595  2.3116  1.0357 -0.0960
18202THY    CP251118   6.493   3.506   3.629  0.1551 -0.7697 -0.7547
18202THY    HP251119   6.477   3.603   3.581 -4.0253  0.3146 -0.7455
18202THY    HP351120   6.511   3.541   3.731 -1.3397 -1.2466  1.6062
18202THY    HP451121   6.400   3.448   3.621 -0.0332 -3.0162 -0.2347
18202THY    CP351122   6.734   3.494   3.632  0.0316  0.5098 -0.2531
18202THY    HP551123   6.823   3.444   3.594 -0.1470 -3.6408  2.0848
18202THY    HP651124   6.737   3.476   3.740 -1.5662  1.1904  2.7949
18202THY    HP751125   6.736   3.600   3.603 -1.9152  3.1957  0.6253
18202THY    CA351126   6.622   3.574   3.343  0.2632  0.5873  0.5074
18202THY    HA351127   6.623   3.669   3.396  0.5880 -0.0309  0.8547
18202THY    CA451128   6.620   3.580   3.202  0.1572  0.3473 -0.7560
18202THY    HA451129   6.624   3.679   3.157  2.9568  2.5988  0.3010
18202THY    CA551130   6.627   3.468   3.129  0.0790 -0.2262 -0.1897
18202THY    CM151131   6.653   3.470   2.981  0.8773 -0.3481 -0.3775
18202THY    HM151132   6.618   3.387   2.918 -0.4545  0.0456 -0.1333
18202THY    HM251133   6.760   3.485   2.960  1.4439  1.0386 -2.1624
18202THY    HM351134   6.615   3.561   2.933 -1.0767  0.3363 -0.7960
18202THY    CA651135   6.629   3.347   3.197 -0.1752 -0.0687  0.2482
18202THY    HA651136   6.614   3.259   3.135 -0.8692 -0.1364  0.4053
18203THY      O51137   0.219   7.921   6.571  0.2817  0.1753  1.0461
18203THY     HO51138   0.131   7.963   6.574 -1.7158  4.0968 -2.5809
18203THY    CA151139   0.239   7.871   6.697  0.4930  0.7979  0.8367
18203THY    CA251140   0.299   7.746   6.719 -0.5666  0.2833  0.3677
18203THY    CP151141   0.361   7.665   6.605 -0.1551  0.3726  0.1424
18203THY    HP151142   0.403   7.734   6.531 -3.2470 -1.7110  0.0365
18203THY    CP251143   0.249   7.587   6.531 -0.5034  0.4268  0.3162
18203THY    HP251144   0.155   7.643   6.525 -0.8891 -0.9435 -0.4205
18203THY    HP351145   0.233   7.494   6.586 -1.3134  0.2756  0.3564
18203THY    HP451146   0.287   7.565   6.430 -1.9562 -0.5502  1.9750
18203THY    CP351147   0.480   7.570   6.636  0.0630  0.0496 -0.5827
18203THY    HP551148   0.566   7.630   6.669  0.7027 -1.3585 -0.6742
18203THY    HP651149   0.498   7.511   6.545  0.0523 -1.5823  1.7722
18203THY    HP751150   0.452   7.493   6.709 -1.5165 -0.4089 -0.4716
18203THY    CA351151   0.310   7.694   6.848  0.2486 -0.4344 -0.0911
18203THY    HA351152   0.366   7.603   6.869 -0.7920 -1.8835 -1.1081
18203THY    CA451153   0.250   7.766   6.955 -0.1886  1.3695  0.6216
18203THY    HA451154   0.260   7.734   7.058  0.3141  1.2995  0.5532
18203THY    CA551155   0.182   7.887   6.932  0.0240  0.4808 -0.9876
18203THY    CM151156   0.121   7.961   7.048  0.5509 -0.0781 -0.6282
18203THY    HM151157   0.153   7.928   7.147 -3.8024  0.9189 -2.5303
18203THY    HM251158   0.013   7.947   7.054  0.6292 -0.0412 -1.2431
18203THY    HM351159   0.146   8.068   7.047  2.8891  3.2058 -1.0011
18203THY    CA651160   0.177   7.947   6.800 -0.6840 -0.0252  0.5856
18203THY    HA651161   0.129   8.043   6.787 -0.0712 -1.5878  0.7160
18204THY      O51162   5.438   6.633   2.368  0.3411  0.2385 -0.0160
18204THY     HO51163   5.387   6.716   2.371 -1.1661 -0.6860 -0.8587
18204THY    CA151164   5.551   6.657   2.300 -0.0617  0.8933 -0.1213
18204THY    CA251165   5.671   6.594   2.336  0.4530  0.3608  0.3187
18204THY    CP151166   5.672   6.499   2.463 -0.0572 -0.5109 -0.3057
18204THY    HP151167   5.596   6.523   2.538 -0.2082  0.0454 -2.3369
18204THY    CP251168   5.804   6.510   2.552  0.6800  1.1601 -0.7388
18204THY    HP251169   5.805   6.615   2.581 -0.8700 -0.0287 -0.3573
18204THY    HP351170   5.894   6.499   2.490 -0.5622 -1.0810  0.9215
18204THY    HP451171   5.815   6.429   2.625 -0.4318  0.5020 -1.5164
18204THY    CP351172   5.654   6.358   2.424 -0.2142 -0.3931  0.3030
18204THY    HP551173   5.742   6.327   2.365  0.2554  0.0186  0.8319
18204THY    HP651174   5.565   6.335   2.365 -0.8007  0.3612  0.6135
18204THY    HP751175   5.650   6.295   2.514 -1.0343  0.5653  1.6685
18204THY    CA351176   5.781   6.632   2.261 -0.3909  0.5640  0.1595
18204THY    HA351177   5.877   6.591   2.289  0.4956 -2.5180 -0.0914
18204THY    CA451178   5.770   6.713   2.151  0.9897  0.4228  0.1837
18204THY    HA451179   5.855   6.750   2.095  0.0847  0.0798  1.8525
18204THY    CA551180   5.646   6.771   2.124 -0.0567  0.3172 -0.0721
18204THY    CM151181   5.635   6.874   2.016 -0.5634 -0.3512 -0.0878
18204THY    HM151182   5.566   6.822   1.949 -1.1754 -0.3428  0.6975
18204THY    HM251183   5.725   6.898   1.958 -1.1859 -1.6239 -0.7360
18204THY    HM351184   5.603   6.966   2.066  0.9578 -1.2623  0.9818
18204THY    CA651185   5.533   6.743   2.195 -0.6222 -0.6158 -0.0847
18204THY    HA651186   5.438   6.780   2.159 -2.4154  0.7635 -2.9917
18205THY      O51187   5.422   6.330   3.686 -0.0566  0.0982 -0.0884
18205THY     HO51188   5.509   6.315   3.646 -0.5073 -1.1375  0.4328
18205THY    CA151189   5.434   6.442   3.759 -0.9178 -0.1777 -0.8190
18205THY    CA251190   5.320   6.508   3.820 -0.9369  0.1410  0.4909
18205THY    CP151191   5.177   6.473   3.786 -0.2363  0.6117 -0.2455
18205THY    HP151192   5.180   6.427   3.686 -0.1584  1.3949 -1.9914
18205THY    CP251193   5.074   6.591   3.772 -0.0807  0.6739  0.0156
18205THY    HP251194   5.048   6.636   3.869 -0.8944 -0.4012  1.9895
18205THY    HP351195   4.983   6.553   3.726 -0.5440 -1.9041  3.6763
18205THY    HP451196   5.112   6.661   3.697 -1.3678 -0.8018 -0.8151
18205THY    CP351197   5.119   6.384   3.894 -0.0480  0.0703  0.4922
18205THY    HP551198   5.015   6.357   3.873  0.0391 -0.2214  0.3784
18205THY    HP651199   5.119   6.429   3.994 -1.8205  0.5085 -0.3850
18205THY    HP751200   5.178   6.291   3.892 -1.0630  1.9196 -0.2664
18205THY    CA351201   5.347   6.621   3.905 -0.2334  0.1884  0.1404
18205THY    HA351202   5.264   6.674   3.950 -1.6766 -0.8657 -1.1061
18205THY    CA451203   5.474   6.676   3.912  0.2094 -1.0882  0.1000
18205THY    HA451204   5.484   6.760   3.980  0.8263  0.1122 -0.9112
18205THY    CA551205   5.583   6.609   3.855 -0.2823 -0.6671  0.2221
18205THY    CM151206   5.718   6.669   3.850  0.0469 -0.3314  0.0883
18205THY    HM151207   5.793   6.593   3.874  1.6337 -1.5540  1.1924
18205THY    HM251208   5.725   6.745   3.928 -2.0533 -3.0017  3.3885
18205THY    HM351209   5.745   6.704   3.749  0.7119 -0.9198 -1.9686
18205THY    CA651210   5.565   6.490   3.780  0.5330 -0.2021 -0.0245
18205THY    HA651211   5.647   6.433   3.738 -1.5236 -1.3003 -2.3651
18206THY      O51212   7.936   7.786   7.469 -0.6427  0.7141 -0.1855
18206THY     HO51213   7.994   7.800   7.546  0.3475  0.1647 -1.0765
18206THY    CA151214   7.984   7.866   7.370 -0.0105  0.4219  0.3633
18206THY    CA251215   7.960   7.843   7.234 -0.5814 -0.7764  0.1425
18206THY    CP151216   7.883   7.722   7.197 -0.1406 -0.1077 -0.2261
18206THY    HP151217   7.906   7.645   7.272 -3.1161  0.4630 -0.6537
18206THY    CP251218   7.941   7.662   7.065  0.6796  0.2347  0.0838
18206THY    HP251219   8.049   7.679   7.060  0.6176 -1.4221  0.1197
18206THY    HP351220   7.891   7.710   6.980 -0.4702 -0.4156 -2.1594
18206THY    HP451221   7.930   7.553   7.062 -0.8205  0.2141  0.2239
18206THY    CP351222   7.729   7.736   7.188  0.0719  0.8302 -0.0636
18206THY    HP551223   7.699   7.829   7.139 -0.8052  2.2406  0.4256
18206THY    HP651224   7.678   7.731   7.286 -1.8496 -0.1391 -0.5033
18206THY    HP751225   7.694   7.652   7.127  0.8446 -0.5364  0.5741
18206THY    CA351226   8.014   7.941   7.140  0.5807 -0.2378 -0.5237
18206THY    HA351227   8.004   7.939   7.032  1.0751 -0.3842  1.6726
18206THY    CA451228   8.067   8.059   7.185  0.4552 -0.5900  0.1275
18206THY    HA451229   8.101   8.139   7.120  0.5584  2.5018  2.8120
18206THY    CA551230   8.095   8.075   7.328 -0.9236 -0.2716  0.0225
18206THY    CM151231   8.164   8.207   7.362 -0.1550 -0.5996  0.0235
18206THY    HM151232   8.093   8.278   7.404 -0.8045  0.2803 -1.1095
18206THY    HM251233   8.212   8.253   7.274  1.8678  0.6792  0.4968
18206THY    HM351234   8.237   8.187   7.441 -0.2357 -0.7068 -0.7191
18206THY    CA651235   8.057   7.978   7.416  0.3120  0.0436  0.2256
18206THY    HA651236   8.064   7.997   7.523  1.1641  0.1186 -0.5046
18207THY      O51237   2.989   4.720   7.398  0.4671 -0.4115  0.1896
18207THY     HO51238   2.959   4.671   7.320  2.1794 -1.1348  0.2099
18207THY    CA151239   3.120   4.738   7.372  0.8538 -0.4640 -0.1544
18207THY    CA251240   3.228   4.699   7.451  0.5200  0.2762  0.5420
18207THY    CP151241   3.211   4.622   7.579 -0.1859  0.4456 -0.1414
18207THY    HP151242   3.306   4.587   7.620 -0.3901  0.4852 -0.6520
18207THY    CP251243   3.126   4.497   7.562 -0.0713  0.4811 -0.1195
18207THY    HP251244   3.155   4.429   7.481 -1.4976 -0.6700  0.5832
18207THY    HP351245   3.021   4.529   7.565  0.3415  2.0287  1.1822
18207THY    HP451246   3.138   4.428   7.646  1.6636 -0.6504 -1.2859
18207THY    CP351247   3.153   4.719   7.690 -0.6460 -0.3010  0.0065
18207THY    HP551248   3.232   4.792   7.713 -0.8330 -0.3644  0.2300
18207THY    HP651249   3.132   4.670   7.786  3.2614  0.7237 -0.0324
18207THY    HP751250   3.061   4.757   7.645 -0.3431 -0.9845 -0.0544
18207THY    CA351251   3.354   4.734   7.408 -0.8130  0.4238  0.1164
18207THY    HA351252   3.445   4.708   7.461 -0.0711 -0.2384  1.2836
18207THY    CA451253   3.374   4.794   7.282 -0.2560  0.2982  0.7624
18207THY    HA451254   3.473   4.830   7.256  0.0708 -0.4246 -0.5878
18207THY    CA551255   3.271   4.811   7.195 -0.5236 -0.5654 -0.3111
18207THY    CM151256   3.294   4.883   7.055 -0.9726 -0.8088 -0.7408
18207THY    HM151257   3.391   4.855   7.011 -0.3079  0.1935 -0.0371
18207THY    HM251258   3.295   4.990   7.078 -2.0818  0.8716 -1.0565
18207THY    HM351259   3.215   4.868   6.980 -1.1615 -0.8932  0.5764
18207THY    CA651260   3.141   4.776   7.241 -0.2782  0.3227 -0.2347
18207THY    HA651261   3.055   4.800   7.179 -2.0617  1.8651 -2.1790
18208THY      O51262   3.841   4.203   2.387 -0.3826  0.3803  0.7223
18208THY     HO51263   3.881   4.248   2.311 -0.8431  0.4789  1.3121
18208THY    CA151264   3.740   4.131   2.327 -0.5473 -0.1323 -1.6255
18208THY    CA251265   3.644   4.063   2.408 -0.0942 -0.3142 -0.2625
18208THY    CP151266   3.647   4.073   2.562 -0.3566  0.7208 -0.2875
18208THY    HP151267   3.740   4.120   2.597 -1.3362  0.5969  1.8296
18208THY    CP251268   3.643   3.933   2.617  0.4400 -0.1471 -0.4189
18208THY    HP251269   3.669   3.938   2.724  2.7844 -0.6981  2.1863
18208THY    HP351270   3.716   3.857   2.587  1.5478  3.1396 -0.8137
18208THY    HP451271   3.536   3.910   2.614 -0.0539  0.8257  1.5349
18208THY    CP351272   3.538   4.155   2.614  0.0713  0.4739  0.2041
18208THY    HP551273   3.544   4.260   2.581 -0.8735  2.4230  0.9208
18208THY    HP651274   3.559   4.168   2.721  1.0497  0.1361  1.6148
18208THY    HP751275   3.440   4.107   2.603  1.3541  0.1217 -2.5038
18208THY    CA351276   3.543   3.988   2.348 -0.4882  0.8991  0.0535
18208THY    HA351277   3.459   3.949   2.405  0.1654  4.2400  2.9470
18208THY    CA451278   3.553   3.968   2.209  0.0331  0.1892 -1.0250
18208THY    HA451279   3.482   3.903   2.159  1.3437 -2.4732 -0.5674
18208THY    CA551280   3.649   4.037   2.131 -0.9599 -0.8295  0.2114
18208THY    CM151281   3.675   4.011   1.986 -0.1281  0.8970 -0.4233
18208THY    HM151282   3.618   3.926   1.948 -1.1798  1.7313 -0.1212
18208THY    HM251283   3.781   3.992   1.966  0.3315  2.7137  0.0420
18208THY    HM351284   3.652   4.097   1.922 -0.3406 -1.2464 -2.0096
18208THY    CA651285   3.743   4.124   2.192 -0.4121 -0.2467 -0.5357
18208THY    HA651286   3.813   4.186   2.137 -1.7326 -0.4771  0.8243
18209THY      O51287   7.124   5.187   4.619 -0.4389 -0.2414  0.0402
18209THY     HO51288   7.096   5.094   4.624  0.7651 -0.8418 -0.3734
18209THY    CA151289   7.015   5.258   4.664 -0.2610  0.1013 -0.4409
18209THY    CA251290   6.983   5.377   4.593 -0.2984  0.4601 -0.2814
18209THY    CP151291   7.045   5.403   4.451  0.1329  0.6524 -0.5485
18209THY    HP151292   7.064   5.308   4.401  2.5666  1.1098 -0.3831
18209THY    CP251293   7.185   5.473   4.460  0.9519 -0.3616  0.0243
18209THY    HP251294   7.241   5.462   4.366  1.1114 -0.5907  2.3133
18209THY    HP351295   7.247   5.419   4.532  0.0391  0.6766  0.3406
18209THY    HP451296   7.183   5.573   4.506 -1.1269  0.0746 -0.1925
18209THY    CP351297   6.957   5.492   4.354  0.0606 -0.3758 -0.2633
18209THY    HP551298   6.856   5.450   4.352 -0.3514  2.6813  0.3897
18209THY    HP651299   7.003   5.476   4.256 -2.1517 -1.6334  0.5655
18209THY    HP751300   6.960   5.599   4.378  0.7817 -0.9600 -0.1414
18209THY    CA351301   6.879   5.463   4.642  0.1639 -0.4467  0.4327
18209THY    HA351302   6.848   5.547   4.580  2.2108  0.5316  2.0116
18209THY    CA451303   6.822   5.435   4.766 -0.3950  1.2787  0.0422
18209THY    HA451304   6.744   5.494   4.813  1.1887  1.9328  1.7399
18209THY    CA551305   6.859   5.319   4.835 -0.2687  0.3035 -0.6858
18209THY    CM151306   6.801   5.289   4.964  0.4596 -0.0381  0.3910
18209THY    HM151307   6.851   5.218   5.032 -0.4472  0.7784  0.5183
18209THY    HM251308   6.698   5.254   4.951 -0.7426  1.0595  3.2295
18209THY    HM351309   6.789   5.376   5.029  2.2344  2.1236 -0.8520
18209THY    CA651310   6.959   5.233   4.784  0.0289  0.1415 -0.3787
18209THY    HA651311   6.995   5.161   4.856  0.8378  0.4831  0.3490
18210THY      O51312   0.731   7.361   2.548 -0.5064  0.2655  0.0277
18210THY     HO51313   0.634   7.369   2.553 -0.4369 -0.4698  2.1348
18210THY    CA151314   0.754   7.273   2.443 -0.1717 -0.8836 -0.4562
18210THY    CA251315   0.876   7.270   2.372  0.0447  0.2415 -0.1506
18210THY    CP151316   0.999   7.315   2.441 -0.2189  0.0492 -0.2804
18210THY    HP151317   0.987   7.303   2.549  0.6399  0.0989 -0.8432
18210THY    CP251318   1.031   7.454   2.392  0.3041 -0.2299 -0.2322
18210THY    HP251319   0.938   7.510   2.379  0.1759 -0.9495 -0.5989
18210THY    HP351320   1.083   7.465   2.296 -0.7280 -0.8485 -0.6042
18210THY    HP451321   1.091   7.508   2.466  0.4216 -1.5701  1.5761
18210THY    CP351322   1.123   7.232   2.417 -0.1637 -0.6329 -0.5197
18210THY    HP551323   1.196   7.280   2.482 -1.6777 -0.4737  1.7050
18210THY    HP651324   1.158   7.240   2.314 -2.8138 -1.4594  2.1645
18210THY    HP751325   1.110   7.131   2.460  2.0648  1.1071 -0.1549
18210THY    CA351326   0.886   7.192   2.253 -0.0621  0.6996 -0.7739
18210THY    HA351327   0.977   7.175   2.197  0.6294  1.5838 -0.0421
18210THY    CA451328   0.772   7.122   2.213 -0.0637 -0.2828 -0.3168
18210THY    HA451329   0.770   7.070   2.117 -2.4813 -1.6910  2.1265
18210THY    CA551330   0.651   7.138   2.276  0.0117  0.2367 -0.4977
18210THY    CM151331   0.534   7.062   2.234  0.7489  0.0521 -0.1688
18210THY    HM151332   0.450   7.133   2.237  0.3766 -0.3934 -0.5825
18210THY    HM251333   0.516   6.970   2.291  0.1843 -1.0315 -0.7449
18210THY    HM351334   0.548   7.026   2.131  1.0645  0.2344 -0.5727
18210THY    CA651335   0.639   7.205   2.400  0.0749 -0.6616  0.1735
18210THY    HA651336   0.547   7.210   2.458 -0.6198 -1.7537  0.3202
18211THY      O51337   3.758   1.711   3.911 -0.4083 -0.3529 -0.5597
18211THY     HO51338   3.694   1.720   3.838 -0.4858 -0.1483  0.8655
18211THY    CA151339   3.737   1.605   3.995  0.1078 -0.5526 -0.6960
18211THY    CA251340   3.822   1.571   4.102 -0.5901 -0.1268  0.3513
18211THY    CP151341   3.926   1.675   4.149  0.0028 -0.4808 -0.6005
18211THY    HP151342   3.954   1.750   4.074 -1.4235  0.5822  1.1002
18211THY    CP251343   4.061   1.614   4.188  0.2359  0.1354 -0.1196
18211THY    HP251344   4.087   1.542   4.109 -1.1689 -2.4503  2.0207
18211THY    HP351345   4.048   1.567   4.286 -1.9113 -0.2831 -0.5399
18211THY    HP451346   4.140   1.689   4.195 -0.1185 -2.7535  0.6457
18211THY    CP351347   3.877   1.769   4.264  0.6783  0.5700  0.4907
18211THY    HP551348   3.859   1.715   4.357  2.2473  1.3549  1.2591
18211THY    HP651349   3.800   1.841   4.235 -1.1115  0.8791 -1.2147
18211THY    HP751350   3.964   1.834   4.279 -0.3746 -2.6960  2.9751
18211THY    CA351351   3.807   1.438   4.152 -0.2132  0.0757  0.5988
18211THY    HA351352   3.871   1.404   4.232 -0.9871  1.3604  2.0284
18211THY    CA451353   3.709   1.347   4.101 -0.4006 -0.4200  0.0714
18211THY    HA451354   3.703   1.246   4.140  0.3011 -2.4255 -0.7813
18211THY    CA551355   3.624   1.385   3.996  0.6724 -0.3104 -0.7234
18211THY    CM151356   3.523   1.288   3.944  0.6208 -0.3064 -0.4567
18211THY    HM151357   3.420   1.325   3.949  1.3757 -1.0471  1.8877
18211THY    HM251358   3.528   1.191   3.995  0.3791 -1.4805 -1.1125
18211THY    HM351359   3.540   1.258   3.840 -0.4867 -0.7736  0.4922
18211THY    CA651360   3.643   1.518   3.949 -0.2733 -0.4083  0.3138
18211THY    HA651361   3.595   1.541   3.854  0.7204 -1.7593 -2.6458
18212THY      O51362   4.358   3.980   7.375 -0.1471 -0.3320  0.3369
18212THY     HO51363   4.289   4.042   7.346  0.3528 -2.1583  0.0727
18212THY    CA151364   4.477   4.042   7.370 -0.2286  0.5283 -0.3677
18212THY    CA251365   4.597   3.981   7.325  0.7216  0.4126  0.3578
18212THY    CP151366   4.597   3.828   7.298 -0.4752  0.0215 -0.5624
18212THY    HP151367   4.497   3.800   7.262 -1.3445  1.4360  0.5863
18212THY    CP251368   4.632   3.757   7.432 -0.5032 -0.7286 -0.0533
18212THY    HP251369   4.727   3.798   7.470 -0.3499 -0.4682 -0.6444
18212THY    HP351370   4.640   3.649   7.415 -1.2287 -0.7416 -0.1054
18212THY    HP451371   4.556   3.771   7.509 -0.8846 -1.3386  1.3922
18212THY    CP351372   4.698   3.792   7.189 -0.6125  0.2127 -0.1281
18212THY    HP551373   4.804   3.775   7.209  0.2811 -2.7813  1.2463
18212THY    HP651374   4.675   3.853   7.101 -0.9343  1.3453  1.4405
18212THY    HP751375   4.675   3.692   7.150 -3.0951  2.1536 -0.4303
18212THY    CA351376   4.709   4.059   7.306  0.3688 -0.7994  0.7746
18212THY    HA351377   4.801   4.007   7.282  0.4233 -1.8255  1.3126
18212THY    CA451378   4.707   4.197   7.339  0.6809 -0.2951  0.4969
18212THY    HA451379   4.800   4.253   7.331  1.5018 -1.4122 -0.9414
18212THY    CA551380   4.583   4.258   7.379 -1.0144 -0.2856  0.8428
18212THY    CM151381   4.575   4.393   7.433  0.7311  0.3185 -0.2968
18212THY    HM151382   4.632   4.467   7.376  0.5525 -0.9816 -1.1315
18212THY    HM251383   4.607   4.395   7.538 -1.0331  0.9192 -1.5270
18212THY    HM351384   4.472   4.432   7.432  0.2611  0.0360 -1.4880
18212THY    CA651385   4.470   4.179   7.389  0.0326 -0.5219 -0.0293
18212THY    HA651386   4.378   4.214   7.435  0.1239 -0.6438  0.3805
18213THY      O51387   6.647   5.367   6.675 -0.1724 -0.1489 -0.5328
18213THY     HO51388   6.602   5.316   6.744 -1.0261 -0.7445 -0.5916
18213THY    CA151389   6.770   5.320   6.658 -0.0139  1.0544 -0.1497
18213THY    CA251390   6.870   5.377   6.581  0.5721  0.3586 -0.7557
18213THY    CP151391   6.856   5.512   6.503  0.0450  0.3665 -0.6080
18213THY    HP151392   6.764   5.559   6.540 -0.9337 -2.0645 -0.4443
18213THY    CP251393   6.854   5.500   6.340 -0.7499  0.0244 -0.6804
18213THY    HP251394   6.959   5.493   6.309 -0.5186 -0.1713  2.2386
18213THY    HP351395   6.808   5.590   6.297 -0.0582  1.5778  0.4635
18213THY    HP451396   6.796   5.411   6.314 -1.8835 -0.4208  0.1507
18213THY    CP351397   6.962   5.613   6.553 -0.2920  0.3339  0.3970
18213THY    HP551398   6.969   5.632   6.661  1.8801  0.1982  0.6806
18213THY    HP651399   6.946   5.713   6.510  1.3962 -0.4448  0.3627
18213THY    HP751400   7.062   5.576   6.527 -0.4031  0.5700 -0.0692
18213THY    CA351401   7.002   5.317   6.576  0.2120  0.0774 -0.8270
18213THY    HA351402   7.077   5.345   6.504  0.9917  1.5176  0.9990
18213THY    CA451403   7.037   5.210   6.663  0.0004  0.3756 -0.7276
18213THY    HA451404   7.135   5.164   6.667  0.7063 -0.0804  0.7055
18213THY    CA551405   6.932   5.166   6.751 -0.5973  0.8775  0.0088
18213THY    CM151406   6.958   5.054   6.862 -0.1829 -0.5187 -0.3540
18213THY    HM151407   7.056   5.008   6.847  1.5614 -0.6762  3.0309
18213THY    HM251408   6.881   4.977   6.859 -1.2963 -0.9447  0.7303
18213THY    HM351409   6.951   5.097   6.962  1.8831 -0.6173  0.3070
18213THY    CA651410   6.805   5.215   6.740  0.6165  0.8859 -0.9033
18213THY    HA651411   6.725   5.173   6.800 -2.8784 -2.2041  0.7109
18214THY      O51412   3.744   5.540   6.837 -0.2572  0.5889  0.4268
18214THY     HO51413   3.681   5.558   6.765 -0.4303  0.8673  0.9647
18214THY    CA151414   3.693   5.439   6.917 -0.6128 -0.0799  0.6157
18214THY    CA251415   3.769   5.360   7.011  0.1968 -0.4193  0.4837
18214THY    CP151416   3.909   5.400   7.057  0.1061 -0.5445 -0.2641
18214THY    HP151417   3.940   5.479   6.988 -2.2370  0.0550  1.2865
18214THY    CP251418   4.016   5.287   7.057 -0.1027  0.1503 -0.3038
18214THY    HP251419   3.995   5.209   7.131 -2.2459  1.5745  1.5021
18214THY    HP351420   4.111   5.331   7.088  0.5897  0.9230 -2.2375
18214THY    HP451421   4.031   5.238   6.960 -0.5952  0.2746 -0.7085
18214THY    CP351422   3.916   5.465   7.193 -0.0362 -0.1548  0.2095
18214THY    HP551423   4.015   5.506   7.215  0.9237 -0.6816 -1.7366
18214THY    HP651424   3.896   5.392   7.272 -0.3014 -1.3673 -1.0772
18214THY    HP751425   3.845   5.549   7.200  0.3260 -0.7128  0.5673
18214THY    CA351426   3.703   5.252   7.072  0.3860 -0.1016 -0.5163
18214THY    HA351427   3.761   5.184   7.134  0.9669 -1.5596 -1.4122
18214THY    CA451428   3.573   5.219   7.032 -0.5116 -0.9120  0.3787
18214THY    HA451429   3.521   5.133   7.073 -0.5343  1.2675  1.3519
18214THY    CA551430   3.507   5.290   6.937  1.1503  0.1087 -0.8353
18214THY    CM151431   3.374   5.234   6.891 -0.3636  0.2481  0.1402
18214THY    HM151432   3.330   5.266   6.796 -1.1592  0.8213  0.7966
18214THY    HM251433   3.306   5.252   6.975  1.4137  1.6518  0.6187
18214THY    HM351434   3.384   5.126   6.871 -0.4145  1.1445 -0.0412
18214THY    CA651435   3.566   5.395   6.875 -0.8042  0.0403  0.4125
18214THY    HA651436   3.495   5.445   6.809 -0.1402 -1.3337 -0.4031
18215THY      O51437   6.324   4.261   3.101 -0.2783 -0.5638  0.2002
18215THY     HO51438   6.322   4.310   3.017  1.7046  0.0831  1.5270
18215THY    CA151439   6.383   4.141   3.086  0.5886  0.4818  0.2807
18215THY    CA251440   6.373   4.032   3.178 -0.3162 -0.2525 -0.2020
18215THY    CP151441   6.296   4.058   3.304  0.0455  0.2170  0.4560
18215THY    HP151442   6.259   4.160   3.316  0.0617 -2.9372  0.9342
18215THY    CP251443   6.390   4.030   3.426 -0.3151  0.8482  0.5417
18215THY    HP251444   6.463   4.111   3.429 -1.6167  0.5435  1.7733
18215THY    HP351445   6.442   3.933   3.421 -1.0602 -1.0792  0.1896
18215THY    HP451446   6.334   4.042   3.519 -3.3243 -0.4974 -1.5434
18215THY    CP351447   6.175   3.958   3.310  0.3176  0.2593  0.0926
18215THY    HP551448   6.216   3.856   3.308  1.8597  0.9851  0.6811
18215THY    HP651449   6.104   3.954   3.226  2.2544 -1.4775  0.5104
18215THY    HP751450   6.131   3.981   3.407  1.6970  0.5974  1.4850
18215THY    CA351451   6.426   3.906   3.151 -0.4859  0.2559  0.1737
18215THY    HA351452   6.414   3.818   3.214  1.3151 -0.4759 -0.6497
18215THY    CA451453   6.496   3.887   3.035 -0.2497 -0.5512  0.2501
18215THY    HA451454   6.532   3.787   3.012 -3.0446 -0.3317 -0.9107
18215THY    CA551455   6.521   3.998   2.948  0.5602 -0.4355 -0.8993
18215THY    CM151456   6.617   3.979   2.840 -0.4702 -0.3328  0.5095
18215THY    HM151457   6.709   4.031   2.868 -0.1798  1.0565 -0.6811
18215THY    HM251458   6.584   4.016   2.742  1.2577 -1.0425  0.2648
18215THY    HM351459   6.642   3.873   2.831  0.0664  1.1326  0.4867
18215THY    CA651460   6.459   4.126   2.971  1.0131  0.3526 -0.1589
18215THY    HA651461   6.481   4.220   2.922  1.3494 -1.4262 -1.1269
18216THY      O51462   2.928   6.517   4.113 -0.7066 -0.1289 -0.1887
18216THY     HO51463   3.009   6.528   4.060 -0.5837  0.2041  0.6712
18216THY    CA151464   2.941   6.620   4.204  0.0280  0.5875  0.2064
18216THY    CA251465   2.904   6.605   4.345 -0.3082  0.9502 -0.1246
18216THY    CP151466   2.837   6.484   4.404 -0.1009  0.2247  0.2037
18216THY    HP151467   2.815   6.412   4.325 -0.2009 -1.0716  1.6085
18216THY    CP251468   2.697   6.529   4.460 -0.2552  0.9450 -0.4804
18216THY    HP251469   2.631   6.575   4.385  0.9730  1.0267  1.5273
18216THY    HP351470   2.704   6.598   4.545 -1.0457  1.6808 -1.2809
18216THY    HP451471   2.648   6.436   4.492  2.2897 -0.7791 -2.5485
18216THY    CP351472   2.913   6.418   4.513 -0.4048 -0.4323  0.3475
18216THY    HP551473   2.908   6.486   4.599  4.2012  1.2732 -1.0931
18216THY    HP651474   3.013   6.398   4.472 -0.2527  0.4375 -0.7352
18216THY    HP751475   2.875   6.319   4.537  1.6717  1.0295 -0.1585
18216THY    CA351476   2.923   6.722   4.424 -0.0106  0.1261 -0.1242
18216THY    HA351477   2.897   6.724   4.530  2.1143  0.7976 -2.5220
18216THY    CA451478   2.995   6.831   4.375 -0.3318  0.4391 -0.7051
18216THY    HA451479   3.017   6.918   4.437  0.8622  1.0287 -1.3960
18216THY    CA551480   3.040   6.839   4.238 -0.3347 -0.3171  0.7770
18216THY    CM151481   3.117   6.952   4.186 -0.1291  0.3100 -0.4799
18216THY    HM151482   3.060   7.006   4.108 -0.2388  0.8848  0.2475
18216THY    HM251483   3.220   6.927   4.158  0.4586  1.4728  0.5520
18216THY    HM351484   3.128   7.024   4.268  1.4833  0.1950 -0.5686
18216THY    CA651485   3.013   6.733   4.153  0.0567 -0.5864 -0.1976
18216THY    HA651486   3.045   6.742   4.050  0.6802 -0.2973  1.2367
18217THY      O51487   7.081   7.529   5.699  0.0015 -0.0637 -0.1027
18217THY     HO51488   6.989   7.557   5.683  0.0674  1.6764  1.3214
18217THY    CA151489   7.150   7.545   5.582 -0.3104  0.5198  0.5829
18217THY    CA251490   7.294   7.561   5.581 -0.0620  0.5076  0.0059
18217THY    CP151491   7.369   7.553   5.716  0.4356  0.6251 -0.0176
18217THY    HP151492   7.314   7.489   5.785  0.9558  0.4077 -0.7182
18217THY    CP251493   7.375   7.697   5.766 -0.4718  0.8034 -0.7160
18217THY    HP251494   7.397   7.700   5.874  0.2659  0.6272  1.4803
18217THY    HP351495   7.279   7.747   5.750  0.7199 -1.3866  1.0323
18217THY    HP451496   7.445   7.759   5.710 -2.2412 -0.8171 -0.0728
18217THY    CP351497   7.510   7.492   5.722  0.0750  0.4778 -0.9050
18217THY    HP551498   7.563   7.535   5.637 -1.9785  0.5355  2.0536
18217THY    HP651499   7.507   7.384   5.703 -1.7417 -0.1808 -0.7722
18217THY    HP751500   7.556   7.526   5.816 -1.9463  1.8242 -1.6956
18217THY    CA351501   7.359   7.602   5.458 -0.0602  0.1705 -0.3995
18217THY    HA351502   7.467   7.607   5.453  0.1032  1.9754 -1.3173
18217THY    CA451503   7.290   7.613   5.339  0.0045 -0.7359  0.0876
18217THY    HA451504   7.347   7.640   5.251  4.5119  1.6928 -0.5499
18217THY    CA551505   7.154   7.581   5.344  0.5373  0.2392 -0.5772
18217THY    CM151506   7.076   7.601   5.215  0.4045 -0.1932  1.2781
18217THY    HM151507   7.137   7.655   5.142  0.8376 -0.2289  0.7448
18217THY    HM251508   6.978   7.648   5.231  0.1710 -0.1783  0.7851
18217THY    HM351509   7.062   7.503   5.169  0.3211  0.6674  0.8706
18217THY    CA651510   7.087   7.557   5.462 -0.0183  0.2069 -0.2085
18217THY    HA651511   6.979   7.564   5.451  0.2634 -2.8852  0.7478
18218THY      O51512   0.455   0.687   4.853  0.5324  0.1553  0.2875
18218THY     HO51513   0.490   0.769   4.813 -0.3505 -0.9288  0.1548
18218THY    CA151514   0.364   0.710   4.954  0.0486  0.8591  0.9653
18218THY    CA251515   0.288   0.610   5.007  0.5082 -0.1904 -0.3153
18218THY    CP151516   0.291   0.469   4.945 -0.4866  0.1793 -0.0076
18218THY    HP151517   0.320   0.478   4.840 -1.1077  0.1673  2.5116
18218THY    CP251518   0.147   0.400   4.949 -0.3335 -0.1460  1.0167
18218THY    HP251519   0.167   0.296   4.922 -1.0260  3.1498 -0.0737
18218THY    HP351520   0.059   0.441   4.897 -1.2041  0.3500 -0.1894
18218THY    HP451521   0.123   0.396   5.056 -0.5895 -0.2442 -1.1319
18218THY    CP351522   0.377   0.377   5.034 -1.2635  0.3850  0.1369
18218THY    HP551523   0.384   0.279   4.986 -1.6456  0.6925 -0.0407
18218THY    HP651524   0.337   0.355   5.133 -0.0680  0.4989 -1.6984
18218THY    HP751525   0.478   0.420   5.043 -0.8937  1.5024 -0.9141
18218THY    CA351526   0.222   0.629   5.133 -1.1140  0.3747  0.4601
18218THY    HA351527   0.164   0.551   5.181 -1.6999 -2.7545 -1.1623
18218THY    CA451528   0.224   0.762   5.189  0.0470  0.3888  0.6543
18218THY    HA451529   0.179   0.784   5.286 -0.2591  0.5729 -0.6849
18218THY    CA551530   0.301   0.860   5.127 -0.9736  0.1546 -0.1851
18218THY    CM151531   0.324   0.997   5.186 -0.1445  0.0049  0.2547
18218THY    HM151532   0.232   1.057   5.188  0.9436  1.4084  1.9793
18218THY    HM251533   0.407   1.054   5.143 -0.0935 -0.8700 -0.4563
18218THY    HM351534   0.345   0.989   5.294  0.2329  0.0649  1.6994
18218THY    CA651535   0.364   0.837   5.007 -0.1473 -0.8393 -0.0662
18218THY    HA651536   0.436   0.907   4.965 -0.5571 -0.1842  0.7587
18219THY      O51537   1.746   6.429   2.215  0.2605  0.1321  0.3973
18219THY     HO51538   1.723   6.511   2.262  0.5769 -0.8156  1.0479
18219THY    CA151539   1.814   6.480   2.115 -0.8017 -0.2261  0.4575
18219THY    CA251540   1.801   6.430   1.979 -0.5312  0.1428  0.0288
18219THY    CP151541   1.704   6.312   1.949 -0.3028  0.1989 -0.1089
18219THY    HP151542   1.640   6.292   2.036 -0.8098 -0.1689 -0.1021
18219THY    CP251543   1.761   6.179   1.908  0.1436  0.3096  0.2484
18219THY    HP251544   1.819   6.192   1.816 -0.2637 -0.2564 -1.6583
18219THY    HP351545   1.684   6.106   1.882 -2.0932  0.3901  2.4176
18219THY    HP451546   1.827   6.145   1.989  0.0512  0.5136  0.5410
18219THY    CP351547   1.603   6.361   1.847 -0.8676 -0.3738  0.1241
18219THY    HP551548   1.508   6.306   1.856 -0.2782  0.5350 -0.7938
18219THY    HP651549   1.634   6.348   1.743 -1.9432 -0.9701  2.0063
18219THY    HP751550   1.580   6.467   1.859  1.1530  0.2780  0.5231
18219THY    CA351551   1.873   6.495   1.869  0.3626 -0.7800  0.4236
18219THY    HA351552   1.865   6.473   1.763 -0.4786 -0.6948  0.2989
18219THY    CA451553   1.945   6.612   1.908  0.2737  0.0228 -0.5919
18219THY    HA451554   2.000   6.659   1.828  1.2890  0.9488 -0.1733
18219THY    CA551555   1.964   6.650   2.039 -0.0668 -0.5914 -0.2836
18219THY    CM151556   2.043   6.767   2.069  0.0243 -0.0272  0.3904
18219THY    HM151557   2.019   6.852   2.003  2.8164 -0.5199  0.8711
18219THY    HM251558   2.150   6.750   2.053  0.1549  1.3889 -0.2753
18219THY    HM351559   2.031   6.804   2.171  4.8066  0.3333  1.5164
18219THY    CA651560   1.900   6.582   2.141  0.6407  0.6896  0.3681
18219THY    HA651561   1.911   6.622   2.241 -2.2320  0.6806  1.3809
18220THY      O51562   6.924   6.815   6.889  0.4497  0.5422  0.0735
18220THY     HO51563   7.010   6.859   6.878 -0.7764 -1.0918  2.2547
18220THY    CA151564   6.862   6.868   6.998 -0.0286  0.1131  0.1036
18220THY    CA251565   6.720   6.879   7.009 -0.9621  0.0760  0.0171
18220THY    CP151566   6.634   6.818   6.896 -0.1915  0.1131 -0.1436
18220THY    HP151567   6.682   6.738   6.839 -1.3771 -0.6886 -0.3070
18220THY    CP251568   6.580   6.929   6.801 -0.8135 -0.2450  1.0110
18220THY    HP251569   6.660   6.940   6.727  0.5828  0.6841 -1.8747
18220THY    HP351570   6.573   7.020   6.861  1.2668 -0.4683  1.3707
18220THY    HP451571   6.487   6.908   6.748 -1.0861  0.7685 -0.4999
18220THY    CP351572   6.510   6.737   6.952 -0.1531 -0.6538 -0.3201
18220THY    HP551573   6.466   6.674   6.874  0.5821 -0.7012 -0.7948
18220THY    HP651574   6.437   6.811   6.985  0.3875 -0.1870  0.0172
18220THY    HP751575   6.544   6.676   7.037  0.6526 -0.9980 -0.3707
18220THY    CA351576   6.666   6.927   7.133  0.2286  0.0843 -0.5026
18220THY    HA351577   6.558   6.933   7.146  0.4061  1.0680  0.9403
18220THY    CA451578   6.751   6.969   7.238 -0.3006  0.5494 -0.6849
18220THY    HA451579   6.714   7.012   7.330  1.7910  0.5605  1.3390
18220THY    CA551580   6.889   6.954   7.223 -0.7431  0.2449 -0.5737
18220THY    CM151581   6.980   6.989   7.334 -0.3365 -0.4709  0.2316
18220THY    HM151582   6.965   7.090   7.374  0.4157  1.8955 -0.5512
18220THY    HM251583   7.087   6.971   7.321  0.1728  1.3531  1.6580
18220THY    HM351584   6.966   6.913   7.411  3.3637  0.4535  0.3475
18220THY    CA651585   6.942   6.902   7.110  0.5111  0.4595  0.0242
18220THY    HA651586   7.050   6.889   7.110  0.7813 -1.5665  1.6952
18221THY      O51587   0.269   2.958   2.925 -0.1398  0.5219 -0.2379
18221THY     HO51588   0.297   3.026   2.988  1.0667 -0.8386  0.5788
18221THY    CA151589   0.348   2.847   2.957 -0.3873 -0.4899  0.0959
18221THY    CA251590   0.326   2.718   2.892  0.0821 -0.1494 -1.4503
18221THY    CP151591   0.222   2.700   2.780  0.7347  0.2899 -0.7050
18221THY    HP151592   0.176   2.798   2.762  2.5260 -0.4630  0.0342
18221THY    CP251593   0.107   2.606   2.811 -0.1891  0.2278  1.0081
18221THY    HP251594   0.037   2.632   2.892 -0.5118  0.5093 -0.6006
18221THY    HP351595   0.138   2.502   2.827  0.5574 -1.7863  0.8853
18221THY    HP451596   0.029   2.611   2.735 -1.8279  1.6936 -0.6167
18221THY    CP351597   0.277   2.692   2.637  0.2702 -0.1340  0.2382
18221THY    HP551598   0.212   2.704   2.550 -1.8380  1.1889 -0.8893
18221THY    HP651599   0.321   2.592   2.623  0.0385 -1.2966  0.2822
18221THY    HP751600   0.363   2.758   2.625  0.6418  0.9182 -0.0281
18221THY    CA351601   0.412   2.615   2.921  0.6115 -0.6755  0.2657
18221THY    HA351602   0.407   2.515   2.879  0.3916 -1.5884  0.6450
18221THY    CA451603   0.521   2.638   3.008  0.1151  0.1473 -0.1739
18221THY    HA451604   0.599   2.564   3.006 -0.0229 -0.5933 -0.2984
18221THY    CA551605   0.532   2.763   3.071 -0.5135 -0.9579 -0.0820
18221THY    CM151606   0.648   2.777   3.168  0.3278  0.7929  0.3190
18221THY    HM151607   0.604   2.788   3.268 -0.1355  0.7905 -1.2083
18221THY    HM251608   0.703   2.869   3.149 -2.2116 -0.4600  1.6666
18221THY    HM351609   0.713   2.688   3.170  0.9611 -2.3385  0.6244
18221THY    CA651610   0.451   2.868   3.048  0.2359 -0.3541 -0.0468
18221THY    HA651611   0.465   2.955   3.111  2.7923 -1.6225  0.5543
18222THY      O51612   7.901   2.018   2.928 -0.4585 -0.1575 -0.2061
18222THY     HO51613   7.841   2.094   2.910 -0.8527  2.4600  0.2054
18222THY    CA151614   8.030   2.057   2.906  0.0639  0.2395 -0.6634
18222THY    CA251615   8.129   1.959   2.869  0.8596 -0.4716 -0.2293
18222THY    CP151616   8.089   1.803   2.863  0.3112 -0.2624 -0.6386
18222THY    HP151617   7.994   1.783   2.915 -0.6575 -1.1566  1.2964
18222THY    CP251618   8.191   1.732   2.939  0.4000  0.2001  0.4953
18222THY    HP251619   8.172   1.624   2.928 -4.5882 -2.4472  1.3574
18222THY    HP351620   8.181   1.759   3.045  0.5747  0.5622 -0.7789
18222THY    HP451621   8.293   1.751   2.903  0.6420  1.0786  0.9598
18222THY    CP351622   8.067   1.752   2.721  0.5560  0.4289 -0.2747
18222THY    HP551623   8.051   1.643   2.722  1.1696  0.6545 -0.3645
18222THY    HP651624   8.155   1.758   2.656  0.3849  0.2178 -0.0744
18222THY    HP751625   7.978   1.801   2.682 -0.5647  0.1053 -2.4341
18222THY    CA351626   8.257   2.003   2.832 -0.5803 -0.0081 -0.2287
18222THY    HA351627   8.329   1.932   2.794  0.3724  0.1820  0.6172
18222THY    CA451628   8.290   2.139   2.831  0.1039 -0.2060  0.0347
18222THY    HA451629   8.387   2.171   2.794 -0.1590 -1.3425 -0.4467
18222THY    CA551630   8.196   2.229   2.867  0.0302  0.0684 -0.2606
18222THY    CM151631   8.224   2.377   2.866 -0.6620  0.6936 -0.2184
18222THY    HM151632   8.329   2.407   2.864 -0.7612 -1.7958  0.1486
18222THY    HM251633   8.180   2.420   2.957 -1.6559  0.6295 -1.0538
18222THY    HM351634   8.171   2.424   2.783  0.2996 -0.5946 -1.3436
18222THY    CA651635   8.066   2.190   2.898  0.3826 -0.0199  0.2964
18222THY    HA651636   7.986   2.262   2.918  0.5379  0.8739  0.2329
18223THY      O51637   1.981   2.961   2.642 -1.2639 -0.3805  0.5336
18223THY     HO51638   1.996   2.980   2.736  1.8126 -0.0212 -2.5420
18223THY    CA151639   2.105   2.988   2.584 -0.5696  0.2000 -0.0560
18223THY    CA251640   2.135   2.979   2.453  0.5205  0.0904 -0.2165
18223THY    CP151641   2.031   2.933   2.352  0.1862 -0.2535  0.0515
18223THY    HP151642   1.941   2.891   2.400 -0.2912 -3.2760 -2.8085
18223THY    CP251643   2.076   2.818   2.268  0.1775  0.2330 -0.3289
18223THY    HP251644   2.094   2.724   2.321 -2.0862 -0.4911 -1.2291
18223THY    HP351645   2.171   2.843   2.219  0.3645  1.4318  1.5205
18223THY    HP451646   1.999   2.781   2.199 -0.9291  1.3270 -0.1224
18223THY    CP351647   1.990   3.053   2.264 -0.4654 -0.3792  0.4193
18223THY    HP551648   2.081   3.102   2.229 -0.7436 -0.3627  0.9557
18223THY    HP651649   1.935   3.125   2.325 -1.8236  0.0158 -0.8965
18223THY    HP751650   1.924   3.035   2.178  1.6321 -2.0549  0.3891
18223THY    CA351651   2.262   3.023   2.408 -0.5042 -0.5966 -0.3283
18223THY    HA351652   2.295   3.013   2.305  1.4599 -0.2148  1.3754
18223THY    CA451653   2.355   3.063   2.502 -0.2393 -0.3969  0.0024
18223THY    HA451654   2.456   3.083   2.469 -0.2275  0.4497  1.4989
18223THY    CA551655   2.329   3.075   2.639 -0.5467  0.4438  0.0837
18223THY    CM151656   2.434   3.109   2.730 -0.3843 -0.2302  0.1609
18223THY    HM151657   2.504   3.182   2.689  0.3804  0.6840 -0.0263
18223THY    HM251658   2.484   3.011   2.739  0.1116 -2.7816  0.1090
18223THY    HM351659   2.403   3.146   2.828  1.5584  0.2073  0.7795
18223THY    CA651660   2.199   3.039   2.679 -0.0627 -0.7969  0.6094
18223THY    HA651661   2.167   3.044   2.783 -1.9645 -1.3334  0.6304
18224THY      O51662   4.425   1.075   3.809 -0.0459 -0.1580 -0.2665
18224THY     HO51663   4.421   1.051   3.903 -0.3235  0.7231  2.7354
18224THY    CA151664   4.549   1.125   3.798 -0.0301  0.0695  0.3824
18224THY    CA251665   4.627   1.089   3.689  0.1776  0.4061 -0.3449
18224THY    CP151666   4.575   0.995   3.580 -0.6383  0.3222 -0.4998
18224THY    HP151667   4.466   0.993   3.586 -0.8421 -1.3148  1.5186
18224THY    CP251668   4.633   0.851   3.587 -0.3122 -0.0045  0.1548
18224THY    HP251669   4.742   0.864   3.588 -0.0759 -3.7838 -0.3972
18224THY    HP351670   4.604   0.780   3.508 -1.8763 -0.9135  1.7320
18224THY    HP451671   4.602   0.811   3.684  2.3814  1.9829  2.5046
18224THY    CP351672   4.599   1.047   3.436  0.3933  0.0860 -0.1569
18224THY    HP551673   4.561   1.148   3.414  0.2793 -3.1126 -0.7790
18224THY    HP651674   4.560   0.985   3.355 -3.1830  0.3079  1.5398
18224THY    HP751675   4.707   1.040   3.418  0.1745 -2.4149  1.3940
18224THY    CA351676   4.755   1.139   3.679  0.8623 -0.1322  1.0320
18224THY    HA351677   4.815   1.109   3.594 -0.3524 -0.5010 -0.4783
18224THY    CA451678   4.803   1.225   3.781  0.4117  0.3220  0.2438
18224THY    HA451679   4.902   1.268   3.768 -0.4013 -2.9699  1.4785
18224THY    CA551680   4.722   1.261   3.889  0.4664 -0.4171  0.4317
18224THY    CM151681   4.761   1.361   4.001 -0.1403  0.2091 -0.4095
18224THY    HM151682   4.868   1.373   4.020 -0.1612  0.4621 -0.6268
18224THY    HM251683   4.708   1.342   4.095 -1.7673 -0.8596 -1.5032
18224THY    HM351684   4.715   1.457   3.971 -3.4240  2.7882 -0.9848
18224THY    CA651685   4.597   1.204   3.902  0.5600 -0.2327 -0.3300
18224THY    HA651686   4.527   1.239   3.977  0.8021  0.9490 -2.2422
18225THY      O51687   1.138   7.890   5.073  0.2983  1.2725  0.0083
18225THY     HO51688   1.047   7.865   5.093  0.6793  2.8161 -0.2777
18225THY    CA151689   1.154   8.022   5.089  0.4312 -0.5310 -0.3271
18225THY    CA251690   1.279   8.074   5.079  0.0993 -0.0729 -0.0620
18225THY    CP151691   1.404   7.988   5.047 -0.5935  0.7733  0.5087
18225THY    HP151692   1.399   7.891   5.097 -0.0607  1.8635  1.0216
18225THY    CP251693   1.526   8.047   5.115 -0.6924 -0.1587 -0.0638
18225THY    HP251694   1.609   7.977   5.103  1.4476  3.4314  1.5639
18225THY    HP351695   1.510   8.070   5.221 -1.2813 -0.5576  1.4887
18225THY    HP451696   1.551   8.145   5.072 -1.8784  1.4793  1.0186
18225THY    CP351697   1.423   7.967   4.898 -0.5076 -0.3800  0.5070
18225THY    HP551698   1.500   7.891   4.887 -0.5736 -0.0171  0.3829
18225THY    HP651699   1.469   8.049   4.842 -0.6298 -1.3942 -0.1028
18225THY    HP751700   1.322   7.941   4.863 -0.3884  0.0910 -0.6553
18225THY    CA351701   1.285   8.216   5.101 -0.6590 -0.2444  0.2500
18225THY    HA351702   1.381   8.267   5.093  0.1829  2.2689 -0.8040
18225THY    CA451703   1.165   8.290   5.137 -0.1674 -0.2605  0.0532
18225THY    HA451704   1.183   8.396   5.153  2.1068  2.1270 -0.5919
18225THY    CA551705   1.041   8.233   5.149 -0.1374  0.0298  0.1941
18225THY    CM151706   0.913   8.308   5.184  0.1373 -0.4794  0.5443
18225THY    HM151707   0.917   8.341   5.288  0.8261 -0.4096  0.2650
18225THY    HM251708   0.821   8.249   5.177  1.1487  0.6632 -1.3086
18225THY    HM351709   0.903   8.391   5.114  1.1665 -0.7588  0.4484
18225THY    CA651710   1.045   8.091   5.129  0.2713 -0.5901 -0.2575
18225THY    HA651711   0.949   8.041   5.134  0.4863  1.2377 -0.5690
18226THY      O51712   2.168   4.365   7.889 -0.1552 -0.7657  0.5523
18226THY     HO51713   2.237   4.434   7.884  0.8668  1.0306 -0.2739
18226THY    CA151714   2.109   4.348   7.773 -0.6196  1.3681  0.6132
18226THY    CA251715   2.014   4.244   7.745  0.1846  0.1439  0.1273
18226THY    CP151716   1.959   4.148   7.857  0.1604  0.1020 -0.3779
18226THY    HP151717   2.019   4.160   7.948  1.4745 -0.3535 -2.7926
18226THY    CP251718   1.973   4.002   7.813  0.5589 -0.2007 -0.5486
18226THY    HP251719   1.965   3.941   7.903 -2.3473 -1.4348 -2.2028
18226THY    HP351720   2.064   3.988   7.754 -0.1159 -1.5254  0.3995
18226THY    HP451721   1.892   3.964   7.748 -0.1227  0.8757 -0.9855
18226THY    CP351722   1.809   4.176   7.889 -0.3724 -0.1160 -0.2389
18226THY    HP551723   1.791   4.278   7.926 -0.0518  2.1718 -0.9410
18226THY    HP651724   1.776   4.105   7.967  2.0983 -0.1760 -1.5775
18226THY    HP751725   1.748   4.155   7.800 -1.6774  1.2862 -2.9516
18226THY    CA351726   1.981   4.225   7.608  0.4208 -0.1177  0.0526
18226THY    HA351727   1.924   4.141   7.569  1.2008 -2.7450  0.6463
18226THY    CA451728   2.025   4.313   7.514  0.4116  0.5189 -0.0025
18226THY    HA451729   1.979   4.310   7.416 -0.8557  1.0297  1.3781
18226THY    CA551730   2.115   4.419   7.544 -0.0176  0.6156  0.0027
18226THY    CM151731   2.167   4.519   7.444  0.6344  0.1620  0.8849
18226THY    HM151732   2.259   4.565   7.481  0.1152  1.6738  0.7810
18226THY    HM251733   2.099   4.601   7.416  0.0293 -0.8734  0.0473
18226THY    HM351734   2.196   4.461   7.356  1.0980  1.5345 -1.0515
18226THY    CA651735   2.161   4.427   7.675 -0.3002 -0.1016  0.1830
18226THY    HA651736   2.229   4.510   7.695 -0.7898 -1.6138  0.9884
18227THY      O51737   8.161   0.540   5.095  0.5799  0.1525  0.1004
18227THY     HO51738   8.074   0.580   5.077  0.1686  2.8322  0.6122
18227THY    CA151739   8.240   0.649   5.125  0.3856 -0.2953  0.0458
18227THY    CA251740   8.364   0.642   5.182  0.1979  0.6961 -0.4659
18227THY    CP151741   8.427   0.512   5.223  0.0029 -0.2533  0.4866
18227THY    HP151742   8.354   0.444   5.269 -0.1202 -1.6564 -0.3635
18227THY    CP251743   8.544   0.522   5.323 -0.2641 -0.2175  0.4205
18227THY    HP251744   8.636   0.566   5.283 -0.5203  0.2483  1.3995
18227THY    HP351745   8.567   0.427   5.373 -0.2345 -0.4464  0.3078
18227THY    HP451746   8.504   0.581   5.407 -1.4488 -0.8473  0.5429
18227THY    CP351747   8.489   0.446   5.093  0.4974  0.0127 -1.0433
18227THY    HP551748   8.570   0.508   5.052 -1.2384 -0.9029  0.7280
18227THY    HP651749   8.404   0.432   5.026 -0.2824  0.6650  0.3071
18227THY    HP751750   8.534   0.349   5.117 -0.4187 -0.8504 -1.6964
18227THY    CA351751   8.440   0.765   5.194 -0.1655  0.6613 -0.3491
18227THY    HA351752   8.540   0.763   5.235  0.6106 -1.1715 -0.9533
18227THY    CA451753   8.381   0.888   5.152  0.1109  0.2761  0.7524
18227THY    HA451754   8.420   0.986   5.177 -0.4684  0.0689  1.0437
18227THY    CA551755   8.252   0.885   5.102 -0.9814  0.1274  0.1816
18227THY    CM151756   8.184   1.015   5.064 -0.2336 -0.2280 -0.2237
18227THY    HM151757   8.261   1.088   5.036 -1.8388 -0.0515  1.6207
18227THY    HM251758   8.132   1.059   5.150  0.3707  0.4778 -0.8685
18227THY    HM351759   8.113   1.016   4.981 -0.9607  0.2729  3.5335
18227THY    CA651760   8.181   0.768   5.092 -0.5283  0.1303 -0.2365
18227THY    HA651761   8.083   0.766   5.047 -0.6043  0.3068 -0.4620
18228THY      O51762   6.359   7.407   7.816  0.5563 -0.2542 -0.2607
18228THY     HO51763   6.427   7.475   7.803  1.3742 -1.8441 -1.3200
18228THY    CA151764   6.303   7.384   7.693  0.4711 -0.1785 -0.3684
18228THY    CA251765   6.228   7.270   7.680 -0.1787  0.7776 -0.1226
18228THY    CP151766   6.217   7.169   7.801  0.3342  0.1161 -0.1289
18228THY    HP151767   6.305   7.177   7.866 -0.7365  1.4422  1.6926
18228THY    CP251768   6.175   7.027   7.758  0.1368 -0.4549  0.5225
18228THY    HP251769   6.074   7.036   7.717  0.2537 -0.6555  0.9437
18228THY    HP351770   6.174   6.971   7.853 -0.0215 -0.1378  1.0594
18228THY    HP451771   6.248   6.972   7.698  2.5031  0.7238  2.1981
18228THY    CP351772   6.103   7.229   7.891 -0.6021 -0.3981  0.4575
18228THY    HP551773   6.112   7.336   7.918  0.4131  2.0362 -0.1595
18228THY    HP651774   6.110   7.176   7.987 -2.1990 -0.2685  0.4455
18228THY    HP751775   5.998   7.218   7.862 -0.5655  0.1125 -1.4450
18228THY    CA351776   6.181   7.237   7.556 -0.1696 -0.4619 -0.0348
18228THY    HA351777   6.119   7.148   7.544  0.0295 -1.5848 -0.0407
18228THY    CA451778   6.193   7.335   7.448 -0.8387  0.2040  0.7484
18228THY    HA451779   6.149   7.312   7.352  0.3088 -0.0644 -0.4826
18228THY    CA551780   6.257   7.458   7.470 -0.0909 -0.0899  0.5103
18228THY    CM151781   6.285   7.549   7.357 -0.2240 -0.1669 -0.2641
18228THY    HM151782   6.267   7.656   7.373 -1.2205 -2.0781 -0.1170
18228THY    HM251783   6.218   7.518   7.276 -1.1366  0.0459  1.0930
18228THY    HM351784   6.388   7.533   7.324 -0.4707 -1.0314 -0.1225
18228THY    CA651785   6.317   7.479   7.593  0.2288 -0.1222  0.6910
18228THY    HA651786   6.376   7.567   7.616  0.9633  3.2175 -0.5089
18229THY      O51787   1.216   8.468   4.728 -0.0928 -0.3374 -0.2343
18229THY     HO51788   1.122   8.454   4.705  0.1403  0.0372 -2.8730
18229THY    CA151789   1.235   8.559   4.826  0.3540  0.7089 -0.5022
18229THY    CA251790   1.366   8.600   4.871  0.0729 -0.3136 -0.6474
18229THY    CP151791   1.491   8.554   4.804  0.6461 -0.9489 -0.3081
18229THY    HP151792   1.460   8.538   4.700 -0.9159 -0.7992  1.3725
18229THY    CP251793   1.566   8.439   4.886  0.1778 -0.1477 -0.0747
18229THY    HP251794   1.669   8.423   4.853 -0.2666 -0.8983 -1.5869
18229THY    HP351795   1.523   8.338   4.884  1.5332  1.7454 -0.7567
18229THY    HP451796   1.564   8.460   4.994  0.2872  0.0468 -1.0167
18229THY    CP351797   1.587   8.676   4.798 -0.2909  0.2926  0.2010
18229THY    HP551798   1.554   8.751   4.725  0.1117 -2.0541 -1.7485
18229THY    HP651799   1.681   8.633   4.761 -0.0890 -0.0369  0.9205
18229THY    HP751800   1.612   8.724   4.893 -0.1748  0.1976  0.3302
18229THY    CA351801   1.378   8.677   4.987  0.3782 -0.1888  0.1503
18229THY    HA351802   1.468   8.699   5.044 -0.9409  2.1296 -0.0633
18229THY    CA451803   1.260   8.731   5.044  0.0665 -0.1581  0.1260
18229THY    HA451804   1.263   8.794   5.132  1.9922  0.0401 -0.1951
18229THY    CA551805   1.132   8.687   5.005 -0.1686 -0.5298  0.0738
18229THY    CM151806   1.010   8.728   5.078  0.2144  0.2274 -0.2201
18229THY    HM151807   0.917   8.714   5.022  0.4786 -0.4457  0.5939
18229THY    HM251808   1.013   8.834   5.104 -1.3395 -1.5273  0.2995
18229THY    HM351809   0.988   8.671   5.169 -2.9336 -0.4580 -0.2730
18229THY    CA651810   1.124   8.605   4.891 -0.1961  0.0238 -0.3132
18229THY    HA651811   1.027   8.567   4.862  0.3966 -0.2808 -1.6674
18230THY      O51812   2.678   7.327   4.569  0.6489  0.6314 -0.2907
18230THY     HO51813   2.699   7.422   4.581  0.3939 -3.0181  0.3755
18230THY    CA151814   2.735   7.293   4.450 -0.6298 -0.0292 -0.4365
18230THY    CA251815   2.737   7.165   4.393  0.3164 -0.2384 -0.8623
18230THY    CP151816   2.662   7.057   4.458  0.4448  0.9287 -0.2996
18230THY    HP151817   2.563   7.091   4.489  0.6915  0.6468  0.6928
18230THY    CP251818   2.742   7.010   4.579 -0.5302 -0.2997 -0.0058
18230THY    HP251819   2.729   7.088   4.655 -0.4733  2.2671 -2.3523
18230THY    HP351820   2.848   6.986   4.566 -0.4227  1.6129 -0.7150
18230THY    HP451821   2.686   6.925   4.620  1.1962 -1.4651 -1.7693
18230THY    CP351822   2.630   6.934   4.370 -0.6794 -0.1151  0.2054
18230THY    HP551823   2.722   6.884   4.337 -0.8039 -0.3453  0.1291
18230THY    HP651824   2.565   6.971   4.291 -0.6829  0.0594  0.5789
18230THY    HP751825   2.581   6.864   4.438  3.5253  1.2567 -1.7504
18230THY    CA351826   2.821   7.144   4.285 -0.1657  0.7492  0.3787
18230THY    HA351827   2.837   7.050   4.233  3.4628 -2.7702  2.6461
18230THY    CA451828   2.894   7.255   4.224  0.2343  0.2773  0.7727
18230THY    HA451829   2.951   7.253   4.131 -1.9979 -1.1848  1.7519
18230THY    CA551830   2.891   7.378   4.286  0.6518  0.0852 -0.1689
18230THY    CM151831   2.960   7.497   4.228  0.3792 -0.0426 -0.0941
18230THY    HM151832   2.994   7.568   4.305  0.3976 -1.0356  0.9931
18230THY    HM251833   2.884   7.556   4.176  0.8961 -2.1976 -1.2276
18230THY    HM351834   3.044   7.476   4.160 -0.6361 -1.7130  1.0297
18230THY    CA651835   2.805   7.402   4.392  0.2207  0.1299  0.8345
18230THY    HA651836   2.797   7.503   4.431 -1.7674 -0.2764  0.8640
18231THY      O51837   8.300   5.817   5.118  0.0428  0.3362 -0.7878
18231THY     HO51838   8.342   5.848   5.036 -0.1683 -0.3542 -2.2466
18231THY    CA151839   8.290   5.683   5.090 -0.0990  0.4986 -0.1123
18231THY    CA251840   8.189   5.599   5.145  0.9734 -0.5052 -0.3004
18231THY    CP151841   8.095   5.666   5.251 -0.0619  0.2348 -0.5716
18231THY    HP151842   8.129   5.762   5.290  0.5589 -1.8715  0.1073
18231THY    CP251843   8.079   5.581   5.378 -0.8264  0.3132 -0.0209
18231THY    HP251844   8.005   5.620   5.449 -0.7326 -0.1901  1.1160
18231THY    HP351845   8.166   5.560   5.440 -0.2064 -1.1956 -2.2600
18231THY    HP451846   8.039   5.482   5.352  2.8251  1.8208 -2.0683
18231THY    CP351847   7.953   5.678   5.197  0.2939 -0.0583 -1.0676
18231THY    HP551848   7.885   5.602   5.237  1.3288 -0.4514 -2.2305
18231THY    HP651849   7.959   5.676   5.088 -0.6822 -0.2001  1.0288
18231THY    HP751850   7.910   5.774   5.228  0.2088  1.3440 -1.5396
18231THY    CA351851   8.174   5.470   5.099 -0.4151 -0.0868 -0.1916
18231THY    HA351852   8.096   5.409   5.144 -1.2385 -1.1192  0.0628
18231THY    CA451853   8.271   5.418   5.004 -0.2382  0.0314  0.1924
18231THY    HA451854   8.260   5.316   4.969  0.9383  0.3587 -0.0508
18231THY    CA551855   8.373   5.507   4.959 -0.6475  0.6662  0.5556
18231THY    CM151856   8.477   5.459   4.859  0.3598 -0.0732 -0.7627
18231THY    HM151857   8.575   5.436   4.903  1.0825 -1.4708 -0.5028
18231THY    HM251858   8.495   5.540   4.787 -1.7960  1.4668  1.2058
18231THY    HM351859   8.433   5.379   4.798  2.9270 -0.6409 -1.8615
18231THY    CA651860   8.376   5.637   4.997  0.9257 -0.5221 -0.2942
18231THY    HA651861   8.453   5.696   4.950  2.3931  1.9481 -0.1135
18232THY      O51862   6.189   8.612   4.210 -0.0087  0.2629 -0.0200
18232THY     HO51863   6.236   8.627   4.294  0.3123  0.0048  0.4531
18232THY    CA151864   6.086   8.526   4.223 -0.9336  0.0447  0.3881
18232THY    CA251865   6.029   8.467   4.114  0.0886 -0.1373  0.1874
18232THY    CP151866   6.091   8.491   3.972  0.0332  0.3601 -0.0759
18232THY    HP151867   6.183   8.550   3.983 -0.2974  1.2182  0.2909
18232THY    CP251868   5.998   8.557   3.870 -0.6162  0.2872 -0.5306
18232THY    HP251869   5.955   8.649   3.911  0.8182  0.8715 -0.0833
18232THY    HP351870   5.920   8.497   3.822 -0.9968  0.2897 -0.0447
18232THY    HP451871   6.064   8.581   3.786  0.7914  1.6774  0.7339
18232THY    CP351872   6.137   8.357   3.915 -0.3557  0.7924  0.1616
18232THY    HP551873   6.212   8.306   3.977  0.6850  0.3908  1.1730
18232THY    HP651874   6.176   8.391   3.818 -0.0988  0.7593 -0.2160
18232THY    HP751875   6.049   8.295   3.895  0.9842 -0.5265 -1.4359
18232THY    CA351876   5.914   8.385   4.132 -0.8065  0.0413 -0.0040
18232THY    HA351877   5.856   8.340   4.052 -0.0490 -0.0201 -0.9003
18232THY    CA451878   5.873   8.363   4.267 -0.2558  0.2978 -0.7614
18232THY    HA451879   5.790   8.300   4.299 -0.2808  3.1766  0.5662
18232THY    CA551880   5.938   8.428   4.376 -0.7626  0.1514 -0.1201
18232THY    CM151881   5.892   8.403   4.511 -0.8448 -0.5406  0.8160
18232THY    HM151882   5.975   8.383   4.579 -0.4488 -1.7053 -2.1710
18232THY    HM251883   5.836   8.308   4.513 -0.0489  1.9802  0.3253
18232THY    HM351884   5.835   8.483   4.559 -0.8096  2.1206 -0.6484
18232THY    CA651885   6.045   8.508   4.350  0.2283 -0.2229 -0.0407
18232THY    HA651886   6.099   8.550   4.435  1.3152 -0.5358 -0.7546
18233THY      O51887   2.788   4.660   7.190 -0.0097  0.1306 -0.7717
18233THY     HO51888   2.786   4.752   7.158  2.6456 -0.8165 -0.9514
18233THY    CA151889   2.725   4.585   7.099  1.3806 -0.0205 -0.1645
18233THY    CA251890   2.762   4.448   7.078  0.5252 -0.1513 -0.2513
18233THY    CP151891   2.875   4.396   7.165 -0.0647 -0.0694  1.0129
18233THY    HP151892   2.873   4.430   7.269 -2.4614  0.5467 -0.7114
18233THY    CP251893   3.003   4.439   7.093  0.7313 -0.5105  0.3782
18233THY    HP251894   3.004   4.547   7.074 -0.3956 -0.2550  0.4469
18233THY    HP351895   2.999   4.386   6.997 -0.6406  0.2486 -0.9972
18233THY    HP451896   3.089   4.408   7.154 -0.4995  0.0445 -2.2747
18233THY    CP351897   2.872   4.242   7.175 -0.3587 -0.5876  0.1239
18233THY    HP551898   2.906   4.203   7.271 -1.1421 -0.7336 -0.9804
18233THY    HP651899   2.947   4.209   7.102  0.1740 -0.0396  0.1088
18233THY    HP751900   2.772   4.201   7.158 -1.2038 -0.0199  1.8553
18233THY    CA351901   2.709   4.381   6.969  0.1497 -0.4800  0.5624
18233THY    HA351902   2.750   4.283   6.945 -0.1823 -0.3260  0.3816
18233THY    CA451903   2.607   4.444   6.891  0.2184 -0.5880 -0.5757
18233THY    HA451904   2.567   4.401   6.800 -0.3971 -1.3455  1.4821
18233THY    CA551905   2.569   4.574   6.918  0.7995  0.2805 -0.4949
18233THY    CM151906   2.471   4.631   6.829 -0.2073 -0.3543 -0.8325
18233THY    HM151907   2.402   4.554   6.792 -1.5069  2.0351 -0.9069
18233THY    HM251908   2.517   4.686   6.746 -1.0151  0.7129  1.5489
18233THY    HM351909   2.410   4.695   6.893 -1.0666 -0.5664 -1.4219
18233THY    CA651910   2.626   4.645   7.022 -0.0611 -0.6800  0.3200
18233THY    HA651911   2.603   4.751   7.030  1.8601 -1.0273  0.8211
18234THY      O51912   7.536   7.842   2.034 -0.5415 -0.4111  0.7076
18234THY     HO51913   7.590   7.891   2.099  2.8071 -0.6058 -2.3169
18234THY    CA151914   7.622   7.752   1.981  0.1414  0.2213 -0.2506
18234THY    CA251915   7.574   7.626   1.932 -1.3469 -0.4621  0.9634
18234THY    CP151916   7.424   7.600   1.938 -0.0188 -0.1330 -0.1721
18234THY    HP151917   7.360   7.686   1.960 -2.0898 -2.3974 -1.0128
18234THY    CP251918   7.381   7.488   2.042  0.3845 -0.3893  0.0500
18234THY    HP251919   7.430   7.395   2.012  0.0767 -3.1699  0.7062
18234THY    HP351920   7.275   7.459   2.042  0.7503  0.1736 -1.3702
18234THY    HP451921   7.411   7.514   2.144 -0.3688 -0.0537 -0.3554
18234THY    CP351922   7.367   7.563   1.799  0.8608 -0.0103 -0.3476
18234THY    HP551923   7.392   7.630   1.716 -1.6922 -1.6240 -1.2412
18234THY    HP651924   7.258   7.562   1.804  0.8584  0.0483  0.0756
18234THY    HP751925   7.409   7.469   1.760 -1.5464 -1.1630 -1.0312
18234THY    CA351926   7.669   7.538   1.877  0.5622  1.1164 -0.7944
18234THY    HA351927   7.648   7.437   1.844 -2.1013  0.5944 -0.1281
18234THY    CA451928   7.807   7.564   1.896  0.2898  0.5145 -0.6176
18234THY    HA451929   7.877   7.488   1.864  1.7187 -0.6961  1.1113
18234THY    CA551930   7.850   7.687   1.943 -0.5701 -0.3702 -0.2530
18234THY    CM151931   7.992   7.729   1.953  0.1013  0.4439  0.0340
18234THY    HM151932   8.003   7.777   2.051 -0.4055  0.0316  1.0064
18234THY    HM251933   8.012   7.816   1.890  0.5839 -0.2322 -0.5466
18234THY    HM351934   8.064   7.649   1.933 -0.2341 -0.8799  0.0331
18234THY    CA651935   7.755   7.775   1.988 -0.1289  0.2596 -0.1803
18234THY    HA651936   7.788   7.861   2.045  0.5054 -0.6783  0.2180
18235THY      O51937   4.677   3.047   1.571 -0.1897 -0.4076  0.3524
18235THY     HO51938   4.685   3.115   1.503  1.3725  0.2022  0.8239
18235THY    CA151939   4.798   3.019   1.625 -0.0472 -0.1261 -0.0293
18235THY    CA251940   4.833   2.889   1.666  0.0828  1.1091 -0.1102
18235THY    CP151941   4.728   2.780   1.669  0.4696  0.9197  0.5243
18235THY    HP151942   4.648   2.799   1.597 -0.4317  2.3046  2.2141
18235THY    CP251943   4.646   2.777   1.803  0.2477 -0.6712 -0.1624
18235THY    HP251944   4.589   2.684   1.815 -0.4870  1.6015  0.5217
18235THY    HP351945   4.569   2.853   1.821  0.9311  0.7931  0.1941
18235THY    HP451946   4.715   2.768   1.887 -1.1867  0.4177 -1.5462
18235THY    CP351947   4.778   2.635   1.638  0.2489 -0.2154 -0.2160
18235THY    HP551948   4.858   2.627   1.564  1.8466  1.5213 -0.9723
18235THY    HP651949   4.689   2.575   1.614 -0.9950  1.0489  1.0206
18235THY    HP751950   4.818   2.598   1.733 -0.2114 -0.1596 -0.5768
18235THY    CA351951   4.963   2.872   1.718 -0.2211  0.1746 -0.6213
18235THY    HA351952   4.994   2.771   1.744 -2.3866  0.2226 -1.3129
18235THY    CA451953   5.056   2.977   1.714  0.5369  0.0694 -0.1590
18235THY    HA451954   5.161   2.958   1.736  0.1578  1.5038 -0.7885
18235THY    CA551955   5.015   3.103   1.674 -0.4439 -0.2364  0.0673
18235THY    CM151956   5.123   3.207   1.669 -0.0147  0.3151  0.9351
18235THY    HM151957   5.192   3.183   1.750  0.2345 -0.3008 -0.5429
18235THY    HM251958   5.087   3.310   1.683 -0.0388  0.1653  0.9475
18235THY    HM351959   5.180   3.195   1.576 -0.6646  0.2314 -2.4604
18235THY    CA651960   4.886   3.130   1.633 -0.0801 -1.1095  0.3895
18235THY    HA651961   4.862   3.228   1.593 -1.0880 -0.3176  0.4776
18236THY      O51962   8.868   8.859   3.053  0.0872  0.3713  0.0815
18236THY     HO51963   8.791   8.800   3.040  1.6477  0.9220 -2.2005
18236THY    CA151964   8.854   8.949   2.955  0.0913 -0.3120 -0.3066
18236THY    CA251965   8.968   8.998   2.892  0.3499 -0.9959  0.6107
18236THY    CP151966   9.103   8.963   2.944 -0.0117  0.0007  0.0502
18236THY    HP151967   9.173   9.006   2.871  0.3109 -0.4052 -1.1071
18236THY    CP251968   9.140   8.807   2.937 -0.1916  0.0366 -0.4145
18236THY    HP251969   9.246   8.785   2.925 -0.4710  0.3237 -2.0792
18236THY    HP351970   9.083   8.768   2.852 -1.2436  0.3586  0.3615
18236THY    HP451971   9.107   8.757   3.029  0.2915 -0.0998 -0.9937
18236THY    CP351972   9.140   9.025   3.079  0.6512 -0.1281  0.4054
18236THY    HP551973   9.060   8.998   3.148  0.2710 -0.3928  0.8518
18236THY    HP651974   9.146   9.135   3.072 -3.1123 -1.0272  0.6643
18236THY    HP751975   9.239   8.995   3.116  1.4581 -1.6661  1.0978
18236THY    CA351976   8.959   9.083   2.779  0.2126 -1.1374  0.7042
18236THY    HA351977   9.052   9.116   2.734  0.8920  0.3131  0.8431
18236THY    CA451978   8.826   9.114   2.742  0.3614  0.2262 -0.0753
18236THY    HA451979   8.819   9.175   2.652  2.8500  0.1840  0.2438
18236THY    CA551980   8.714   9.070   2.800  0.2859  0.3271 -0.3452
18236THY    CM151981   8.584   9.102   2.733  0.7356 -0.1041  0.2688
18236THY    HM151982   8.580   9.049   2.637  0.0190 -0.2123  0.4976
18236THY    HM251983   8.561   9.209   2.724  0.0715  2.0980  0.3568
18236THY    HM351984   8.505   9.077   2.805  0.7684  0.2183  1.0536
18236THY    CA651985   8.731   8.981   2.909 -0.2097 -0.1891  0.1833
18236THY    HA651986   8.642   8.943   2.958 -0.8505 -1.6889 -0.3291
18237THY      O51987   5.706   1.829   1.848 -0.2159  0.1043 -0.1980
18237THY     HO51988   5.640   1.790   1.789 -0.4085 -0.0268  0.3171
18237THY    CA151989   5.656   1.800   1.968  0.2192 -0.3518  0.0806
18237THY    CA251990   5.702   1.857   2.088 -0.5416  0.6089  0.2709
18237THY    CP151991   5.832   1.944   2.082 -0.7476  0.3273  0.5182
18237THY    HP151992   5.836   2.006   1.992 -1.4312  0.7869  1.2655
18237THY    CP251993   5.952   1.855   2.092  0.5635 -0.7253  0.3814
18237THY    HP251994   6.043   1.916   2.087 -0.1399  1.2992  1.6948
18237THY    HP351995   5.949   1.779   2.013 -1.0309 -0.5765  0.2631
18237THY    HP451996   5.947   1.800   2.187 -0.0163 -0.6277  0.5926
18237THY    CP351997   5.837   2.054   2.185 -0.3585  0.1578 -0.5573
18237THY    HP551998   5.748   2.118   2.189  0.5051 -1.2623  0.8054
18237THY    HP651999   5.919   2.125   2.172 -2.3288  3.6505  2.7250
18237THY    HP752000   5.861   2.010   2.283 -1.5446 -0.1205 -1.8801
18237THY    CA352001   5.648   1.812   2.210  0.3088 -0.3782 -0.3706
18237THY    HA352002   5.690   1.855   2.301  0.3968 -1.6914  2.6071
18237THY    CA452003   5.538   1.722   2.203  0.2246  0.0492  0.2434
18237THY    HA452004   5.489   1.683   2.292  1.7863  0.7032 -0.2750
18237THY    CA552005   5.483   1.682   2.082 -0.4149  0.2855 -0.4659
18237THY    CM152006   5.395   1.563   2.084  0.3251  0.2654 -0.2881
18237THY    HM152007   5.338   1.562   1.990  2.4467 -1.1306  0.8728
18237THY    HM252008   5.318   1.575   2.161  2.2593  2.0992  1.1363
18237THY    HM352009   5.450   1.469   2.097 -0.0434  0.4344 -0.4796
18237THY    CA652010   5.548   1.714   1.965 -0.3535  0.4054  0.7097
18237THY    HA652011   5.505   1.680   1.872 -0.0796 -0.3963  2.4193
18238THY      O52012   8.209   5.170   7.852  0.0189 -0.2979  0.0930
18238THY     HO52013   8.210   5.257   7.810 -0.2687 -0.5123 -0.0076
18238THY    CA152014   8.095   5.099   7.816 -0.5154  0.1094  0.2069
18238THY    CA252015   8.101   4.969   7.760 -0.5911  0.0825 -0.7968
18238THY    CP152016   8.238   4.907   7.745  0.0580  0.4779  0.3664
18238THY    HP152017   8.319   4.980   7.754 -0.0427 -0.0413  0.5491
18238THY    CP252018   8.261   4.850   7.600  0.1482  0.4568 -0.3101
18238THY    HP252019   8.202   4.759   7.585  0.9387  0.7705 -0.8952
18238THY    HP352020   8.369   4.836   7.582  0.4202  0.2945  1.7010
18238THY    HP452021   8.229   4.933   7.536  0.5446  0.8656  0.1685
18238THY    CP352022   8.277   4.798   7.841  0.4197  0.4480 -0.4477
18238THY    HP552023   8.276   4.843   7.941  0.6207  0.5109 -0.5780
18238THY    HP652024   8.382   4.771   7.824  0.5790  1.4529 -0.4970
18238THY    HP752025   8.214   4.709   7.838 -0.1630 -1.1649 -0.0354
18238THY    CA352026   7.983   4.901   7.733  0.2061  0.4400 -0.3140
18238THY    HA352027   7.982   4.803   7.686 -0.0730 -1.4526  0.5456
18238THY    CA452028   7.862   4.971   7.750  0.2330 -0.3480  0.3892
18238THY    HA452029   7.768   4.923   7.726  0.2725 -1.7332  0.9540
18238THY    CA552030   7.858   5.099   7.801  0.4557 -0.4205  0.4729
18238THY    CM152031   7.729   5.168   7.831  0.2949  0.0836  0.3820
18238THY    HM152032   7.683   5.197   7.736  1.1483 -0.7488 -0.8912
18238THY    HM252033   7.743   5.258   7.893 -2.2165  0.7800  0.3469
18238THY    HM352034   7.660   5.106   7.888 -1.7226  0.0420  2.4545
18238THY    CA652035   7.981   5.165   7.838  1.1471  0.0363  0.3125
18238THY    HA652036   7.975   5.260   7.891  0.3268 -0.0661  0.3270
18239THY      O52037   2.440   6.020   5.561 -0.4221 -0.5236 -0.3259
18239THY     HO52038   2.530   5.989   5.544 -0.5250  0.2539 -1.0808
18239THY    CA152039   2.365   5.918   5.513 -1.2095  0.5680  0.2031
18239THY    CA252040   2.235   5.933   5.469  0.1030  0.3869 -0.1764
18239THY    CP152041   2.160   6.065   5.479  0.4057  0.5218  0.5289
18239THY    HP152042   2.227   6.148   5.504 -0.2733  0.9623  0.9496
18239THY    CP252043   2.046   6.058   5.585 -0.0132 -0.2930 -0.4842
18239THY    HP252044   1.974   5.979   5.562  2.2405  0.5002 -2.9114
18239THY    HP352045   2.009   6.161   5.594 -1.7683  1.2931 -1.1842
18239THY    HP452046   2.093   6.025   5.678  3.1481 -1.1994  1.0605
18239THY    CP352047   2.102   6.110   5.348 -0.0244 -0.1824  0.5904
18239THY    HP552048   2.181   6.127   5.273 -0.2687 -0.4237  0.6616
18239THY    HP652049   2.042   6.202   5.345  1.4268 -2.4619  1.5576
18239THY    HP752050   2.041   6.028   5.310 -1.9691 -2.4953  2.9351
18239THY    CA352051   2.170   5.820   5.419  0.0938 -0.7205 -0.5971
18239THY    HA352052   2.069   5.835   5.384 -0.3881  1.0119  0.5012
18239THY    CA452053   2.236   5.698   5.404 -0.5709 -0.7909 -0.2482
18239THY    HA452054   2.191   5.606   5.368  0.9515 -0.4218 -1.1700
18239THY    CA552055   2.363   5.681   5.455 -0.4076  0.2393  0.5041
18239THY    CM152056   2.428   5.544   5.438  0.7575 -0.2111  1.0337
18239THY    HM152057   2.458   5.517   5.336  0.4259  0.1473 -0.8621
18239THY    HM252058   2.353   5.471   5.473 -0.6468  0.1264  2.5796
18239THY    HM352059   2.516   5.525   5.499  0.8088 -0.8936 -1.2877
18239THY    CA652060   2.428   5.787   5.514 -0.4200 -0.6304  0.4050
18239THY    HA652061   2.531   5.782   5.549 -0.7924  1.0187  2.6145
18240THY      O52062   7.252   6.386   3.843  0.1036  0.0452  0.2679
18240THY     HO52063   7.344   6.408   3.866  1.5725 -2.6359 -2.3172
18240THY    CA152064   7.221   6.432   3.718 -0.8949  0.1197 -0.1894
18240THY    CA252065   7.089   6.432   3.659 -0.5041 -0.2879 -0.7694
18240THY    CP152066   6.973   6.380   3.733 -0.5611 -0.3486  0.2227
18240THY    HP152067   7.007   6.313   3.813 -2.9773  1.1740  0.6843
18240THY    CP252068   6.865   6.302   3.654  0.5552 -0.4225  0.2591
18240THY    HP252069   6.777   6.275   3.713  1.1807  0.1944 -0.5055
18240THY    HP352070   6.908   6.207   3.619 -0.9133  0.4552 -0.7852
18240THY    HP452071   6.830   6.353   3.564 -2.2602 -0.0267 -0.8096
18240THY    CP352072   6.882   6.498   3.794 -0.0747 -0.3275 -0.2174
18240THY    HP552073   6.941   6.556   3.867 -0.7425  1.3305 -1.5453
18240THY    HP652074   6.805   6.453   3.857  0.7163  2.0871  1.6023
18240THY    HP752075   6.846   6.568   3.717  1.9727 -1.1196  0.0510
18240THY    CA352076   7.076   6.491   3.530 -0.0433 -0.3547  1.3842
18240THY    HA352077   6.976   6.495   3.488  0.0713 -0.7801  0.1220
18240THY    CA452078   7.186   6.543   3.462  0.2118 -0.0219 -0.5645
18240THY    HA452079   7.176   6.591   3.365  0.8849  1.7863  3.5949
18240THY    CA552080   7.304   6.541   3.526 -0.0349  0.3241  0.3403
18240THY    CM152081   7.432   6.589   3.453 -1.2768 -0.3845  0.0289
18240THY    HM152082   7.429   6.697   3.468 -1.7960  1.7505 -0.2408
18240THY    HM252083   7.430   6.569   3.345 -0.2268 -1.0194  2.8384
18240THY    HM352084   7.518   6.540   3.501 -1.7042 -0.8058 -1.1779
18240THY    CA652085   7.322   6.490   3.651 -0.2220  0.0151 -0.2244
18240THY    HA652086   7.418   6.495   3.702 -2.2285  4.2435 -0.5534
18241THY      O52087   5.091   2.071   6.104  1.0290  0.4573 -0.2488
18241THY     HO52088   5.171   2.016   6.111  2.7423 -0.1957  1.9984
18241THY    CA152089   5.005   2.017   6.193  0.1013 -0.3578 -0.0919
18241THY    CA252090   4.869   2.055   6.204 -0.2099 -0.0149 -0.3918
18241THY    CP152091   4.810   2.148   6.103 -0.6397 -0.0754 -0.3378
18241THY    HP152092   4.888   2.171   6.029  0.7739  0.8005 -2.1310
18241THY    CP252093   4.782   2.279   6.170 -0.2602 -0.4499 -0.1999
18241THY    HP252094   4.875   2.310   6.219 -0.5954  1.3911 -1.9238
18241THY    HP352095   4.704   2.278   6.247  0.4919  0.3204 -0.7392
18241THY    HP452096   4.750   2.351   6.094  0.3644 -1.0743 -0.5634
18241THY    CP352097   4.690   2.093   6.022  0.7457 -0.1174 -0.3677
18241THY    HP552098   4.598   2.102   6.080  0.8819  0.1768 -0.8650
18241THY    HP652099   4.702   1.986   6.001  3.1228  2.3447 -0.6893
18241THY    HP752100   4.683   2.159   5.934 -2.5740 -0.8671 -1.5455
18241THY    CA352101   4.781   1.975   6.275  0.2428 -0.0374 -0.1737
18241THY    HA352102   4.674   1.995   6.272  0.4952 -1.5796  1.1782
18241THY    CA452103   4.832   1.872   6.352  0.2396  0.0370  0.0247
18241THY    HA452104   4.758   1.817   6.410 -0.4191  1.1456  1.9712
18241THY    CA552105   4.968   1.842   6.345 -0.5757  0.3455  0.4393
18241THY    CM152106   5.030   1.733   6.413 -0.9916 -0.6013 -0.0004
18241THY    HM152107   5.112   1.767   6.477 -0.0132 -0.5480 -2.2351
18241THY    HM252108   5.070   1.667   6.334  0.7872  1.3675 -1.4217
18241THY    HM352109   4.961   1.675   6.475  0.2515  0.0680 -0.8239
18241THY    CA652110   5.057   1.913   6.267 -0.3321  0.6297  0.5382
18241THY    HA652111   5.164   1.895   6.260 -0.3812  0.7558  0.1907
18242THY      O52112   0.474   1.695   4.193 -0.1983 -0.2862 -0.3403
18242THY     HO52113   0.550   1.681   4.252 -0.0349 -0.5895 -0.7379
18242THY    CA152114   0.491   1.813   4.131  0.2660  0.4397  0.2801
18242THY    CA252115   0.404   1.865   4.028 -0.3800 -0.2864 -0.3030
18242THY    CP152116   0.274   1.791   4.001 -0.1454  0.0571 -0.5798
18242THY    HP152117   0.261   1.718   4.081  1.0928 -0.9107 -1.9157
18242THY    CP252118   0.289   1.715   3.872  0.0862 -0.8857 -0.3269
18242THY    HP252119   0.384   1.660   3.880  1.0955  0.5247  1.4998
18242THY    HP352120   0.295   1.790   3.792 -0.5493  0.3989  1.1605
18242THY    HP452121   0.205   1.648   3.851 -1.3117 -0.8591  1.3508
18242THY    CP352122   0.151   1.889   4.002 -0.6504 -0.1108 -0.2105
18242THY    HP552123   0.056   1.835   4.009 -1.5144  3.0690  1.4935
18242THY    HP652124   0.144   1.940   3.905  0.4180 -0.0221  0.1360
18242THY    HP752125   0.154   1.966   4.080 -1.0254 -0.7644  0.4760
18242THY    CA352126   0.446   1.980   3.961 -0.8803 -0.4403  0.4048
18242THY    HA352127   0.396   2.021   3.873  0.1331 -0.5808  1.3607
18242THY    CA452128   0.564   2.051   4.002  0.0240  0.5004 -0.0578
18242THY    HA452129   0.585   2.145   3.952 -1.7460 -1.2720 -0.5314
18242THY    CA552130   0.639   2.006   4.113  0.0212 -0.9937  0.6797
18242THY    CM152131   0.748   2.095   4.157  0.3364 -0.1004 -0.2682
18242THY    HM152132   0.795   2.154   4.078 -0.8428  0.6330  1.7682
18242THY    HM252133   0.826   2.038   4.209  1.2864  0.0208  1.1066
18242THY    HM352134   0.714   2.172   4.227  2.3228 -0.3868  0.9053
18242THY    CA652135   0.602   1.882   4.178 -0.5300  0.0144 -0.0237
18242THY    HA652136   0.650   1.854   4.271 -1.6180  0.6505  0.1649
18243THY      O52137   4.067   1.668   5.867  0.0073 -0.5351 -1.0337
18243THY     HO52138   4.008   1.595   5.842  2.2037 -0.2273 -3.0724
18243THY    CA152139   4.064   1.659   6.006 -0.0437 -0.7911 -0.3195
18243THY    CA252140   4.178   1.694   6.081  0.7860  0.6891 -0.0353
18243THY    CP152141   4.313   1.720   6.016 -0.0408 -0.8030 -0.6063
18243THY    HP152142   4.291   1.741   5.911  1.5796 -0.5165  3.5941
18243THY    CP252143   4.393   1.589   6.019 -0.1987  0.6364 -0.0895
18243THY    HP252144   4.407   1.555   6.123 -0.7707  0.9327  0.5473
18243THY    HP352145   4.486   1.606   5.966  0.1697  1.8305  1.9718
18243THY    HP452146   4.340   1.510   5.964 -0.8592 -3.0966  2.7103
18243THY    CP352147   4.385   1.855   6.063  1.1487  0.5555  0.4337
18243THY    HP552148   4.312   1.935   6.051  1.1227  1.3599  0.5332
18243THY    HP652149   4.464   1.879   5.991  2.6598  1.6913 -0.8743
18243THY    HP752150   4.422   1.841   6.165 -0.4057  1.0356 -0.4311
18243THY    CA352151   4.162   1.688   6.216  0.2550 -0.5495  0.1103
18243THY    HA352152   4.249   1.707   6.279 -0.1572  0.7834 -2.0559
18243THY    CA452153   4.040   1.651   6.271  0.1021 -0.1591  0.2282
18243THY    HA452154   4.036   1.631   6.378  1.1187 -0.5225 -2.2303
18243THY    CA552155   3.929   1.631   6.193 -0.0720  0.9525  0.9608
18243THY    CM152156   3.795   1.597   6.252  0.4424 -0.0993 -0.1199
18243THY    HM152157   3.781   1.657   6.343 -1.2015  0.7210 -1.6534
18243THY    HM252158   3.795   1.492   6.283 -2.9083  3.7032  0.7612
18243THY    HM352159   3.718   1.627   6.181 -0.3273  1.2859  1.3501
18243THY    CA652160   3.935   1.647   6.055 -0.3646 -0.4727 -0.0979
18243THY    HA652161   3.849   1.641   5.989  0.6637 -2.2304  2.5532
18244THY      O52162   6.803   6.370   6.502 -0.1106  0.1009 -0.7697
18244THY     HO52163   6.884   6.328   6.467 -0.2182 -2.1239  0.7202
18244THY    CA152164   6.704   6.274   6.522  0.0741  0.2128  0.2260
18244THY    CA252165   6.571   6.309   6.540 -0.3116  0.1593 -0.2526
18244THY    CP152166   6.543   6.461   6.530  0.6378 -0.0615  0.1395
18244THY    HP152167   6.611   6.508   6.458 -0.7709 -2.3246 -1.1219
18244THY    CP252168   6.554   6.523   6.665 -0.7268 -0.0064 -0.4387
18244THY    HP252169   6.662   6.523   6.680 -0.4344 -1.8042  0.8664
18244THY    HP352170   6.512   6.467   6.750 -2.1370  0.5542  1.3734
18244THY    HP452171   6.517   6.625   6.655  0.5125 -0.6703 -0.0417
18244THY    CP352172   6.402   6.488   6.470  0.3077 -1.1721  0.4198
18244THY    HP552173   6.388   6.595   6.451  0.7055 -0.4209  0.6168
18244THY    HP652174   6.331   6.473   6.552  0.4272 -1.3878 -1.4660
18244THY    HP752175   6.377   6.416   6.392 -0.6535 -1.7079  1.3076
18244THY    CA352176   6.469   6.212   6.532  0.8795  0.2450 -0.3375
18244THY    HA352177   6.363   6.236   6.534  1.6178  1.1142  3.5094
18244THY    CA452178   6.507   6.079   6.522  0.6548  0.1885  0.4516
18244THY    HA452179   6.425   6.008   6.515  0.5349  2.2513  0.3192
18244THY    CA552180   6.638   6.037   6.505  0.2311  1.0508  0.2382
18244THY    CM152181   6.669   5.896   6.466  0.9753 -0.1176 -0.4646
18244THY    HM152182   6.588   5.824   6.455 -0.2939  2.0607  0.5190
18244THY    HM252183   6.718   5.834   6.542  1.8297 -1.2954 -1.2702
18244THY    HM352184   6.734   5.893   6.378  1.6863  0.3088  1.0244
18244THY    CA652185   6.739   6.139   6.497 -0.5355  0.0556 -0.6535
18244THY    HA652186   6.835   6.112   6.454 -0.2277  0.6349 -0.4809
18245THY      O52187   5.474   1.639   3.198  0.0021  0.3977  1.0537
18245THY     HO52188   5.441   1.571   3.136 -0.0112  0.3055  1.1450
18245THY    CA152189   5.588   1.587   3.240  0.1529  0.2419  0.3780
18245THY    CA252190   5.638   1.628   3.366  0.3117 -0.4459  0.1914
18245THY    CP152191   5.552   1.725   3.453 -0.1629  0.4099  0.2530
18245THY    HP152192   5.501   1.797   3.388  2.7137 -0.8787  1.2844
18245THY    CP252193   5.628   1.827   3.543  0.1172  0.0261 -0.1556
18245THY    HP252194   5.695   1.795   3.623 -0.7248  0.4649 -0.8685
18245THY    HP352195   5.553   1.880   3.603 -0.5526  0.2717 -1.3399
18245THY    HP452196   5.673   1.906   3.482 -0.3630  0.2089  0.2698
18245THY    CP352197   5.459   1.642   3.542 -0.1456  0.1625  0.4129
18245THY    HP552198   5.359   1.636   3.498 -0.0198 -0.1996  0.9190
18245THY    HP652199   5.457   1.693   3.639  3.1703 -0.4336  1.9383
18245THY    HP752200   5.482   1.534   3.546 -2.6705  2.7944 -0.1521
18245THY    CA352201   5.757   1.573   3.413 -0.6601  0.4722  0.2431
18245THY    HA352202   5.791   1.600   3.512 -2.3186  0.9846  0.5775
18245THY    CA452203   5.831   1.495   3.336  0.0301  0.4116  0.1575
18245THY    HA452204   5.930   1.458   3.359 -0.9390 -0.3162 -3.2012
18245THY    CA552205   5.789   1.464   3.204 -0.3638  0.1656  0.3999
18245THY    CM152206   5.879   1.387   3.111  0.0421  0.1246 -0.2713
18245THY    HM152207   5.986   1.391   3.135  0.3643 -1.1047 -1.0856
18245THY    HM252208   5.867   1.430   3.011 -1.6099 -0.2012 -1.4071
18245THY    HM352209   5.851   1.283   3.095  2.5745 -0.0635 -0.9861
18245THY    CA652210   5.669   1.509   3.155  0.1247  0.3908  0.4114
18245THY    HA652211   5.644   1.486   3.052 -0.6009  1.0094 -1.9400
18246THY      O52212   6.783   7.878   5.819 -0.0363  0.7996  0.3877
18246THY     HO52213   6.857   7.921   5.864 -0.2485  0.5920  0.9953
18246THY    CA152214   6.664   7.928   5.882 -0.0691  0.0219  0.3761
18246THY    CA252215   6.538   7.938   5.820 -0.4931 -0.0953  0.1031
18246THY    CP152216   6.524   7.897   5.671  0.8204 -0.6797  0.2282
18246THY    HP152217   6.599   7.821   5.648 -0.0913  0.4949 -1.0916
18246THY    CP252218   6.533   8.027   5.584 -0.2183  0.1342  0.3697
18246THY    HP252219   6.515   8.000   5.479  0.5063  0.1041 -0.0442
18246THY    HP352220   6.637   8.061   5.594 -0.0318 -1.3849  0.3047
18246THY    HP452221   6.459   8.097   5.624 -1.4491 -1.2107 -0.1190
18246THY    CP352222   6.395   7.815   5.639 -0.7532  0.4788 -1.2061
18246THY    HP552223   6.396   7.793   5.532 -0.4872  0.5800 -1.7209
18246THY    HP652224   6.301   7.864   5.665 -1.5838 -0.6739 -2.1208
18246THY    HP752225   6.404   7.723   5.698 -1.4069 -0.2636 -1.7576
18246THY    CA352226   6.426   7.993   5.886  0.2554  0.1100  0.5571
18246THY    HA352227   6.332   8.018   5.838  0.5434  0.2419  2.0192
18246THY    CA452228   6.448   8.047   6.011 -0.3246 -0.0350 -0.8521
18246THY    HA452229   6.370   8.096   6.068  0.3761  0.9373 -0.8445
18246THY    CA552230   6.577   8.031   6.076  0.4100 -0.3261  0.2190
18246THY    CM152231   6.595   8.090   6.215  0.4662 -0.2586 -0.3647
18246THY    HM152232   6.521   8.051   6.286  1.6407 -0.0632 -2.3504
18246THY    HM252233   6.587   8.199   6.212  0.1137 -1.3905 -0.4088
18246THY    HM352234   6.685   8.053   6.266  0.2355  1.8488  1.7436
18246THY    CA652235   6.684   7.972   6.013  0.4607 -0.6322 -0.4842
18246THY    HA652236   6.778   7.969   6.067 -0.7116  1.4258 -2.4416
18247THY      O52237   3.749   7.035   3.479  0.4251 -0.9579  0.3167
18247THY     HO52238   3.693   7.016   3.402 -0.9893  0.1172 -0.0848
18247THY    CA152239   3.757   6.918   3.537 -0.2749 -0.4154 -0.0315
18247THY    CA252240   3.818   6.908   3.668  0.1717  0.0343 -0.2467
18247THY    CP152241   3.883   7.034   3.725  0.3853  0.5599  0.0727
18247THY    HP152242   3.906   7.108   3.647 -2.0949  0.1993  0.5277
18247THY    CP252243   4.012   7.009   3.802 -0.8936  0.4128  0.0106
18247THY    HP252244   4.050   7.109   3.822  2.2015 -1.7065 -0.6082
18247THY    HP352245   4.088   6.959   3.741 -0.7378  0.1138  0.6021
18247THY    HP452246   3.994   6.947   3.891  0.5364  0.2194 -0.7145
18247THY    CP352247   3.778   7.097   3.810  0.5704  0.6132  1.0041
18247THY    HP552248   3.798   7.190   3.864  1.5009  1.9308  0.0827
18247THY    HP652249   3.733   7.024   3.878 -1.8078 -3.7003 -1.9927
18247THY    HP752250   3.690   7.124   3.751  0.9875 -0.8461 -0.6453
18247THY    CA352251   3.832   6.774   3.722 -0.7090  0.0769 -0.4363
18247THY    HA352252   3.882   6.768   3.818 -0.7482  0.3706  2.5553
18247THY    CA452253   3.766   6.665   3.659  0.1568  0.3897 -1.1732
18247THY    HA452254   3.766   6.564   3.699  0.0885  1.9218 -0.5893
18247THY    CA552255   3.705   6.689   3.539 -0.8843 -0.0454 -0.5003
18247THY    CM152256   3.649   6.569   3.475  0.3120  0.4028 -0.5019
18247THY    HM152257   3.550   6.553   3.519 -0.2838 -1.0998 -1.1862
18247THY    HM252258   3.709   6.478   3.490  0.5815 -1.9724 -0.7848
18247THY    HM352259   3.635   6.587   3.367 -0.9786  0.6374  0.0024
18247THY    CA652260   3.700   6.812   3.479 -0.0895  0.2157 -0.2143
18247THY    HA652261   3.656   6.813   3.379 -0.3471  0.2945 -1.6613
18248THY      O52262   6.549   2.928   5.241  0.2216  0.1609 -0.0217
18248THY     HO52263   6.602   2.852   5.213  0.5682 -2.8043  1.1861
18248THY    CA152264   6.470   2.954   5.137  0.4164 -0.3915  0.6458
18248THY    CA252265   6.474   3.079   5.075 -0.0712  0.7478 -0.4155
18248THY    CP152266   6.561   3.186   5.141  0.1067 -0.3613 -0.1039
18248THY    HP152267   6.632   3.143   5.213  0.3906  1.9506  3.7652
18248THY    CP252268   6.471   3.287   5.216  0.3659  0.0707 -0.7421
18248THY    HP252269   6.413   3.246   5.299  0.4037  1.9520  2.5787
18248THY    HP352270   6.401   3.342   5.151 -1.9374  2.0053 -1.2561
18248THY    HP452271   6.539   3.358   5.265 -0.0425 -1.7937  1.0536
18248THY    CP352272   6.640   3.266   5.035 -0.3033  0.1617  0.1678
18248THY    HP552273   6.734   3.292   5.084 -0.3159  1.2519 -1.6519
18248THY    HP652274   6.593   3.358   4.999 -1.1707 -0.3865 -0.4696
18248THY    HP752275   6.661   3.212   4.942 -1.2715  0.0930 -0.1102
18248THY    CA352276   6.395   3.107   4.963 -0.2406 -0.3227  0.4112
18248THY    HA352277   6.385   3.210   4.929 -0.4186  0.2560  0.5906
18248THY    CA452278   6.314   3.004   4.918 -0.3956 -0.2708  0.5820
18248THY    HA452279   6.242   3.012   4.837 -2.1575  0.9291 -1.8806
18248THY    CA552280   6.309   2.879   4.985  0.5930  0.3391 -0.2170
18248THY    CM152281   6.234   2.763   4.912  0.4674 -0.4787 -0.2025
18248THY    HM152282   6.238   2.771   4.803 -0.8013 -0.4574  1.4211
18248THY    HM252283   6.128   2.755   4.941  0.0611 -1.8269  0.0352
18248THY    HM352284   6.283   2.669   4.938 -0.4256  1.2286 -0.2473
18248THY    CA652285   6.379   2.856   5.097  0.0718  0.1665  0.7217
18248THY    HA652286   6.371   2.755   5.138 -0.1348 -0.5440  0.4449
18249THY      O52287   1.121   0.769   3.956  0.6014 -0.5624  0.3185
18249THY     HO52288   1.121   0.702   3.886  2.4779 -0.2882 -0.0041
18249THY    CA152289   1.006   0.749   4.026  0.0209  0.7687  0.0931
18249THY    CA252290   0.986   0.811   4.151 -0.5235  0.2777  0.8497
18249THY    CP152291   1.101   0.908   4.200 -0.2083 -0.0638 -0.3650
18249THY    HP152292   1.161   0.961   4.125 -0.9419  0.7291  1.7008
18249THY    CP252293   1.203   0.827   4.290 -0.4808 -0.0582 -0.8659
18249THY    HP252294   1.298   0.875   4.318 -1.6597  0.3041  1.3546
18249THY    HP352295   1.242   0.743   4.229  0.1343  2.0277 -2.1673
18249THY    HP452296   1.150   0.767   4.365 -1.4899 -1.1778 -1.4161
18249THY    CP352297   1.050   1.016   4.290  0.1071 -0.0882 -0.5523
18249THY    HP552298   1.022   0.982   4.390  0.6354 -0.0732 -0.9656
18249THY    HP652299   0.976   1.079   4.240  0.8617  0.8271  1.1270
18249THY    HP752300   1.129   1.089   4.312  0.2513 -0.6007 -0.5439
18249THY    CA352301   0.865   0.785   4.221  0.0584 -0.4761 -0.1468
18249THY    HA352302   0.852   0.834   4.317  1.6879  0.7256 -1.9077
18249THY    CA452303   0.776   0.688   4.166  0.1134  0.1955  0.1556
18249THY    HA452304   0.689   0.658   4.224  0.6365  0.5621 -0.7032
18249THY    CA552305   0.793   0.642   4.034 -0.3686  0.3676 -0.5445
18249THY    CM152306   0.694   0.543   3.978  0.2295  0.2147 -0.2653
18249THY    HM152307   0.704   0.532   3.869 -0.5922 -0.1444  2.0113
18249THY    HM252308   0.593   0.575   4.007 -0.6432 -1.3315 -1.4880
18249THY    HM352309   0.701   0.444   4.023 -1.0560  0.0001 -0.4802
18249THY    CA652310   0.908   0.672   3.961  0.1612 -0.5542 -0.2170
18249THY    HA652311   0.936   0.617   3.872 -1.1906 -0.4078 -1.2002
18250THY      O52312   1.762   8.600   3.351 -0.2020  0.3421 -0.1564
18250THY     HO52313   1.834   8.570   3.409 -0.1865  1.7949  2.4245
18250THY    CA152314   1.659   8.562   3.431 -0.0831  0.2455  0.1812
18250THY    CA252315   1.548   8.517   3.368  0.1885 -0.1073  0.3712
18250THY    CP152316   1.544   8.495   3.214 -0.5555  0.4434 -0.0377
18250THY    HP152317   1.622   8.554   3.165 -0.3038  2.1102  1.0892
18250THY    CP252318   1.414   8.555   3.147  0.6257 -0.1490  0.7020
18250THY    HP252319   1.318   8.536   3.197  0.2175 -1.3867 -0.6954
18250THY    HP352320   1.406   8.518   3.044 -1.0818  0.0495  0.4487
18250THY    HP452321   1.414   8.665   3.138 -2.0380 -1.8030  0.6441
18250THY    CP352322   1.584   8.357   3.170  0.4167 -0.7631  0.5544
18250THY    HP552323   1.503   8.283   3.178  0.3856 -0.3933  0.6265
18250THY    HP652324   1.660   8.303   3.228 -1.4923 -2.1365 -4.1857
18250THY    HP752325   1.613   8.364   3.065 -1.3495 -1.2526  0.9101
18250THY    CA352326   1.447   8.471   3.451 -0.3101 -0.6274  1.2220
18250THY    HA352327   1.353   8.439   3.408  0.4534 -0.1922 -1.9046
18250THY    CA452328   1.457   8.489   3.593 -0.3873  0.2239 -0.0745
18250THY    HA452329   1.368   8.458   3.647 -1.6632 -2.3450 -1.2056
18250THY    CA552330   1.567   8.551   3.653  0.9843 -0.2360  0.4034
18250THY    CM152331   1.565   8.559   3.806  0.5728 -0.5643 -0.0641
18250THY    HM152332   1.520   8.467   3.845 -1.8660 -2.2333  0.3122
18250THY    HM252333   1.509   8.645   3.843  1.6740 -0.0097  0.4407
18250THY    HM352334   1.668   8.561   3.843  0.0065  1.4274 -2.2864
18250THY    CA652335   1.680   8.579   3.571  0.2465  0.5217  0.1769
18250THY    HA652336   1.765   8.634   3.611 -0.1347 -0.6872  1.7125
18251THY      O52337   1.645   7.145   3.152 -0.5771 -0.7415 -0.2911
18251THY     HO52338   1.712   7.215   3.164 -1.2422 -3.4225  0.9455
18251THY    CA152339   1.526   7.199   3.193  0.6198 -0.5087  0.0723
18251THY    CA252340   1.404   7.125   3.191  0.0785  0.8936  0.6383
18251THY    CP152341   1.400   6.986   3.131 -0.3767 -0.2057  0.0543
18251THY    HP152342   1.498   6.939   3.125 -0.0203  3.0831  0.1645
18251THY    CP252343   1.337   6.996   2.990 -0.2843  0.2628  0.0399
18251THY    HP252344   1.344   6.897   2.943 -1.9063 -0.8269  0.3981
18251THY    HP352345   1.400   7.056   2.923 -1.0527 -0.0247  0.5491
18251THY    HP452346   1.236   7.040   2.993 -0.6672  0.2847 -0.8177
18251THY    CP352347   1.301   6.889   3.210 -0.0087 -0.4938  0.5297
18251THY    HP552348   1.309   6.790   3.165 -1.2443  0.6683 -0.1306
18251THY    HP652349   1.201   6.927   3.186  0.9054 -0.7664  2.9610
18251THY    HP752350   1.317   6.887   3.319  2.6281 -0.8143  0.1822
18251THY    CA352351   1.284   7.186   3.230 -0.3486 -0.2570  0.1725
18251THY    HA352352   1.186   7.140   3.230 -1.4474 -0.2518  2.3427
18251THY    CA452353   1.295   7.314   3.275  0.1191  0.7517  0.2346
18251THY    HA452354   1.198   7.361   3.292 -0.6699 -1.4969 -0.4466
18251THY    CA552355   1.418   7.383   3.289  0.0455  0.6236  0.5422
18251THY    CM152356   1.424   7.528   3.331  0.2769 -0.1451  0.1444
18251THY    HM152357   1.483   7.587   3.260  1.1948  0.1275 -0.4286
18251THY    HM252358   1.466   7.540   3.432 -3.3903  1.7541 -1.5432
18251THY    HM352359   1.328   7.580   3.339 -1.0503 -1.3140 -2.0136
18251THY    CA652360   1.538   7.325   3.248  0.0807 -0.5008 -0.7239
18251THY    HA652361   1.635   7.374   3.253 -0.4563  1.5787  0.2636
18252THY      O52362   2.318   5.052   2.317  0.1540 -0.1766 -0.7534
18252THY     HO52363   2.238   5.044   2.263 -1.6527  2.0664  0.6863
18252THY    CA152364   2.345   5.184   2.317 -0.1630 -0.1027 -0.1556
18252THY    CA252365   2.457   5.229   2.386  0.0783 -0.0455 -1.0091
18252THY    CP152366   2.555   5.123   2.444  0.1527  0.8866  0.2032
18252THY    HP152367   2.528   5.028   2.397 -2.1657 -0.8795  1.6323
18252THY    CP252368   2.545   5.121   2.596 -0.4472 -1.0536 -0.1917
18252THY    HP252369   2.584   5.026   2.633  0.1887  0.6639  0.6848
18252THY    HP352370   2.447   5.126   2.643 -0.6986 -1.3101 -2.1647
18252THY    HP452371   2.601   5.207   2.636 -0.7870 -1.4308  0.2097
18252THY    CP352372   2.703   5.155   2.412  0.4598  0.3807  0.5681
18252THY    HP552373   2.721   5.190   2.310  0.1087 -0.5071 -1.6479
18252THY    HP652374   2.766   5.066   2.419  1.6967  1.0492  1.4730
18252THY    HP752375   2.746   5.224   2.485 -0.8009  0.5407  1.2253
18252THY    CA352376   2.471   5.361   2.406  0.1219  0.1079  0.6754
18252THY    HA352377   2.553   5.405   2.463 -0.3426 -0.0657  1.7947
18252THY    CA452378   2.378   5.449   2.343  0.2055 -0.8728  0.6985
18252THY    HA452379   2.391   5.556   2.360  1.2414 -3.4794  1.0538
18252THY    CA552380   2.268   5.407   2.275  0.3669 -0.6068  0.7970
18252THY    CM152381   2.184   5.499   2.202  0.3073 -0.7848 -0.0388
18252THY    HM152382   2.228   5.599   2.209 -0.1949 -0.6969  0.1796
18252THY    HM252383   2.099   5.518   2.267  1.1338  0.1372  0.5902
18252THY    HM352384   2.156   5.466   2.101  0.6819 -1.1312  0.6832
18252THY    CA652385   2.254   5.268   2.260 -0.5091  0.3541 -0.7244
18252THY    HA652386   2.170   5.223   2.208 -0.1634  0.0523 -1.0285
18253THY      O52387   2.560   9.104   6.106  0.0685 -0.5197 -0.0092
18253THY     HO52388   2.464   9.118   6.098  0.0916  0.8995  1.2140
18253THY    CA152389   2.580   8.986   6.151 -0.1476 -0.4084 -0.2585
18253THY    CA252390   2.692   8.954   6.220  0.1390 -0.0673  0.4575
18253THY    CP152391   2.798   9.067   6.249 -1.1957 -0.4572 -0.2454
18253THY    HP152392   2.804   9.140   6.168 -0.7358  0.8906  1.2714
18253THY    CP252393   2.946   9.022   6.254  0.0599 -0.8690 -0.2124
18253THY    HP252394   2.977   8.960   6.169  2.3987 -1.4757  1.6363
18253THY    HP352395   2.979   8.968   6.344  2.0907 -0.7136  1.1760
18253THY    HP452396   3.009   9.111   6.259 -0.1206 -1.1517 -0.0687
18253THY    CP352397   2.763   9.144   6.376 -0.3134 -0.0334  0.4572
18253THY    HP552398   2.665   9.192   6.365  0.4699 -0.5748  2.0100
18253THY    HP652399   2.842   9.220   6.380  0.1888 -0.3054 -0.0395
18253THY    HP752400   2.773   9.088   6.469  0.5692 -0.6057 -0.3740
18253THY    CA352401   2.717   8.824   6.265 -0.0287 -0.0304 -0.2031
18253THY    HA352402   2.806   8.812   6.326  0.9909 -1.4217 -0.0143
18253THY    CA452403   2.626   8.727   6.240  0.0112  0.2515  0.3072
18253THY    HA452404   2.640   8.631   6.288  1.0927 -3.1122 -1.3680
18253THY    CA552405   2.516   8.753   6.151  0.0797 -0.3120  0.4278
18253THY    CM152406   2.424   8.642   6.117 -0.2900 -0.1404  0.0254
18253THY    HM152407   2.439   8.623   6.010 -0.4462 -0.3138  0.8037
18253THY    HM252408   2.319   8.671   6.127  0.0855  0.9610  1.0863
18253THY    HM352409   2.455   8.561   6.183 -0.3046 -1.6952 -1.3118
18253THY    CA652410   2.490   8.886   6.119 -0.5391  0.7489 -0.2258
18253THY    HA652411   2.401   8.910   6.062  0.6811 -2.1924 -2.1861
18254THY      O52412   1.719   7.700   2.655  0.5419 -0.3750  0.1560
18254THY     HO52413   1.747   7.788   2.684 -0.1397  1.6617 -0.2458
18254THY    CA152414   1.594   7.722   2.600 -0.0196 -0.2976  0.5004
18254THY    CA252415   1.512   7.618   2.558 -0.5221 -0.8217 -0.5270
18254THY    CP152416   1.561   7.472   2.572 -1.0798  0.2435  0.1164
18254THY    HP152417   1.670   7.471   2.566 -1.0796 -0.4716 -2.5488
18254THY    CP252418   1.513   7.373   2.460  0.5981  0.2176  0.0674
18254THY    HP252419   1.519   7.421   2.362  0.4810  0.4860  0.6333
18254THY    HP352420   1.409   7.343   2.479  0.1458 -1.6701  0.3110
18254THY    HP452421   1.576   7.285   2.442 -0.1740 -1.1437 -0.2342
18254THY    CP352422   1.517   7.424   2.713  0.1084  0.0319 -0.6884
18254THY    HP552423   1.535   7.318   2.730  0.2425 -0.7395 -0.7959
18254THY    HP652424   1.407   7.427   2.713  0.0547  3.0263 -0.0648
18254THY    HP752425   1.566   7.481   2.792 -2.1434  1.5234 -0.7017
18254THY    CA352426   1.388   7.651   2.497 -0.9827 -0.7134  0.2167
18254THY    HA352427   1.320   7.575   2.460  0.5639 -0.3948 -1.3874
18254THY    CA452428   1.337   7.777   2.514  0.1598  0.0027  0.3498
18254THY    HA452429   1.238   7.798   2.476  0.9187 -2.5938 -0.2927
18254THY    CA552430   1.414   7.878   2.562  0.1280 -0.7381  0.4301
18254THY    CM152431   1.361   8.013   2.565  0.1987 -0.0395 -0.4009
18254THY    HM152432   1.371   8.062   2.467  0.4577  0.5297  0.7080
18254THY    HM252433   1.419   8.083   2.626  0.0691 -0.2739 -0.0851
18254THY    HM352434   1.260   8.017   2.607  0.0722 -0.0124 -2.5961
18254THY    CA652435   1.549   7.857   2.592 -0.9833  0.2284  0.6142
18254THY    HA652436   1.612   7.943   2.612  0.7736  1.6292 -0.9153
18255THY      O52437   4.383   0.569   6.450  0.2250 -0.7435 -0.3683
18255THY     HO52438   4.436   0.496   6.488  1.2454  0.7764  1.0953
18255THY    CA152439   4.265   0.571   6.510  0.1580 -0.1150 -0.3257
18255THY    CA252440   4.180   0.682   6.498 -0.3464  0.0711  1.1880
18255THY    CP152441   4.216   0.794   6.401 -0.3378 -0.4033 -0.9395
18255THY    HP152442   4.305   0.766   6.342 -0.1212 -1.3321  1.4798
18255THY    CP252443   4.259   0.923   6.469 -0.2536 -0.6675 -0.0620
18255THY    HP252444   4.366   0.922   6.490 -0.3908  0.4278  1.8309
18255THY    HP352445   4.194   0.949   6.554 -1.3674 -1.6823  0.6030
18255THY    HP452446   4.252   1.007   6.399 -0.4598 -1.4892 -0.7568
18255THY    CP352447   4.100   0.823   6.313  0.3384  1.1934  0.3343
18255THY    HP552448   4.018   0.869   6.371 -0.2630  0.6085  0.0115
18255THY    HP652449   4.068   0.739   6.250 -0.9303  0.5204  1.2820
18255THY    HP752450   4.126   0.883   6.225 -5.1821 -1.3295 -0.3707
18255THY    CA352451   4.062   0.691   6.572  0.9398  0.2682  0.1801
18255THY    HA352452   4.004   0.783   6.574  0.3786  0.2126 -0.1652
18255THY    CA452453   4.037   0.596   6.676  0.0101  0.1017 -0.1935
18255THY    HA452454   3.952   0.593   6.743  1.0432  1.4237 -1.6414
18255THY    CA552455   4.130   0.486   6.685  0.5913 -0.8433 -0.5079
18255THY    CM152456   4.096   0.388   6.788  0.1058 -0.1342 -0.4230
18255THY    HM152457   4.021   0.428   6.857  1.3698  0.2578  1.4231
18255THY    HM252458   4.174   0.331   6.841 -2.6403  2.4077 -2.1212
18255THY    HM352459   4.049   0.307   6.731 -0.4683  0.6699 -0.6664
18255THY    CA652460   4.245   0.476   6.611 -0.3016  0.3619 -0.4537
18255THY    HA652461   4.314   0.394   6.626 -0.0033  2.4485  0.1166
18256THY      O52462   6.122   6.704   3.228  0.7667  0.5454 -0.4053
18256THY     HO52463   6.096   6.699   3.321  0.0750  0.3762 -0.0801
18256THY    CA152464   6.013   6.752   3.169  0.4582 -0.5539  0.0681
18256THY    CA252465   5.977   6.705   3.038 -0.5867 -0.9646 -1.0758
18256THY    CP152466   6.086   6.640   2.948  0.0199 -0.1175  0.6425
18256THY    HP152467   6.179   6.692   2.973  1.7403 -0.4941 -2.0990
18256THY    CP252468   6.059   6.664   2.802 -0.4334  0.0650  0.6342
18256THY    HP252469   6.132   6.610   2.741 -0.7455  0.0995  0.1612
18256THY    HP352470   6.055   6.771   2.779  1.8435  0.1147  0.7720
18256THY    HP452471   5.965   6.618   2.769  0.9761  0.0799 -2.5188
18256THY    CP352472   6.102   6.495   2.986 -0.7342 -0.0359  1.0808
18256THY    HP552473   6.002   6.450   2.996 -1.7743  2.6480  3.6943
18256THY    HP652474   6.172   6.482   3.070 -0.7162  0.4871  3.9549
18256THY    HP752475   6.151   6.439   2.905  2.1370  1.6994  0.8789
18256THY    CA352476   5.843   6.729   3.000  0.0179 -0.2616  0.9181
18256THY    HA352477   5.791   6.700   2.910 -2.2493  1.2918 -0.1088
18256THY    CA452478   5.755   6.805   3.084  0.1528 -0.3459  0.1107
18256THY    HA452479   5.652   6.826   3.057 -0.8696  1.6612 -1.8757
18256THY    CA552480   5.798   6.865   3.201  0.4285  0.2958  0.4637
18256THY    CM152481   5.696   6.941   3.291 -0.2187  0.0262 -0.6247
18256THY    HM152482   5.603   6.887   3.313 -0.3316  1.2062  0.0042
18256THY    HM252483   5.668   7.031   3.236  1.9893 -0.6375 -0.2806
18256THY    HM352484   5.735   6.982   3.385 -1.7293  0.7874 -0.8729
18256THY    CA652485   5.925   6.830   3.243  0.1533 -0.3003 -0.0757
18256THY    HA652486   5.953   6.861   3.343  2.5958 -0.6836 -0.8030
18257THY      O52487   7.538   8.372   3.014  0.3180  0.1293 -0.0985
18257THY     HO52488   7.446   8.397   2.995  0.7168 -0.7268  0.7488
18257THY    CA152489   7.556   8.361   3.149  0.2503  0.1159 -0.7953
18257THY    CA252490   7.680   8.325   3.206  0.1037 -0.0192  0.1320
18257THY    CP152491   7.789   8.268   3.118 -0.0697 -0.5395  0.4936
18257THY    HP152492   7.788   8.292   3.011  1.0866 -1.0949 -1.6926
18257THY    CP252493   7.800   8.106   3.138  0.0986  0.5425 -0.1452
18257THY    HP252494   7.882   8.074   3.072 -0.5603  0.2976 -1.3532
18257THY    HP352495   7.706   8.059   3.108  0.9754 -1.0677 -0.9367
18257THY    HP452496   7.823   8.065   3.237  0.4234  0.4895 -0.0955
18257THY    CP352497   7.930   8.316   3.169 -0.3471  0.2556  0.0196
18257THY    HP552498   7.924   8.424   3.187  0.2681  0.4302  0.0270
18257THY    HP652499   8.010   8.290   3.098 -0.4375  0.5162 -0.9747
18257THY    HP752500   7.964   8.265   3.259  1.4039 -0.8121 -0.7857
18257THY    CA352501   7.703   8.339   3.343  0.5081 -0.6642 -0.1062
18257THY    HA352502   7.794   8.319   3.398 -0.5715  1.6950  0.9698
18257THY    CA452503   7.592   8.378   3.417 -0.3037 -1.2477  0.4163
18257THY    HA452504   7.608   8.370   3.524  0.7441 -1.4220 -0.0504
18257THY    CA552505   7.480   8.431   3.363  0.3694  1.5271 -0.9259
18257THY    CM152506   7.375   8.487   3.451 -0.2398 -0.1508 -0.2908
18257THY    HM152507   7.289   8.513   3.389  0.9158 -0.5588  3.0621
18257THY    HM252508   7.395   8.579   3.506  1.8725  0.6652 -1.1691
18257THY    HM352509   7.343   8.412   3.524 -0.9789 -2.9215 -2.8587
18257THY    CA652510   7.458   8.418   3.231  0.4008 -0.4475 -0.9745
18257THY    HA652511   7.365   8.455   3.190 -1.0974  2.7384 -0.8714
18258THY      O52512   2.166   6.044   6.605  0.1888 -0.6394  0.0630
18258THY     HO52513   2.150   5.975   6.538 -2.3884  0.2883 -0.3700
18258THY    CA152514   2.162   6.156   6.541  0.4776 -0.3553 -0.3408
18258THY    CA252515   2.258   6.255   6.561  0.0807  0.4144 -0.1788
18258THY    CP152516   2.380   6.225   6.645  0.0768 -0.3775 -0.2491
18258THY    HP152517   2.396   6.119   6.666 -0.2505  0.8776 -0.0707
18258THY    CP252518   2.369   6.300   6.783 -0.6492  0.0373  0.0462
18258THY    HP252519   2.451   6.286   6.854 -0.7744 -0.1382 -1.7212
18258THY    HP352520   2.276   6.268   6.831 -0.2204  0.4702 -0.5868
18258THY    HP452521   2.370   6.408   6.765 -1.1515  3.8101  0.8243
18258THY    CP352522   2.504   6.274   6.564 -0.5844 -0.1711 -0.1364
18258THY    HP552523   2.589   6.233   6.619 -1.6945  2.4911  0.9347
18258THY    HP652524   2.522   6.382   6.571  0.2926  0.8914 -0.3406
18258THY    HP752525   2.503   6.232   6.463  0.3290 -0.3924  0.3451
18258THY    CA352526   2.233   6.383   6.501  0.1427 -0.5571  0.3476
18258THY    HA352527   2.306   6.463   6.502  1.3983 -0.3176 -0.7671
18258THY    CA452528   2.119   6.388   6.415 -0.0030  0.2679 -0.6551
18258THY    HA452529   2.084   6.482   6.373 -1.0253  1.3903 -0.5078
18258THY    CA552530   2.017   6.288   6.399 -0.6416 -0.4779  0.3008
18258THY    CM152531   1.895   6.297   6.311  0.0540 -0.0476  0.5538
18258THY    HM152532   1.809   6.285   6.378 -0.3906 -1.1323 -4.2541
18258THY    HM252533   1.885   6.212   6.243 -1.0337  0.5577  0.1895
18258THY    HM352534   1.881   6.394   6.262 -2.1496  0.7069  0.6712
18258THY    CA652535   2.050   6.164   6.458  0.4937 -0.2006  0.4270
18258THY    HA652536   1.978   6.083   6.451  1.8930 -1.0633 -0.7931
18259THY      O52537   1.628   1.463   5.038 -0.5123 -0.5110 -0.4382
18259THY     HO52538   1.662   1.435   5.125 -0.7560 -0.6462 -1.1761
18259THY    CA152539   1.741   1.484   4.965  0.0727 -0.3393  0.1203
18259THY    CA252540   1.746   1.493   4.828  0.9941  0.8678  0.0161
18259THY    CP152541   1.611   1.488   4.746 -0.2360  0.3509  0.0794
18259THY    HP152542   1.533   1.501   4.822 -1.2359 -1.0941  4.6753
18259THY    CP252543   1.593   1.356   4.667 -0.0724 -0.8745 -0.3009
18259THY    HP252544   1.649   1.370   4.574  0.0090 -1.2907 -2.8898
18259THY    HP352545   1.486   1.334   4.661  0.2507  1.2604 -3.1209
18259THY    HP452546   1.637   1.267   4.713 -2.5240  1.6720 -0.3672
18259THY    CP352547   1.595   1.614   4.652 -0.2581 -0.0193  0.3782
18259THY    HP552548   1.658   1.599   4.564  0.1000  0.3485 -0.3574
18259THY    HP652549   1.630   1.704   4.705 -1.0265  0.3999  0.4397
18259THY    HP752550   1.489   1.628   4.630 -0.0693 -0.3820  1.3006
18259THY    CA352551   1.870   1.502   4.760  0.9074  0.5045  0.3280
18259THY    HA352552   1.875   1.504   4.652 -1.0957  0.3814  0.1472
18259THY    CA452553   1.989   1.495   4.833 -0.6973  0.5777  0.8804
18259THY    HA452554   2.084   1.496   4.782  0.2102  1.9377 -2.6761
18259THY    CA552555   1.975   1.482   4.973  0.1466 -0.2264 -0.2511
18259THY    CM152556   2.097   1.454   5.050 -0.1065 -0.2857  0.5289
18259THY    HM152557   2.168   1.388   4.999 -1.1219 -1.8139  0.5839
18259THY    HM252558   2.088   1.405   5.149 -0.0346 -1.5271 -2.1932
18259THY    HM352559   2.144   1.551   5.067 -2.0867 -1.5316  1.7662
18259THY    CA652560   1.856   1.481   5.041  0.1635  0.1334  0.1417
18259THY    HA652561   1.840   1.475   5.148 -1.2806 -0.0644  0.2020
18260THY      O52562   9.406   0.240   6.065 -0.3881 -0.3851  0.4295
18260THY     HO52563   9.501   0.218   6.073 -0.9728  0.1375 -2.2469
18260THY    CA152564   9.397   0.368   6.085 -0.2500 -0.4165 -0.1988
18260THY    CA252565   9.376   0.450   5.984  0.1417 -0.2842 -0.0678
18260THY    CP152566   9.363   0.401   5.838  0.8495 -0.2204 -0.2268
18260THY    HP152567   9.339   0.294   5.837 -0.0717  1.7436 -0.0705
18260THY    CP252568   9.497   0.417   5.771  0.0528 -0.2570  0.0856
18260THY    HP252569   9.546   0.319   5.762  1.5185  0.9983  0.6642
18260THY    HP352570   9.570   0.471   5.832  0.3500 -0.8999  0.4174
18260THY    HP452571   9.479   0.470   5.677 -0.1417 -0.9326 -1.1327
18260THY    CP352572   9.250   0.463   5.759 -0.3187  0.2498  0.3359
18260THY    HP552573   9.234   0.405   5.667 -0.8396  0.9150 -0.6008
18260THY    HP652574   9.254   0.570   5.734  1.3425 -1.5876 -0.0914
18260THY    HP752575   9.154   0.454   5.812  0.0135  0.9752  0.9308
18260THY    CA352576   9.357   0.588   6.010  0.5287 -0.1205  0.6592
18260THY    HA352577   9.332   0.650   5.925  1.5086 -2.2858 -1.7482
18260THY    CA452578   9.356   0.637   6.142 -0.7751 -0.3190 -0.2044
18260THY    HA452579   9.344   0.743   6.161  1.7869  0.2150  0.0579
18260THY    CA552580   9.384   0.550   6.249 -0.3076  0.3530 -0.3771
18260THY    CM152581   9.405   0.599   6.386  0.2861 -0.3325 -0.0800
18260THY    HM152582   9.399   0.512   6.453 -0.4691 -1.2748 -0.7844
18260THY    HM252583   9.332   0.674   6.418  0.2698  2.2549 -1.1051
18260THY    HM352584   9.504   0.644   6.396  1.0636 -2.3106 -1.2178
18260THY    CA652585   9.400   0.417   6.223 -0.3583 -0.4764 -0.9080
18260THY    HA652586   9.421   0.347   6.303 -1.4768  0.0640 -0.6512
18261THY      O52587   5.748   5.178   6.103 -0.2289 -0.5285 -0.3031
18261THY     HO52588   5.695   5.254   6.074 -1.8775  1.9747 -0.4020
18261THY    CA152589   5.774   5.184   6.239 -0.0273 -0.1584 -0.5945
18261THY    CA252590   5.735   5.298   6.314 -1.2635  0.2487  0.5924
18261THY    CP152591   5.656   5.411   6.251  0.2545 -0.3309  0.7877
18261THY    HP152592   5.673   5.403   6.143 -3.3257 -1.0791  1.2898
18261THY    CP252593   5.692   5.558   6.292  0.2764  0.4917 -1.1175
18261THY    HP252594   5.694   5.571   6.401  1.3321  0.5429 -1.6512
18261THY    HP352595   5.634   5.631   6.235  0.2613  0.6471 -1.0079
18261THY    HP452596   5.791   5.580   6.252 -0.4488 -1.1998 -0.8069
18261THY    CP352597   5.504   5.376   6.269  0.3798 -0.4646  0.0796
18261THY    HP552598   5.491   5.271   6.241 -1.0642  2.2968 -0.5757
18261THY    HP652599   5.435   5.444   6.219  0.3574 -1.6590 -0.7895
18261THY    HP752600   5.485   5.366   6.376  1.0625 -0.3458 -0.0166
18261THY    CA352601   5.756   5.290   6.456  0.3242  0.3152  0.1237
18261THY    HA352602   5.728   5.375   6.517  0.5139 -2.1282  2.0514
18261THY    CA452603   5.818   5.178   6.512 -0.4976 -0.2522  0.7298
18261THY    HA452604   5.836   5.178   6.619  1.2566 -0.5288  0.9430
18261THY    CA552605   5.857   5.070   6.434 -0.4360 -0.3477  0.0635
18261THY    CM152606   5.927   4.946   6.496  0.3925 -0.3163 -1.1289
18261THY    HM152607   5.912   4.852   6.440  0.3297  3.3189 -3.4875
18261THY    HM252608   5.888   4.923   6.596  1.7600  0.2599 -0.9851
18261THY    HM352609   6.034   4.963   6.509  0.2297 -0.2247 -0.1534
18261THY    CA652610   5.836   5.075   6.296  0.3339 -0.2020 -0.5091
18261THY    HA652611   5.856   4.990   6.232 -0.5055 -1.2740  0.0632
18262THY      O52612   4.099   5.588   4.166  0.2136 -0.6318 -0.1306
18262THY     HO52613   4.129   5.677   4.190 -1.9740  0.9944  0.2479
18262THY    CA152614   4.118   5.568   4.032  0.0578 -0.2610 -0.6890
18262THY    CA252615   4.090   5.442   3.978 -0.4296  0.1832 -0.2943
18262THY    CP152616   4.031   5.327   4.056  0.1771  0.0982  0.0562
18262THY    HP152617   4.006   5.364   4.156  0.1509  0.5208 -1.0609
18262THY    CP252618   4.141   5.216   4.071 -0.0995 -0.8776  0.0343
18262THY    HP252619   4.231   5.247   4.125 -1.0710 -0.5636  2.6268
18262THY    HP352620   4.165   5.182   3.970  0.3570 -0.5200 -0.7091
18262THY    HP452621   4.091   5.136   4.126 -0.1917  0.7692  1.1580
18262THY    CP352622   3.895   5.271   3.994  0.7203 -0.1893 -0.4834
18262THY    HP552623   3.835   5.363   3.986  0.6179 -0.2920 -0.5596
18262THY    HP652624   3.843   5.209   4.068 -1.8122  0.8233  2.5542
18262THY    HP752625   3.882   5.220   3.898 -3.0570 -1.2193  2.0301
18262THY    CA352626   4.099   5.427   3.840 -0.7877 -0.0426  0.0181
18262THY    HA352627   4.070   5.340   3.781  1.2506 -0.8184 -0.1681
18262THY    CA452628   4.142   5.530   3.757  0.3588  0.0264 -0.0271
18262THY    HA452629   4.161   5.510   3.653 -1.7922 -0.1156 -1.6309
18262THY    CA552630   4.184   5.647   3.816 -0.5783 -0.0902 -0.2738
18262THY    CM152631   4.228   5.766   3.728  0.1933 -0.0186 -0.0573
18262THY    HM152632   4.239   5.730   3.625 -0.8433  0.1405 -0.8915
18262THY    HM252633   4.325   5.814   3.745  0.7808 -4.2171  0.6224
18262THY    HM352634   4.150   5.842   3.718  0.5017  1.6749  0.5241
18262THY    CA652635   4.171   5.669   3.952 -0.2613 -0.3668  0.0040
18262THY    HA652636   4.183   5.767   3.997  0.9511 -2.3859  0.8420
18263THY      O52637   8.312   0.753   3.350  0.2981 -0.3983  0.5320
18263THY     HO52638   8.257   0.756   3.430  2.1915  0.9902  0.2993
18263THY    CA152639   8.253   0.652   3.271 -0.2075 -0.2183  0.3087
18263THY    CA252640   8.319   0.591   3.162 -0.8791  0.3149 -0.2450
18263THY    CP152641   8.461   0.643   3.133 -0.3803  0.0085  0.3396
18263THY    HP152642   8.513   0.674   3.225 -0.9702  0.1607  0.9024
18263THY    CP252643   8.466   0.771   3.043  0.0035  0.0273  0.4883
18263THY    HP252644   8.552   0.773   2.976  0.1464  0.2199  0.9891
18263THY    HP352645   8.490   0.846   3.120 -2.5235  0.7583  0.6602
18263THY    HP452646   8.367   0.793   3.000 -0.9593  1.9153  0.0889
18263THY    CP352647   8.558   0.524   3.069  1.0373  0.6781  0.4821
18263THY    HP552648   8.570   0.433   3.128 -2.0913  2.3092  1.0070
18263THY    HP652649   8.659   0.557   3.042  2.8109  0.0639 -4.5281
18263THY    HP752650   8.516   0.497   2.972 -0.4687  1.2998  0.5344
18263THY    CA352651   8.255   0.501   3.081  0.1555  0.4361  0.8146
18263THY    HA352652   8.293   0.463   2.987 -2.9828 -1.1613  1.2913
18263THY    CA452653   8.127   0.459   3.121  0.0806  0.5793  0.2119
18263THY    HA452654   8.073   0.386   3.062 -0.0960  0.9321  0.0512
18263THY    CA552655   8.068   0.507   3.237  0.3844  0.3365 -0.5335
18263THY    CM152656   7.928   0.456   3.279 -0.2937 -0.4919 -0.7373
18263THY    HM152657   7.841   0.497   3.226  0.0338 -0.4123  0.0818
18263THY    HM252658   7.904   0.493   3.380 -1.3856 -0.6767 -0.8968
18263THY    HM352659   7.914   0.347   3.272 -2.0173  1.6191 -0.7290
18263THY    CA652660   8.127   0.605   3.311 -0.8107 -0.1318 -0.4923
18263THY    HA652661   8.074   0.657   3.391  0.9094  0.0606  1.0719
18264THY      O52662   3.754   2.894   4.953 -0.1401 -0.1000  0.5818
18264THY     HO52663   3.831   2.840   4.928 -0.1446 -1.8366  1.3138
18264THY    CA152664   3.654   2.827   4.901 -0.7970  0.0368  0.0945
18264THY    CA252665   3.525   2.879   4.879  0.0168  0.4017 -0.1920
18264THY    CP152666   3.493   3.016   4.929  0.1623  0.0835  0.4554
18264THY    HP152667   3.581   3.072   4.963  0.8557 -1.1027  0.1144
18264THY    CP252668   3.398   3.007   5.051  0.5954 -0.0314  0.0894
18264THY    HP252669   3.306   2.949   5.040 -0.3574  1.6139  1.2031
18264THY    HP352670   3.359   3.097   5.100 -2.7806  0.9312 -1.7195
18264THY    HP452671   3.447   2.948   5.130  0.1205  0.0614 -0.1841
18264THY    CP352672   3.416   3.094   4.819  0.1250 -0.1391 -0.0485
18264THY    HP552673   3.478   3.096   4.729 -0.3549 -0.5223 -1.4440
18264THY    HP652674   3.401   3.199   4.847 -1.9917 -2.3051  0.3159
18264THY    HP752675   3.321   3.044   4.799  0.0465  3.3755 -1.6038
18264THY    CA352676   3.432   2.799   4.803 -0.3083  0.5607 -1.1817
18264THY    HA352677   3.336   2.838   4.773  1.2280 -2.1666  0.8417
18264THY    CA452678   3.466   2.672   4.762  0.2842 -0.0728 -0.2043
18264THY    HA452679   3.389   2.613   4.714  1.1767  1.1326 -2.5052
18264THY    CA552680   3.594   2.619   4.789 -0.0146  0.0682  0.1492
18264THY    CM152681   3.627   2.485   4.733  0.5465 -0.0203 -0.6611
18264THY    HM152682   3.550   2.409   4.745 -0.6697 -0.9871  0.3613
18264THY    HM252683   3.726   2.448   4.760  0.7572 -2.5773 -2.2020
18264THY    HM352684   3.627   2.504   4.625  1.2522  0.0169 -0.4160
18264THY    CA652685   3.693   2.702   4.851  0.7369 -0.5236 -0.7597
18264THY    HA652686   3.790   2.661   4.878  0.5923  0.5054 -0.4357
18265THY      O52687   5.972   1.613   7.306  0.2554  0.0939  0.2022
18265THY     HO52688   5.930   1.548   7.366  0.9178 -0.2632 -0.5779
18265THY    CA152689   6.067   1.663   7.381 -0.3614  0.2643 -0.0513
18265THY    CA252690   6.151   1.762   7.325 -0.3842 -0.1497 -0.3660
18265THY    CP152691   6.150   1.807   7.180 -0.2796  0.6265  1.1400
18265THY    HP152692   6.077   1.745   7.127  1.6451 -0.0128 -0.7306
18265THY    CP252693   6.287   1.793   7.112  0.2292 -0.7483  0.2737
18265THY    HP252694   6.329   1.692   7.125  0.1092 -0.3330  0.2749
18265THY    HP352695   6.366   1.854   7.156  2.0918 -2.0025 -1.1066
18265THY    HP452696   6.274   1.821   7.007 -1.3811 -0.3116  1.2924
18265THY    CP352697   6.098   1.947   7.150 -0.7026 -0.8775  0.0855
18265THY    HP552698   6.103   1.964   7.042  1.2455 -0.9703 -0.8554
18265THY    HP652699   6.162   2.025   7.193 -0.1587  0.1982 -0.9208
18265THY    HP752700   5.997   1.961   7.192 -0.5290  0.1446 -1.4302
18265THY    CA352701   6.235   1.835   7.413  0.6952  0.1333  0.4895
18265THY    HA352702   6.300   1.910   7.369 -2.2502 -1.1194  2.4971
18265THY    CA452703   6.228   1.816   7.562 -0.5733 -0.2559  0.2529
18265THY    HA452704   6.282   1.873   7.637  1.7303 -0.8586 -0.9691
18265THY    CA552705   6.149   1.713   7.610 -0.1536  1.1053  0.7503
18265THY    CM152706   6.127   1.715   7.755 -0.0109 -0.5485  0.3044
18265THY    HM152707   6.022   1.695   7.776 -0.1848 -0.2056  1.5482
18265THY    HM252708   6.156   1.810   7.800 -0.5855 -1.7348  1.0550
18265THY    HM352709   6.184   1.635   7.804  0.6968  0.1379  1.2121
18265THY    CA652710   6.069   1.641   7.520  0.9230 -0.6122  0.2664
18265THY    HA652711   5.997   1.575   7.567  2.1058  0.2377 -0.4544
18266THY      O52712   4.195   0.618   5.316 -0.4554 -0.9037 -0.1772
18266THY     HO52713   4.115   0.588   5.269 -0.1804 -1.4519 -0.0708
18266THY    CA152714   4.294   0.639   5.219  1.0795  0.3752  0.7051
18266THY    CA252715   4.420   0.608   5.251 -0.5178 -0.7178  0.1241
18266THY    CP152716   4.452   0.564   5.399 -0.3129  0.5063 -0.0607
18266THY    HP152717   4.370   0.499   5.431  0.1504  0.9302 -0.4473
18266THY    CP252718   4.471   0.688   5.491 -0.9389 -0.5030 -0.1533
18266THY    HP252719   4.395   0.766   5.477 -0.0492  0.3302  0.9003
18266THY    HP352720   4.564   0.745   5.477  0.0605  2.7957 -0.7985
18266THY    HP452721   4.482   0.665   5.597  2.0727 -0.1393  2.3072
18266THY    CP352722   4.572   0.476   5.404  0.0170  0.3782  0.0990
18266THY    HP552723   4.657   0.545   5.414 -0.0263  1.1483  0.0570
18266THY    HP652724   4.582   0.401   5.325  1.9455 -0.0514  0.7618
18266THY    HP752725   4.564   0.415   5.495 -0.0810 -1.6104 -3.0877
18266THY    CA352726   4.518   0.620   5.138 -0.1715 -0.4829 -0.6598
18266THY    HA352727   4.613   0.569   5.146  0.8289 -0.9850  1.0380
18266THY    CA452728   4.474   0.675   5.019  0.3616 -0.6683  0.9272
18266THY    HA452729   4.540   0.674   4.933  1.1219 -0.1151  1.8079
18266THY    CA552730   4.347   0.730   5.004 -0.4818  0.4068  0.4855
18266THY    CM152731   4.307   0.793   4.875 -0.7081 -0.1760  0.9936
18266THY    HM152732   4.201   0.776   4.853 -0.4737 -0.6040  0.0428
18266THY    HM252733   4.364   0.737   4.800 -1.5477 -0.2614  0.2342
18266THY    HM352734   4.342   0.897   4.877  0.7035 -1.7142  0.5920
18266THY    CA652735   4.251   0.701   5.096  0.1833 -0.5461  0.0703
18266THY    HA652736   4.148   0.725   5.072 -0.1888  1.5089  0.7159
18267THY      O52737   6.669   4.773   7.341  0.0550 -0.2535  0.1517
18267THY     HO52738   6.645   4.679   7.343 -1.5929  0.3734  0.5507
18267THY    CA152739   6.545   4.828   7.339 -0.2103 -0.4777 -0.2659
18267THY    CA252740   6.507   4.911   7.444  0.2759 -0.2241 -0.7005
18267THY    CP152741   6.597   4.918   7.564 -0.7938 -0.5042 -0.2990
18267THY    HP152742   6.647   4.821   7.575  1.0864  0.9262  0.7597
18267THY    CP252743   6.523   4.947   7.700  0.3474  0.1942  0.4029
18267THY    HP252744   6.433   4.885   7.705  0.1179  0.1435  0.7329
18267THY    HP352745   6.494   5.052   7.706 -2.5755 -0.7152 -0.2701
18267THY    HP452746   6.581   4.919   7.789  0.4829  0.6206  1.9254
18267THY    CP352747   6.705   5.023   7.541 -0.1657  0.2331  0.6257
18267THY    HP552748   6.783   5.018   7.618  1.6590 -1.4053  2.3071
18267THY    HP652749   6.657   5.121   7.535  0.5359 -0.5859  0.9298
18267THY    HP752750   6.753   4.999   7.446  0.5191 -0.1930  3.4269
18267THY    CA352751   6.378   4.976   7.431  0.2513 -0.8136  0.2979
18267THY    HA352752   6.338   5.042   7.507  0.3154  1.8532 -2.5105
18267THY    CA452753   6.289   4.947   7.330 -0.0123 -0.4597  0.2321
18267THY    HA452754   6.194   4.999   7.328 -0.8164 -2.1728 -1.2017
18267THY    CA552755   6.326   4.862   7.230 -0.4259  0.4665  0.8629
18267THY    CM152756   6.221   4.840   7.119 -0.1897 -0.3276 -0.1744
18267THY    HM152757   6.136   4.778   7.150  1.0432 -0.5518 -2.0529
18267THY    HM252758   6.273   4.787   7.039  1.0945  1.1200 -1.1690
18267THY    HM352759   6.185   4.937   7.084 -1.4119  0.0890 -0.4561
18267THY    CA652760   6.455   4.802   7.233 -0.5210  0.4862  0.0523
18267THY    HA652761   6.472   4.737   7.147 -3.0743  0.2444 -0.4086
18268THY      O52762   7.271   4.823   4.724 -0.0277 -0.5768 -0.1906
18268THY     HO52763   7.303   4.912   4.702 -1.2442  0.0348  0.4255
18268THY    CA152764   7.257   4.832   4.861 -0.0252  0.5247 -0.4088
18268THY    CA252765   7.238   4.722   4.946 -0.6784 -1.1009  0.1453
18268THY    CP152766   7.249   4.585   4.893 -0.0283  0.4124 -0.1794
18268THY    HP152767   7.219   4.579   4.788 -0.1226  0.3175  1.4126
18268THY    CP252768   7.139   4.493   4.959 -0.2471 -0.4333  0.2563
18268THY    HP252769   7.131   4.392   4.917 -0.3556 -0.7579  0.3980
18268THY    HP352770   7.044   4.546   4.945 -0.3873 -1.0600 -0.1459
18268THY    HP452771   7.155   4.487   5.067 -0.8110 -0.3114  0.8698
18268THY    CP352772   7.392   4.520   4.905  0.1740 -0.3218 -0.2838
18268THY    HP552773   7.388   4.417   4.867 -0.4569  0.5477 -0.5903
18268THY    HP652774   7.410   4.513   5.012  0.1714 -0.0297  2.8164
18268THY    HP752775   7.476   4.573   4.857  0.2082 -1.9921 -1.7351
18268THY    CA352776   7.225   4.750   5.089  0.6502 -0.0451 -0.0577
18268THY    HA352777   7.223   4.664   5.155  0.6216 -0.4735 -0.3884
18268THY    CA452778   7.215   4.879   5.134 -0.3580 -0.6413 -0.1202
18268THY    HA452779   7.199   4.902   5.238  0.8947 -0.6043  0.6502
18268THY    CA552780   7.239   4.982   5.045  0.5691 -0.0863 -0.4813
18268THY    CM152781   7.241   5.126   5.087  0.0226 -0.8291  0.2539
18268THY    HM152782   7.156   5.186   5.051 -1.2146  0.6588 -0.5409
18268THY    HM252783   7.339   5.166   5.057  0.7354 -0.8598 -1.4244
18268THY    HM352784   7.238   5.132   5.197  0.1551 -0.7952 -0.2971
18268THY    CA652785   7.252   4.960   4.908  0.3433  0.4461 -0.0242
18268THY    HA652786   7.257   5.048   4.844  2.1263 -0.6000 -0.8492
18269THY      O52787   8.135   1.236   3.161  0.1002 -0.7298  0.2104
18269THY     HO52788   8.206   1.186   3.204 -0.2689 -0.4093 -0.0453
18269THY    CA152789   8.183   1.263   3.042  0.8761 -0.2676 -0.3520
18269THY    CA252790   8.104   1.309   2.933 -0.3656 -0.2808 -0.9828
18269THY    CP152791   7.953   1.312   2.938  0.8314  0.7649 -0.1545
18269THY    HP152792   7.914   1.289   3.037  1.7459  1.0190 -0.6509
18269THY    CP252793   7.902   1.196   2.854  0.0508  0.8028  0.5438
18269THY    HP252794   7.797   1.208   2.825 -0.9170  3.5577 -0.5375
18269THY    HP352795   7.909   1.097   2.900 -3.0640  4.0122  1.6089
18269THY    HP452796   7.968   1.186   2.767  3.2850  3.1261 -0.0311
18269THY    CP352797   7.909   1.454   2.893  0.0504  0.0538  0.7364
18269THY    HP552798   7.802   1.467   2.914 -0.0696 -0.3357  0.4298
18269THY    HP652799   7.918   1.468   2.785  0.4208 -0.2342 -1.3683
18269THY    HP752800   7.959   1.535   2.946 -1.7540  1.3956  1.0211
18269THY    CA352801   8.171   1.342   2.810 -0.6632  0.3443 -0.6137
18269THY    HA352802   8.127   1.379   2.718 -0.0526  0.1677 -0.3217
18269THY    CA452803   8.311   1.343   2.809 -0.9289 -0.6171  0.1805
18269THY    HA452804   8.368   1.383   2.725  1.7287  1.3580  0.8061
18269THY    CA552805   8.387   1.280   2.917 -0.5049  0.1484  0.4222
18269THY    CM152806   8.537   1.266   2.899  0.4209 -0.7920 -0.2086
18269THY    HM152807   8.584   1.186   2.957 -0.1777 -1.5654 -1.1418
18269THY    HM252808   8.598   1.354   2.924  0.0772 -0.1993 -0.1310
18269THY    HM352809   8.557   1.252   2.792  2.6862 -0.2201 -1.9620
18269THY    CA652810   8.317   1.239   3.031 -0.0001  0.5936 -0.0725
18269THY    HA652811   8.377   1.207   3.116  1.0342  0.0108  0.2596
18270THY      O52812   5.704   4.911   5.970 -0.1500 -0.3405 -0.0181
18270THY     HO52813   5.778   4.949   6.021 -0.9328  0.0079  1.0941
18270THY    CA152814   5.732   4.929   5.840  0.1342  0.8652  0.0722
18270THY    CA252815   5.628   4.930   5.743  0.0234  0.5596  0.5479
18270THY    CP152816   5.481   4.892   5.773  0.3893 -0.2876 -0.1215
18270THY    HP152817   5.476   4.862   5.878  0.9308  0.5578  2.5583
18270THY    CP252818   5.447   4.772   5.689  0.6258 -0.1568  0.2289
18270THY    HP252819   5.461   4.792   5.582  1.1823 -0.5332 -1.8957
18270THY    HP352820   5.348   4.726   5.700  0.6467  0.5294  0.3334
18270THY    HP452821   5.528   4.701   5.710  0.7164 -0.1459  0.3340
18270THY    CP352822   5.381   5.010   5.752 -0.9871  0.6206  0.0609
18270THY    HP552823   5.400   5.067   5.660 -0.6939  1.7458  1.8433
18270THY    HP652824   5.392   5.089   5.826  1.5402  1.0097 -0.5690
18270THY    HP752825   5.275   4.981   5.742 -1.2006  2.3956  0.1175
18270THY    CA352826   5.665   4.979   5.617  0.5118 -0.0036 -0.0702
18270THY    HA352827   5.589   4.991   5.541  0.2834  0.3211  0.5936
18270THY    CA452828   5.793   5.012   5.587  0.5629 -0.1907  0.3687
18270THY    HA452829   5.812   5.039   5.484  0.2408 -0.4193 -0.2675
18270THY    CA552830   5.893   5.014   5.684  0.1522 -0.0703 -0.2580
18270THY    CM152831   6.032   5.063   5.654  0.4312 -0.3003  0.4618
18270THY    HM152832   6.113   4.991   5.673 -0.3688  2.6937  0.2302
18270THY    HM252833   6.050   5.154   5.711 -1.1051  1.0753 -0.0535
18270THY    HM352834   6.039   5.083   5.546 -0.9663 -0.7523 -1.1960
18270THY    CA652835   5.858   4.988   5.817 -0.1779 -0.1085 -0.5517
18270THY    HA652836   5.935   5.005   5.891 -1.3731  0.4796  3.3634
18271THY      O52837   0.629   1.502   3.383 -0.4802 -0.2763 -0.0892
18271THY     HO52838   0.574   1.518   3.461 -1.3112 -0.5664 -1.4279
18271THY    CA152839   0.762   1.511   3.420  0.0508 -0.2398  0.5206
18271THY    CA252840   0.860   1.542   3.318  0.2096 -0.3123  0.4561
18271THY    CP152841   0.828   1.555   3.168  0.0408 -0.3772 -0.4580
18271THY    HP152842   0.726   1.592   3.179  1.0540  1.6525  1.9980
18271THY    CP252843   0.836   1.424   3.095  0.6850 -0.2972  0.6961
18271THY    HP252844   0.823   1.443   2.988 -0.9667 -0.4236 -0.8862
18271THY    HP352845   0.767   1.345   3.126  1.6807 -0.6923 -0.3499
18271THY    HP452846   0.927   1.365   3.110 -0.1524 -0.9591 -0.8188
18271THY    CP352847   0.905   1.667   3.092  0.0849  0.8174 -0.3703
18271THY    HP552848   0.837   1.746   3.059  0.9213 -1.1075 -0.3986
18271THY    HP652849   0.949   1.640   2.995  1.4467  0.8611  1.4891
18271THY    HP752850   0.995   1.709   3.138  2.3258 -1.6799 -2.1100
18271THY    CA352851   0.992   1.564   3.360  0.5912 -0.1300 -0.4897
18271THY    HA352852   1.073   1.592   3.293  0.0789 -0.2319  0.8237
18271THY    CA452853   1.017   1.561   3.496  0.1443 -0.8289  0.1388
18271THY    HA452854   1.117   1.595   3.517  0.3936 -0.1271 -0.9782
18271THY    CA552855   0.913   1.540   3.590  0.3806  0.0654 -0.4093
18271THY    CM152856   0.943   1.526   3.734  0.0852  0.4433 -0.3006
18271THY    HM152857   0.848   1.542   3.786 -1.3328 -2.2830  0.7222
18271THY    HM252858   1.028   1.594   3.751 -1.2176  1.1586  1.2218
18271THY    HM352859   0.975   1.422   3.748  0.6311  1.2151 -0.0391
18271THY    CA652860   0.792   1.498   3.554  0.0420  0.3551  0.1810
18271THY    HA652861   0.726   1.453   3.627  0.8914  1.3229  0.4671
18272THY      O52862   4.734   7.071   3.291  0.2423  0.2443  0.2502
18272THY     HO52863   4.716   7.139   3.358 -1.8738  0.5523 -0.5088
18272THY    CA152864   4.698   6.952   3.347  0.5211 -0.2179 -0.4540
18272THY    CA252865   4.774   6.836   3.326  0.6327 -0.3767  0.5314
18272THY    CP152866   4.897   6.848   3.233 -0.1411  0.7950  0.1594
18272THY    HP152867   4.928   6.953   3.230  0.2594  1.6577  0.0717
18272THY    CP252868   4.860   6.802   3.089 -0.0676  0.7015  0.4426
18272THY    HP252869   4.751   6.803   3.084 -0.0586  0.2880 -0.2960
18272THY    HP352870   4.896   6.700   3.070  1.0411  0.1443  0.9193
18272THY    HP452871   4.903   6.861   3.007  1.0610  0.1744 -1.0503
18272THY    CP352872   5.019   6.769   3.277 -0.5931  0.1663 -0.2502
18272THY    HP552873   5.100   6.792   3.206 -0.1072  0.9792  0.6248
18272THY    HP652874   5.005   6.661   3.272  2.4350  0.5615 -0.7553
18272THY    HP752875   5.056   6.784   3.378  1.5992 -0.7153  0.7183
18272THY    CA352876   4.719   6.720   3.375 -0.4383 -0.1457  0.3352
18272THY    HA352877   4.766   6.624   3.354 -0.3518 -0.7004  0.4928
18272THY    CA452878   4.606   6.719   3.457  0.3515  0.1693 -0.0031
18272THY    HA452879   4.583   6.628   3.511  3.4459  0.8617 -0.4724
18272THY    CA552880   4.543   6.843   3.490 -0.5401 -0.1508  0.2055
18272THY    CM152881   4.445   6.841   3.603  0.0569 -0.2687 -0.4123
18272THY    HM152882   4.493   6.854   3.701  0.0301 -0.2652 -0.3342
18272THY    HM252883   4.377   6.755   3.601 -1.0150 -0.7735  0.4190
18272THY    HM352884   4.386   6.932   3.585 -0.2143 -2.5304 -0.9761
18272THY    CA652885   4.586   6.961   3.436 -0.5819  0.0370 -0.5252
18272THY    HA652886   4.538   7.055   3.463  0.2949  0.8586 -0.3099
18273THY      O52887   1.145   2.364   7.356 -0.8358 -0.1789 -0.3744
18273THY     HO52888   1.144   2.313   7.439 -2.2216  0.1438  0.1413
18273THY    CA152889   1.170   2.280   7.250  0.2730 -0.2429  1.0840
18273THY    CA252890   1.099   2.285   7.126  0.0792 -0.5716 -0.2335
18273THY    CP152891   1.025   2.411   7.087 -0.4977 -0.3535  0.0794
18273THY    HP152892   1.019   2.467   7.181  0.6073  0.0372 -0.4185
18273THY    CP252893   0.885   2.384   7.034 -0.2627  0.3579  0.4531
18273THY    HP252894   0.833   2.310   7.096  1.0591  0.6181 -0.2740
18273THY    HP352895   0.877   2.339   6.934 -1.8453  0.5387  0.2696
18273THY    HP452896   0.819   2.472   7.037  0.5592  1.8373  1.0464
18273THY    CP352897   1.098   2.491   6.984 -0.4166  0.5075  0.8569
18273THY    HP552898   1.128   2.435   6.895  1.1672  1.3697  0.2940
18273THY    HP652899   1.182   2.542   7.032  0.0550 -1.8482  2.4534
18273THY    HP752900   1.029   2.569   6.948 -1.9175 -0.3704 -0.7944
18273THY    CA352901   1.108   2.176   7.038 -0.5246  0.7310 -0.5985
18273THY    HA352902   1.058   2.176   6.942  0.8701 -0.0295 -0.1037
18273THY    CA452903   1.177   2.055   7.075 -0.3951  0.6563  0.4152
18273THY    HA452904   1.170   1.968   7.010 -2.2075  0.7871  0.4203
18273THY    CA552905   1.242   2.050   7.200  0.1612  0.2338 -0.0537
18273THY    CM152906   1.308   1.914   7.257 -0.2751  0.0654 -1.0332
18273THY    HM152907   1.229   1.867   7.316 -4.0520 -2.3849  1.6516
18273THY    HM252908   1.396   1.931   7.319 -0.0054 -0.2344 -1.3079
18273THY    HM352909   1.322   1.853   7.166 -4.6821 -0.4126 -1.6899
18273THY    CA652910   1.240   2.165   7.284 -0.0007 -0.3196 -0.4190
18273THY    HA652911   1.289   2.154   7.381  2.5462 -1.5340 -0.6527
18274THY      O52912   4.796   6.012   3.862  0.9319 -0.5101 -0.0151
18274THY     HO52913   4.800   6.094   3.914  1.4321 -2.8366  1.5416
18274THY    CA152914   4.805   6.060   3.740 -0.2813 -0.1818  0.2124
18274THY    CA252915   4.895   6.002   3.648  0.1367  0.4219  0.4798
18274THY    CP152916   4.985   5.886   3.673 -0.1982 -0.8843  0.3941
18274THY    HP152917   4.967   5.865   3.779  1.3300 -0.5114  0.8439
18274THY    CP252918   5.133   5.925   3.676  0.8579  0.6347  0.5942
18274THY    HP252919   5.196   5.836   3.685  0.7889  0.2591  0.5070
18274THY    HP352920   5.172   5.992   3.754  2.3389 -0.6733  1.3282
18274THY    HP452921   5.150   5.975   3.580 -1.8211 -0.1500  0.1471
18274THY    CP352922   4.953   5.760   3.589  0.8904 -0.5928 -0.1447
18274THY    HP552923   5.003   5.771   3.493  0.7578 -0.6283  0.1617
18274THY    HP652924   4.845   5.743   3.579  0.9676 -0.3687 -0.8220
18274THY    HP752925   5.010   5.675   3.629  0.5984  1.8136  0.6895
18274THY    CA352926   4.885   6.051   3.515  0.4354  0.1240  0.4417
18274THY    HA352927   4.949   6.005   3.440 -1.6940 -0.6964 -1.3570
18274THY    CA452928   4.802   6.153   3.483  0.4539 -0.0938  0.0208
18274THY    HA452929   4.800   6.201   3.385  0.8348  0.8654  2.1149
18274THY    CA552930   4.725   6.214   3.576 -0.0986 -0.2958  0.0401
18274THY    CM152931   4.643   6.332   3.532 -0.7838 -0.0314  0.2526
18274THY    HM152932   4.546   6.310   3.486 -0.6073 -0.2128 -0.1454
18274THY    HM252933   4.696   6.402   3.466 -1.1368 -1.1457 -0.5010
18274THY    HM352934   4.621   6.388   3.624  0.6623 -0.5033  1.6841
18274THY    CA652935   4.724   6.168   3.708  0.1242 -0.8541  1.0538
18274THY    HA652936   4.671   6.227   3.782 -0.4988 -0.2234 -0.2589
18275THY      O52937   6.570   7.687   2.551  0.0914  0.4251  0.9785
18275THY     HO52938   6.535   7.767   2.510 -0.9351 -1.4929 -0.3624
18275THY    CA152939   6.696   7.721   2.568  0.2123  0.1700 -0.3767
18275THY    CA252940   6.779   7.655   2.662  0.1107  0.5373 -0.7067
18275THY    CP152941   6.739   7.534   2.742 -0.1755 -0.3882  0.5160
18275THY    HP152942   6.651   7.488   2.695  0.7813  0.0093 -1.9232
18275THY    CP252943   6.711   7.576   2.888 -0.4473 -0.5215 -0.5563
18275THY    HP252944   6.661   7.491   2.937  0.5725  0.5503 -0.5577
18275THY    HP352945   6.639   7.659   2.894  0.9631 -1.0500  0.7490
18275THY    HP452946   6.796   7.608   2.949 -1.6054  1.5575 -1.2432
18275THY    CP352947   6.841   7.418   2.748 -0.2612  0.5788 -0.7226
18275THY    HP552948   6.931   7.444   2.804  1.8589 -2.8865  0.1288
18275THY    HP652949   6.876   7.392   2.647  0.4833  0.4541  0.6580
18275THY    HP752950   6.801   7.327   2.793  1.5170 -0.3194 -2.0087
18275THY    CA352951   6.910   7.710   2.674  0.0012  0.9600  0.5633
18275THY    HA352952   6.981   7.678   2.750  0.5196  1.2174  2.2378
18275THY    CA452953   6.956   7.817   2.592 -0.4728  0.2988  0.2144
18275THY    HA452954   7.060   7.842   2.608  0.3392 -2.2917 -1.1472
18275THY    CA552955   6.874   7.872   2.496 -0.1210  0.6932 -0.3801
18275THY    CM152956   6.937   7.970   2.405  0.3632 -0.1671  1.4128
18275THY    HM152957   7.044   7.943   2.405 -0.1089 -0.3040 -0.6492
18275THY    HM252958   6.930   8.068   2.452  1.1679  0.1185  1.3486
18275THY    HM352959   6.907   7.967   2.300  2.3377 -0.7764  0.3292
18275THY    CA652960   6.745   7.823   2.484  0.9041  0.5718 -0.2022
18275THY    HA652961   6.688   7.869   2.404  2.5843 -0.2672  0.5427
18276THY      O52962   5.379   7.249   2.045  0.0028 -0.3101 -0.0006
18276THY     HO52963   5.397   7.243   1.950 -0.3404 -0.4671  1.2750
18276THY    CA152964   5.359   7.379   2.077 -1.3048  0.6052  0.5546
18276THY    CA252965   5.386   7.428   2.208 -0.2990  0.3495  0.6380
18276THY    CP152966   5.420   7.338   2.323 -0.4766  0.0999 -0.7225
18276THY    HP152967   5.426   7.233   2.291 -1.9954 -0.5243 -0.6467
18276THY    CP252968   5.304   7.339   2.430 -0.2614  0.1220 -0.2727
18276THY    HP252969   5.322   7.264   2.509 -2.1309  0.5169 -0.3413
18276THY    HP352970   5.212   7.330   2.373 -0.0184 -0.1395 -1.2396
18276THY    HP452971   5.299   7.440   2.473  0.9706  0.1579 -0.2020
18276THY    CP352972   5.561   7.359   2.385 -0.3660  0.2385 -0.9208
18276THY    HP552973   5.636   7.353   2.306  0.0970  0.6215 -0.2075
18276THY    HP652974   5.572   7.284   2.464  1.1044  1.0243  0.0747
18276THY    HP752975   5.574   7.456   2.434  0.2451 -0.3765 -0.6856
18276THY    CA352976   5.369   7.570   2.235  0.3960 -0.0718 -0.1937
18276THY    HA352977   5.368   7.605   2.338 -2.2601 -0.3798  0.8333
18276THY    CA452978   5.340   7.667   2.126  0.4809  0.0742  0.4422
18276THY    HA452979   5.319   7.773   2.135  0.3909  0.7014  0.3791
18276THY    CA552980   5.316   7.608   2.001  0.1728 -0.5358 -0.5515
18276THY    CM152981   5.280   7.697   1.884 -1.0611  0.0342  0.3926
18276THY    HM152982   5.224   7.789   1.901 -0.2099 -0.1166  0.9461
18276THY    HM252983   5.224   7.641   1.808 -0.6249  0.3366 -0.4764
18276THY    HM352984   5.373   7.734   1.839  0.8432  2.7534 -0.7544
18276THY    CA652985   5.325   7.468   1.977  0.3863 -0.1535 -0.5966
18276THY    HA652986   5.293   7.438   1.879 -2.7496 -0.1437  2.1261
18277THY      O52987   0.309   0.538   2.598 -0.3642  0.0443  0.5307
18277THY     HO52988   0.328   0.456   2.647 -2.6433  0.2300  0.0465
18277THY    CA152989   0.320   0.517   2.469  0.1863 -0.3144 -0.2669
18277THY    CA252990   0.300   0.619   2.375  0.0157 -0.5975 -0.0069
18277THY    CP152991   0.260   0.758   2.431 -0.2543  0.3316 -0.1242
18277THY    HP152992   0.212   0.760   2.530  1.5768  1.2431  0.2443
18277THY    CP252993   0.150   0.813   2.339 -0.3709 -0.2354  0.2846
18277THY    HP252994   0.113   0.909   2.376  0.1146  0.5828  0.1654
18277THY    HP352995   0.067   0.741   2.347  0.6640 -1.6744 -1.1337
18277THY    HP452996   0.175   0.825   2.233 -0.7061 -0.5036 -1.2021
18277THY    CP352997   0.377   0.863   2.426  0.8862  0.1809  0.4321
18277THY    HP552998   0.346   0.964   2.456  0.0223  1.6256 -0.2323
18277THY    HP652999   0.397   0.872   2.319  0.4132  0.1324  0.9790
18277THY    HP753000   0.471   0.828   2.471 -0.0997  1.8909 -0.1566
18277THY    CA353001   0.325   0.586   2.235 -0.7748 -0.2549  0.0504
18277THY    HA353002   0.321   0.666   2.162  4.0245 -0.6515  0.1912
18277THY    CA453003   0.366   0.460   2.191  0.4580  0.2424  0.3831
18277THY    HA453004   0.371   0.447   2.083 -3.6449 -0.0850 -0.0435
18277THY    CA553005   0.390   0.366   2.290  0.0352  0.2093 -0.4434
18277THY    CM153006   0.438   0.234   2.248  0.1750  0.5422 -0.0838
18277THY    HM153007   0.360   0.174   2.200  0.6211  0.2308 -0.4231
18277THY    HM253008   0.472   0.180   2.338  1.4561  0.2011  0.1115
18277THY    HM353009   0.512   0.234   2.167  0.7634  1.0525 -0.9951
18277THY    CA653010   0.362   0.393   2.427  0.1769  0.5892 -0.5958
18277THY    HA653011   0.376   0.310   2.496  1.7638  0.8482 -0.1392
18278THY      O53012   5.545   4.340   3.843 -0.1256 -0.1154  0.2574
18278THY     HO53013   5.585   4.413   3.894  1.6136 -0.2035 -0.5716
18278THY    CA153014   5.418   4.376   3.818 -1.2717 -0.0633  0.3096
18278THY    CA253015   5.318   4.282   3.785 -0.2875 -0.0451  0.0221
18278THY    CP153016   5.347   4.129   3.783 -0.7561 -0.4220  0.0422
18278THY    HP153017   5.454   4.104   3.777 -1.0782  1.1391 -1.8879
18278THY    CP253018   5.287   4.058   3.663 -0.4720  0.6647  0.4550
18278THY    HP253019   5.186   4.096   3.643 -1.3980  0.9843 -1.7252
18278THY    HP353020   5.281   3.949   3.672 -0.3942  0.9719  0.4746
18278THY    HP453021   5.354   4.063   3.576  1.0271  1.6760 -0.8643
18278THY    CP353022   5.292   4.068   3.913  0.1531 -0.3178  0.5056
18278THY    HP553023   5.182   4.073   3.910  0.0343  0.1482 -1.2181
18278THY    HP653024   5.336   4.122   3.998  0.5388  0.0621 -0.4003
18278THY    HP753025   5.322   3.964   3.930  0.0989 -3.0102 -0.0209
18278THY    CA353026   5.189   4.335   3.761  0.3500 -0.6266 -0.3575
18278THY    HA353027   5.102   4.274   3.736 -0.3756  2.3646 -0.6951
18278THY    CA453028   5.173   4.475   3.762 -0.8013 -0.3642 -0.6361
18278THY    HA453029   5.079   4.527   3.745  0.9966  0.0935  3.0841
18278THY    CA553030   5.273   4.569   3.789  0.2647 -0.5317  0.4383
18278THY    CM153031   5.254   4.721   3.788 -0.1221 -0.0431 -0.8639
18278THY    HM153032   5.303   4.764   3.876  1.2021 -1.0150 -0.3287
18278THY    HM253033   5.150   4.752   3.800  0.4294 -0.2479  1.2073
18278THY    HM353034   5.296   4.771   3.700 -0.6132 -1.5862 -3.0055
18278THY    CA653035   5.398   4.515   3.822 -0.0986  0.5794  0.0970
18278THY    HA653036   5.480   4.586   3.832 -2.1874 -0.0207  2.7847
18279THY      O53037   4.465   8.683   3.022  0.4250  1.3271 -0.1456
18279THY     HO53038   4.501   8.762   2.980 -2.4247  2.2374  1.8129
18279THY    CA153039   4.351   8.654   2.951 -0.5090  0.3201  0.2816
18279THY    CA253040   4.254   8.552   2.987 -1.1633 -0.2149 -0.3095
18279THY    CP153041   4.274   8.472   3.109  0.2119 -0.1134 -0.0927
18279THY    HP153042   4.340   8.530   3.176 -1.4878  2.6729 -1.1756
18279THY    CP253043   4.353   8.337   3.090  0.7050  0.2811 -0.4659
18279THY    HP253044   4.297   8.271   3.023 -1.2590  0.9687  0.4433
18279THY    HP353045   4.374   8.291   3.187  0.2825  1.5276  1.8092
18279THY    HP453046   4.443   8.361   3.031  0.6198  0.6198  0.7464
18279THY    CP353047   4.150   8.447   3.194 -0.3022 -0.2316 -0.2642
18279THY    HP553048   4.098   8.541   3.217  0.8480 -1.4508  0.7050
18279THY    HP653049   4.178   8.401   3.290 -1.8298  0.8058  0.8843
18279THY    HP753050   4.080   8.379   3.144  2.5360 -2.1276 -2.0095
18279THY    CA353051   4.142   8.541   2.910 -0.4148 -0.0564 -0.8412
18279THY    HA353052   4.063   8.473   2.940 -1.8954  0.7124  1.0984
18279THY    CA453053   4.115   8.617   2.797  0.4250  0.4383 -0.7757
18279THY    HA453054   4.029   8.598   2.733  0.6703 -0.0507 -0.2823
18279THY    CA553055   4.209   8.709   2.764  0.0420  0.8294  0.5661
18279THY    CM153056   4.192   8.793   2.638 -0.5026  0.1379 -0.1101
18279THY    HM153057   4.258   8.762   2.557 -1.3844  0.2151 -2.3178
18279THY    HM253058   4.218   8.899   2.653  3.1343 -1.7995 -0.5898
18279THY    HM353059   4.090   8.805   2.600 -0.2741 -0.3302  0.4147
18279THY    CA653060   4.326   8.728   2.837  0.2851  0.7326  0.9121
18279THY    HA653061   4.383   8.816   2.807  0.3064 -0.1004  0.6227
18280THY      O53062   5.666   7.917   6.770  0.2020 -0.3167 -0.1821
18280THY     HO53063   5.698   7.878   6.853  3.0811 -0.4185  1.6099
18280THY    CA153064   5.672   8.044   6.798 -1.4848  0.0493 -0.3653
18280THY    CA253065   5.705   8.135   6.699 -0.8360  0.2725  0.2157
18280THY    CP153066   5.710   8.090   6.545  0.0564  0.3611  0.3860
18280THY    HP153067   5.731   7.983   6.533 -1.4735  1.0655 -0.0163
18280THY    CP253068   5.831   8.155   6.468  0.1480  0.3153  0.3546
18280THY    HP253069   5.925   8.121   6.514  1.9719 -1.3310  2.7718
18280THY    HP353070   5.826   8.265   6.476 -0.5586 -2.2757  0.5702
18280THY    HP453071   5.827   8.129   6.362 -2.3119  0.8710 -1.8864
18280THY    CP353072   5.572   8.121   6.480 -0.4262 -0.4340 -0.1036
18280THY    HP553073   5.580   8.227   6.453  1.0984 -0.2825 -0.1615
18280THY    HP653074   5.493   8.104   6.554  1.1933  1.9287  1.8687
18280THY    HP753075   5.552   8.052   6.398  0.1072  1.3977 -2.5856
18280THY    CA353076   5.737   8.269   6.732 -0.1467  0.8617  0.1276
18280THY    HA353077   5.746   8.343   6.654  0.3247  0.7845 -0.0059
18280THY    CA453078   5.725   8.308   6.867 -0.2850 -0.3478  0.9113
18280THY    HA453079   5.747   8.412   6.891 -0.2913  1.9538  0.4346
18280THY    CA553080   5.704   8.213   6.966 -0.8366  0.6748 -0.1260
18280THY    CM153081   5.694   8.253   7.103 -0.1250 -0.1085  0.1761
18280THY    HM153082   5.735   8.173   7.165  0.2598 -0.8893 -0.2497
18280THY    HM253083   5.589   8.261   7.133  0.0145  0.2265  0.8584
18280THY    HM353084   5.746   8.346   7.132  2.6706  0.6031 -1.4769
18280THY    CA653085   5.681   8.083   6.932 -0.1307  0.3147  0.4851
18280THY    HA653086   5.666   8.000   7.002 -1.1786 -2.2851 -1.6616
18281THY      O53087   1.502   5.618   4.134 -0.1160  0.0584  0.6320
18281THY     HO53088   1.466   5.551   4.074  0.8504  0.6273 -0.4378
18281THY    CA153089   1.420   5.633   4.240 -0.2529  0.1224  0.0437
18281THY    CA253090   1.451   5.701   4.358 -0.5732  0.3256  0.4556
18281THY    CP153091   1.596   5.750   4.394  0.3748 -0.3064  0.0637
18281THY    HP153092   1.673   5.702   4.331  2.3332  2.4134 -0.6484
18281THY    CP253093   1.636   5.719   4.541  0.3021  0.4522  0.1162
18281THY    HP253094   1.745   5.732   4.548  0.7086 -4.4105  1.1567
18281THY    HP353095   1.620   5.615   4.571  2.0204  0.9775 -0.0424
18281THY    HP453096   1.606   5.797   4.613 -1.4244  0.3531 -0.4274
18281THY    CP353097   1.631   5.904   4.351 -0.2100 -0.0938 -0.0754
18281THY    HP553098   1.739   5.924   4.359 -0.4715  0.2694  1.2635
18281THY    HP653099   1.571   5.973   4.412  0.9286 -1.6127  2.3821
18281THY    HP753100   1.610   5.918   4.245  2.9006 -0.8292 -0.1424
18281THY    CA353101   1.350   5.714   4.457  0.6144  0.3226 -0.2724
18281THY    HA353102   1.381   5.769   4.545 -1.0303  1.1568 -0.6303
18281THY    CA453103   1.223   5.665   4.440 -0.2443 -1.6790 -1.5620
18281THY    HA453104   1.150   5.678   4.520  2.1223  0.4940 -0.5358
18281THY    CA553105   1.189   5.599   4.319 -0.4528 -0.1451 -0.5072
18281THY    CM153106   1.054   5.554   4.301  0.3360 -0.2175  0.0120
18281THY    HM153107   0.978   5.629   4.323 -0.6184 -1.9402 -0.3913
18281THY    HM253108   1.049   5.466   4.365 -0.9119 -0.0539  0.1873
18281THY    HM353109   1.038   5.516   4.199  0.3431 -0.8646  1.6551
18281THY    CA653110   1.291   5.588   4.224 -0.5119 -0.1004 -0.3638
18281THY    HA653111   1.259   5.542   4.131 -3.3336 -0.1022  1.3734
18282THY      O53112   8.466   3.962   5.532  0.2015  0.3152  0.1409
18282THY     HO53113   8.437   4.024   5.600 -0.1618  0.3305 -0.0475
18282THY    CA153114   8.362   3.937   5.452  0.3183 -0.9016 -0.7196
18282THY    CA253115   8.319   3.813   5.397 -0.4460  0.2897 -0.5505
18282THY    CP153116   8.396   3.682   5.438 -0.6147 -0.1975 -0.4282
18282THY    HP153117   8.504   3.697   5.450 -0.3306 -0.0318 -2.2998
18282THY    CP253118   8.394   3.573   5.333 -0.1660 -0.2579 -0.1219
18282THY    HP253119   8.481   3.510   5.355 -0.4249  1.2735  0.0016
18282THY    HP353120   8.403   3.611   5.231 -0.9741 -0.9539 -1.7245
18282THY    HP453121   8.315   3.498   5.340 -0.4757 -2.1872 -0.0211
18282THY    CP353122   8.352   3.621   5.570 -0.5857 -0.7753 -0.5239
18282THY    HP553123   8.415   3.541   5.610 -0.8565  1.3162  0.2206
18282THY    HP653124   8.251   3.579   5.559 -0.2148 -0.8590 -1.4135
18282THY    HP753125   8.349   3.690   5.655 -1.6900  0.0557 -1.5497
18282THY    CA353126   8.204   3.812   5.314 -0.3373  0.1504 -0.5351
18282THY    HA353127   8.169   3.717   5.275  0.3958  1.0242 -1.1834
18282THY    CA453128   8.141   3.937   5.279 -0.0523  0.1380 -0.3423
18282THY    HA453129   8.060   3.943   5.207  0.9170 -0.8465  2.4802
18282THY    CA553130   8.197   4.059   5.323  0.1418  0.0297 -0.0979
18282THY    CM153131   8.132   4.192   5.293 -0.3115 -0.3666 -0.1747
18282THY    HM153132   8.027   4.192   5.326 -0.8422 -2.0033 -0.0886
18282THY    HM253133   8.134   4.209   5.185  1.7642 -0.4933 -0.9715
18282THY    HM353134   8.188   4.274   5.339 -1.0059  0.0312  0.0871
18282THY    CA653135   8.308   4.050   5.408 -0.9949  0.2589 -0.3497
18282THY    HA653136   8.352   4.145   5.439 -0.5186 -0.8124 -0.2014
18283THY      O53137   4.885   0.971   7.296  0.3910 -0.9255  1.1440
18283THY     HO53138   4.923   0.887   7.268 -0.3505 -1.1178  0.8627
18283THY    CA153139   4.970   1.019   7.390  0.1246 -0.2982 -0.3843
18283THY    CA253140   4.948   1.148   7.438  0.7079 -0.6413  0.1232
18283THY    CP153141   4.844   1.248   7.369  0.0207  0.2011  0.2631
18283THY    HP153142   4.775   1.190   7.307 -1.2503  1.7153  0.0950
18283THY    CP253143   4.923   1.350   7.282  0.4945 -0.3087  0.1004
18283THY    HP253144   5.007   1.312   7.223  1.4081  0.9573  0.0866
18283THY    HP353145   4.952   1.438   7.340 -1.0271 -0.2622  0.5921
18283THY    HP453146   4.857   1.383   7.201  0.5232 -0.0541  0.7907
18283THY    CP353147   4.761   1.328   7.472 -0.2834 -0.5856 -0.8931
18283THY    HP553148   4.736   1.420   7.418 -0.4942 -3.2885 -2.4535
18283THY    HP653149   4.813   1.355   7.566  1.5029 -2.0202  0.9968
18283THY    HP753150   4.664   1.283   7.496 -1.6370  1.1836  2.5882
18283THY    CA353151   5.046   1.199   7.527 -0.3554 -0.3899  0.0424
18283THY    HA353152   5.028   1.297   7.572 -0.6134  2.7074 -1.3050
18283THY    CA453153   5.148   1.115   7.577  0.5567 -0.1674 -0.7295
18283THY    HA453154   5.215   1.154   7.652  0.0784 -0.6029  1.0336
18283THY    CA553155   5.160   0.986   7.523 -0.0609  0.3526  0.1300
18283THY    CM153156   5.278   0.909   7.571 -0.6779 -0.1827 -0.1646
18283THY    HM153157   5.255   0.870   7.671 -0.3699 -0.0794 -0.0870
18283THY    HM253158   5.375   0.959   7.578 -0.0441 -2.8258 -0.8537
18283THY    HM353159   5.288   0.814   7.517 -1.8233 -0.6646 -0.0241
18283THY    CA653160   5.069   0.938   7.432 -0.1071  0.0388  0.0851
18283THY    HA653161   5.081   0.838   7.392 -0.8789  2.4195 -1.0323
18284THY      O53162   2.514   3.963   4.860 -0.5260 -0.4378 -0.4291
18284THY     HO53163   2.502   3.995   4.951 -1.3883 -0.5491 -0.4108
18284THY    CA153164   2.501   4.070   4.775 -0.3755  0.2295 -0.0008
18284THY    CA253165   2.533   4.045   4.640 -0.5529  0.4167 -0.1259
18284THY    CP153166   2.557   3.902   4.588 -0.1819  0.0885  0.2528
18284THY    HP153167   2.518   3.835   4.666  3.0224  2.1305  0.5311
18284THY    CP253168   2.703   3.892   4.556 -0.3550 -0.7140 -0.0988
18284THY    HP253169   2.727   3.787   4.533  1.2298  2.3993 -0.5457
18284THY    HP353170   2.767   3.915   4.642  1.1716 -0.7371 -3.6280
18284THY    HP453171   2.730   3.962   4.477  0.6889  1.2627  1.8620
18284THY    CP353172   2.472   3.873   4.455 -0.1776 -0.5842  0.0864
18284THY    HP553173   2.466   3.765   4.433 -1.3441  0.3092 -0.0484
18284THY    HP653174   2.497   3.934   4.368  2.5298  1.3494  1.9663
18284THY    HP753175   2.368   3.894   4.480 -0.3266 -0.6049 -0.6037
18284THY    CA353176   2.529   4.151   4.552 -0.3025  0.5557  0.3439
18284THY    HA353177   2.536   4.141   4.444 -0.5088  0.7057 -1.7862
18284THY    CA453178   2.494   4.281   4.600  0.3644  0.2120  0.1627
18284THY    HA453179   2.481   4.372   4.542 -0.0303 -0.7916 -0.5209
18284THY    CA553180   2.484   4.303   4.740 -0.2493 -0.3656  0.4176
18284THY    CM153181   2.444   4.444   4.789  0.5339  0.1773 -0.3353
18284THY    HM153182   2.500   4.522   4.736 -0.4292 -0.3475  0.0109
18284THY    HM253183   2.466   4.454   4.896 -0.1790  0.4020 -1.0930
18284THY    HM353184   2.341   4.473   4.768  1.0939 -1.5224  0.5695
18284THY    CA653185   2.485   4.193   4.830  0.5196 -0.4837 -1.1037
18284THY    HA653186   2.462   4.208   4.935 -0.4907 -0.0281 -4.8158
18285THY      O53187   0.469   5.982   5.819 -0.2745  0.0779 -0.5958
18285THY     HO53188   0.449   5.964   5.912 -0.2113  0.6810  1.9692
18285THY    CA153189   0.388   6.079   5.776  0.7080 -0.4458 -0.1274
18285THY    CA253190   0.371   6.104   5.642  0.1495  0.3041 -0.5377
18285THY    CP153191   0.440   6.017   5.534  0.1441 -0.5943 -0.0392
18285THY    HP153192   0.536   5.986   5.578  0.1403 -0.0801  0.6733
18285THY    CP253193   0.465   6.089   5.403  0.1993 -0.2346  0.0346
18285THY    HP253194   0.527   6.178   5.422  0.2628  2.9935 -0.5775
18285THY    HP353195   0.372   6.116   5.352 -0.9573  2.3235  1.2082
18285THY    HP453196   0.525   6.034   5.330 -1.7287 -0.8735 -1.3181
18285THY    CP353197   0.357   5.897   5.497 -0.0697  0.6335  0.8612
18285THY    HP553198   0.264   5.935   5.453  1.1649 -0.3475  2.8841
18285THY    HP653199   0.331   5.850   5.593 -0.9143  0.2941  0.6098
18285THY    HP753200   0.396   5.822   5.427 -2.5868 -1.3332  1.2733
18285THY    CA353201   0.281   6.205   5.604 -0.1677 -0.1013 -0.6278
18285THY    HA353202   0.269   6.222   5.497  1.9044 -0.6281 -2.0263
18285THY    CA453203   0.217   6.285   5.709  0.2676  0.1032  0.6845
18285THY    HA453204   0.135   6.352   5.682 -1.4997 -1.9325 -2.0407
18285THY    CA553205   0.234   6.245   5.841  1.1368 -0.0966 -0.5128
18285THY    CM153206   0.149   6.304   5.949 -0.1778  0.1659 -0.5589
18285THY    HM153207   0.069   6.372   5.918  2.1248  2.2019  3.5005
18285THY    HM253208   0.209   6.363   6.020  0.1008 -0.4654 -0.0638
18285THY    HM353209   0.097   6.221   5.998  0.1681 -0.4549 -1.1535
18285THY    CA653210   0.318   6.141   5.878  0.2485  0.4381 -0.5604
18285THY    HA653211   0.333   6.120   5.984  2.7129 -0.0204 -1.3761
18286THY      O53212   0.491   5.885   2.641 -0.6280 -0.3032  0.5412
18286THY     HO53213   0.478   5.926   2.554 -0.3944  0.2469  1.8505
18286THY    CA153214   0.605   5.937   2.689  0.3961 -0.1435 -0.4297
18286THY    CA253215   0.681   5.881   2.796  0.0472  0.1659 -0.2147
18286THY    CP153216   0.653   5.746   2.858  0.0091  0.3239 -0.4375
18286THY    HP153217   0.574   5.694   2.804  0.4000 -0.7646  0.0790
18286THY    CP253218   0.609   5.765   3.008 -0.1222  0.8687 -0.3777
18286THY    HP253219   0.660   5.856   3.042 -2.1329  1.1497  0.7038
18286THY    HP353220   0.639   5.679   3.069  2.8717 -0.0593 -0.0806
18286THY    HP453221   0.504   5.796   3.018  0.3344  0.1783  1.5288
18286THY    CP353222   0.777   5.662   2.846  0.1837  0.4684 -0.0285
18286THY    HP553223   0.751   5.562   2.884 -0.8781  1.8031  0.7234
18286THY    HP653224   0.862   5.704   2.900  0.3335  0.0276  0.2441
18286THY    HP753225   0.808   5.636   2.743 -0.0939  0.1489  0.8808
18286THY    CA353226   0.785   5.957   2.848 -0.2246  0.0368  0.1875
18286THY    HA353227   0.838   5.912   2.931  1.5618 -1.1442 -0.0008
18286THY    CA453228   0.810   6.086   2.796  0.7212 -0.2152  0.0665
18286THY    HA453229   0.888   6.150   2.836 -0.2625 -0.0510  1.2217
18286THY    CA553230   0.745   6.141   2.681  0.0824  0.1461 -0.0046
18286THY    CM153231   0.779   6.268   2.618 -0.2912 -0.2827  0.7187
18286THY    HM153232   0.755   6.348   2.688 -3.6443  1.8563 -1.9056
18286THY    HM253233   0.725   6.287   2.524 -1.6961  0.6114  1.2771
18286THY    HM353234   0.885   6.269   2.589  0.6943  3.0150  1.6792
18286THY    CA653235   0.634   6.064   2.637  0.6580  0.1842  0.1431
18286THY    HA653236   0.571   6.094   2.554 -0.9978  1.9099  1.6674
18287THY      O53237   2.027   3.564   3.994 -0.4341 -0.0731  0.2812
18287THY     HO53238   2.031   3.477   3.951  1.0962  0.0100  0.2764
18287THY    CA153239   2.153   3.598   4.031  0.1801  0.8913  0.1449
18287THY    CA253240   2.183   3.682   4.141  0.0958 -0.0937 -0.4959
18287THY    CP153241   2.076   3.728   4.238 -0.2897  0.2030  0.1765
18287THY    HP153242   1.979   3.679   4.226 -1.0293  2.4251  0.9824
18287THY    CP253243   2.060   3.881   4.239 -0.2668 -0.3882  0.9231
18287THY    HP253244   1.966   3.904   4.290 -0.7467  0.3916 -2.3619
18287THY    HP353245   2.039   3.913   4.136  0.6033 -0.5055  1.1418
18287THY    HP453246   2.151   3.940   4.256  0.3851  0.9012 -0.3737
18287THY    CP353247   2.115   3.686   4.387  0.2843  0.2148  0.2019
18287THY    HP553248   2.202   3.736   4.432 -1.1725  1.6535  1.5710
18287THY    HP653249   2.131   3.579   4.398 -0.8983 -0.3626 -0.0429
18287THY    HP753250   2.032   3.719   4.449 -1.1859 -1.0536 -0.9738
18287THY    CA353251   2.316   3.728   4.151  0.2121  0.5891 -0.0777
18287THY    HA353252   2.339   3.794   4.235  1.2528  1.4060 -1.4171
18287THY    CA453253   2.413   3.686   4.063 -0.1785 -0.7002  0.1175
18287THY    HA453254   2.512   3.729   4.076 -0.7866  0.0451  1.3683
18287THY    CA553255   2.381   3.595   3.968 -0.1075  0.6049 -0.0518
18287THY    CM153256   2.487   3.547   3.870 -0.0768  0.7845 -0.1256
18287THY    HM153257   2.588   3.573   3.905  0.6672 -0.2227 -1.5012
18287THY    HM253258   2.473   3.579   3.767 -0.0310  0.2422 -1.7737
18287THY    HM353259   2.488   3.437   3.874 -1.2802  1.9456 -0.1205
18287THY    CA653260   2.251   3.554   3.948 -0.3509  0.1425 -0.2274
18287THY    HA653261   2.223   3.482   3.871 -1.7262  0.2882  0.1205
18288THY      O53262   5.598   5.780   5.928  0.7008 -0.2278 -0.0512
18288THY     HO53263   5.683   5.816   5.898  0.2413 -0.7425  0.6503
18288THY    CA153264   5.617   5.653   5.895 -0.2740 -0.5641  0.4538
18288THY    CA253265   5.516   5.557   5.891  0.1517  0.6101  0.6182
18288THY    CP153266   5.370   5.607   5.885 -0.2562  0.4256 -0.1880
18288THY    HP153267   5.363   5.702   5.939  1.5536 -0.8176  0.7154
18288THY    CP253268   5.269   5.515   5.966 -0.1188 -0.2303  0.5581
18288THY    HP253269   5.249   5.417   5.921  2.0698  0.1081 -0.1042
18288THY    HP353270   5.172   5.565   5.981 -0.5428  3.3601 -1.1035
18288THY    HP453271   5.303   5.491   6.067 -1.0801  0.3005  1.3271
18288THY    CP353272   5.317   5.625   5.740 -0.0034 -0.4265  0.2530
18288THY    HP553273   5.363   5.704   5.681 -1.3178 -3.8318 -1.2983
18288THY    HP653274   5.209   5.639   5.729  0.0989 -1.5369  0.1914
18288THY    HP753275   5.331   5.534   5.680 -1.2446  1.8134 -1.5376
18288THY    CA353276   5.553   5.420   5.876 -0.7798 -0.2547  0.1825
18288THY    HA353277   5.476   5.344   5.862 -1.0020  2.2659 -0.1325
18288THY    CA453278   5.694   5.381   5.856  0.8316  0.2217 -0.4097
18288THY    HA453279   5.728   5.278   5.853  1.7925 -0.2823 -0.0950
18288THY    CA553280   5.791   5.487   5.852 -0.4418 -0.5491 -0.1775
18288THY    CM153281   5.936   5.464   5.822 -0.9921  0.4105 -0.0095
18288THY    HM153282   6.005   5.534   5.871  0.2446  0.8177 -1.4574
18288THY    HM253283   5.957   5.482   5.716 -2.2100  0.4557  1.9983
18288THY    HM353284   5.968   5.361   5.839  0.4638 -0.3536  0.2976
18288THY    CA653285   5.749   5.621   5.863 -0.3863 -0.4458  0.2717
18288THY    HA653286   5.819   5.703   5.856 -1.3857  1.9047  1.4487
18289THY      O53287   9.032   6.055   2.868  0.3744  0.2077 -0.6855
18289THY     HO53288   9.102   6.117   2.895 -2.3890 -0.0853  2.9032
18289THY    CA153289   8.985   6.110   2.757 -0.1163 -0.7569  0.6510
18289THY    CA253290   8.872   6.058   2.695  0.3986 -0.4713 -0.2565
18289THY    CP153291   8.810   5.930   2.756  0.2238  0.1010 -0.5053
18289THY    HP153292   8.826   5.929   2.865  1.5207 -0.0267  1.4551
18289THY    CP253293   8.870   5.806   2.692 -0.1310  0.5006  0.2824
18289THY    HP253294   8.979   5.805   2.680 -0.2756 -3.3759 -3.9771
18289THY    HP353295   8.831   5.786   2.591  1.1682  0.3657 -1.7482
18289THY    HP453296   8.848   5.714   2.748 -1.2082 -2.4155 -1.3783
18289THY    CP353297   8.658   5.917   2.740  0.0043  0.3139 -0.7873
18289THY    HP553298   8.637   5.917   2.632  0.9292  0.1205 -0.2731
18289THY    HP653299   8.598   5.990   2.796  1.7217  1.4138 -0.1580
18289THY    HP753300   8.626   5.816   2.770  2.4277 -0.1292 -1.7638
18289THY    CA353301   8.837   6.105   2.567  0.0944 -0.1560 -0.4662
18289THY    HA353302   8.756   6.051   2.517 -0.0243 -0.5712  0.0871
18289THY    CA453303   8.905   6.210   2.510 -0.7085 -0.0808 -0.4104
18289THY    HA453304   8.882   6.258   2.415 -0.1214 -0.2759 -0.5026
18289THY    CA553305   9.013   6.266   2.579 -0.5606  0.9216 -0.1905
18289THY    CM153306   9.102   6.368   2.518 -0.3040 -0.5007 -0.4299
18289THY    HM153307   9.048   6.461   2.501  1.7143  0.5618  1.0026
18289THY    HM253308   9.147   6.329   2.426  1.7259  1.0031 -1.8446
18289THY    HM353309   9.189   6.391   2.580  0.2208  0.2132 -3.7653
18289THY    CA653310   9.046   6.217   2.701  0.0931 -0.3253 -0.3690
18289THY    HA653311   9.135   6.257   2.748 -1.6928  1.7770  1.4702
18290THY      O53312   7.577   8.316   6.688  0.2153 -0.7271  0.5191
18290THY     HO53313   7.498   8.372   6.701 -0.0089 -0.7160  0.2023
18290THY    CA153314   7.664   8.366   6.784  0.7221 -0.3249 -0.3105
18290THY    CA253315   7.772   8.292   6.832 -0.3172 -1.0078 -0.8897
18290THY    CP153316   7.798   8.153   6.772  0.4254 -0.3316 -0.4081
18290THY    HP153317   7.761   8.133   6.671  1.3526 -0.6578 -0.5088
18290THY    CP253318   7.727   8.057   6.864 -1.1873 -0.2810 -0.6795
18290THY    HP253319   7.724   7.952   6.831 -0.5607 -1.9990 -0.1883
18290THY    HP353320   7.622   8.088   6.875 -1.3631  0.8725 -1.5995
18290THY    HP453321   7.766   8.057   6.966  0.9328 -1.0474 -1.4808
18290THY    CP353322   7.947   8.111   6.764  0.6062 -0.2854 -0.8097
18290THY    HP553323   8.001   8.170   6.689  2.2795  0.8130 -0.8845
18290THY    HP653324   7.952   8.008   6.728  0.7680  0.8395 -1.2100
18290THY    HP753325   8.000   8.116   6.859  0.6452 -0.2834 -1.2664
18290THY    CA353326   7.843   8.346   6.934 -0.4845 -0.2817  0.5645
18290THY    HA353327   7.920   8.289   6.984 -1.9617  0.7833 -0.5958
18290THY    CA453328   7.814   8.469   6.986  0.3990 -0.6627 -0.0374
18290THY    HA453329   7.871   8.506   7.071  0.9761 -0.7700 -0.6721
18290THY    CA553330   7.705   8.545   6.936 -0.2167  0.0307 -0.1529
18290THY    CM153331   7.674   8.676   6.989 -0.8866 -0.3164  0.3051
18290THY    HM153332   7.743   8.701   7.071 -0.3813 -0.1658 -1.4907
18290THY    HM253333   7.580   8.680   7.045 -1.0982 -0.5907 -0.6766
18290THY    HM353334   7.659   8.750   6.910 -2.8400 -1.6762 -1.4328
18290THY    CA653335   7.637   8.491   6.832 -0.4541  0.7484  0.3366
18290THY    HA653336   7.554   8.552   6.796 -0.5639  1.2860  0.5034
18291THY      O53337   5.787   3.856   2.717  0.3630  0.4374  1.0958
18291THY     HO53338   5.866   3.911   2.733  1.4863 -0.0869 -0.3052
18291THY    CA153339   5.802   3.767   2.610 -0.0571 -0.3564  0.3669
18291THY    CA253340   5.705   3.664   2.587  0.2401 -0.3511 -0.3557
18291THY    CP153341   5.569   3.656   2.660  0.1120  0.1834  0.2507
18291THY    HP153342   5.558   3.732   2.738 -0.3313  0.1824  0.1926
18291THY    CP253343   5.566   3.523   2.743 -0.0822 -0.3869  0.1728
18291THY    HP253344   5.644   3.508   2.819  0.1126 -0.5448  0.3694
18291THY    HP353345   5.571   3.438   2.673  0.3789  0.1846 -0.2759
18291THY    HP453346   5.474   3.522   2.802  0.0745 -0.1396  0.3197
18291THY    CP353347   5.461   3.672   2.547 -0.2930 -1.3525 -0.8650
18291THY    HP553348   5.364   3.659   2.596  0.3756  0.5147  0.6338
18291THY    HP653349   5.476   3.597   2.468  1.5375 -2.4276  0.5323
18291THY    HP753350   5.466   3.770   2.496  0.5170  0.6308  0.1837
18291THY    CA353351   5.737   3.569   2.490 -0.2041  0.0092 -0.2925
18291THY    HA353352   5.660   3.500   2.458 -1.7940  2.1800  0.3423
18291THY    CA453353   5.847   3.581   2.412 -0.2949  0.1827  0.2320
18291THY    HA453354   5.864   3.515   2.328  0.7633 -0.7359  1.5944
18291THY    CA553355   5.938   3.680   2.438  0.0513 -0.0236  0.3174
18291THY    CM153356   6.059   3.696   2.347  0.0308 -0.7532 -0.2434
18291THY    HM153357   6.142   3.733   2.408  0.2553  0.6693 -2.8459
18291THY    HM253358   6.043   3.772   2.269 -0.3219  1.3355  1.9596
18291THY    HM353359   6.086   3.603   2.296 -1.9818 -2.5527  0.0974
18291THY    CA653360   5.919   3.770   2.541 -0.1334  0.9613  0.6916
18291THY    HA653361   5.988   3.851   2.561  0.7232 -0.1270  0.2538
18292THY      O53362   4.001   3.420   2.227 -0.2093 -0.2666  0.0506
18292THY     HO53363   4.017   3.329   2.255  2.2863 -2.3475 -0.3042
18292THY    CA153364   4.084   3.498   2.306  0.9903 -0.2632  0.4067
18292THY    CA253365   4.073   3.640   2.302 -0.7978  0.6092 -0.0386
18292THY    CP153366   3.991   3.702   2.186 -0.7396  0.3481 -0.5100
18292THY    HP153367   4.008   3.641   2.097  0.9250  0.4879 -0.3010
18292THY    CP253368   4.043   3.845   2.146  0.3340  0.0738  0.4404
18292THY    HP253369   3.987   3.863   2.054 -0.8302  0.3568 -1.4989
18292THY    HP353370   4.149   3.845   2.117  0.3182  0.0162  0.4944
18292THY    HP453371   4.027   3.918   2.226  0.3373  1.3168 -0.8761
18292THY    CP353372   3.840   3.716   2.217 -1.0067  0.6426 -0.7659
18292THY    HP553373   3.784   3.755   2.131  0.3154  0.8578  1.8191
18292THY    HP653374   3.839   3.778   2.307  0.3905 -0.3262  0.7627
18292THY    HP753375   3.814   3.614   2.248  3.0497  1.9757 -1.6004
18292THY    CA353376   4.137   3.709   2.407  0.3134  0.1902  0.4943
18292THY    HA353377   4.131   3.817   2.415 -0.9627  0.7988  0.3950
18292THY    CA453378   4.208   3.635   2.502 -0.2145 -0.0906 -0.2140
18292THY    HA453379   4.261   3.692   2.578 -1.0112  1.3753 -1.3931
18292THY    CA553380   4.224   3.498   2.497  0.2746 -0.6582  0.5393
18292THY    CM153381   4.295   3.418   2.596 -0.0570  0.2929 -0.5322
18292THY    HM153382   4.388   3.472   2.618  1.1829 -1.6946 -1.7498
18292THY    HM253383   4.320   3.316   2.564 -2.2193  0.2248 -1.1022
18292THY    HM353384   4.241   3.424   2.691  1.2841  1.0025  2.3319
18292THY    CA653385   4.156   3.424   2.403 -0.8755  0.2049 -0.4554
18292THY    HA653386   4.165   3.315   2.401 -1.4097  0.4590 -0.5078
18293THY      O53387   4.577   5.351   3.202  0.9673 -0.2508  0.0060
18293THY     HO53388   4.642   5.355   3.274  1.8900 -0.9899 -1.0465
18293THY    CA153389   4.636   5.402   3.091  0.3930 -0.2401  0.6283
18293THY    CA253390   4.563   5.402   2.966 -0.5620 -0.7119 -0.0168
18293THY    CP153391   4.418   5.355   2.962  0.4718  0.2690  0.0337
18293THY    HP153392   4.383   5.300   3.050 -1.3424 -0.5115 -0.1429
18293THY    CP253393   4.415   5.243   2.850  0.3219 -0.1681 -0.3598
18293THY    HP253394   4.387   5.296   2.758 -1.1466  0.3277 -0.2405
18293THY    HP353395   4.327   5.181   2.868  0.1501 -1.5949 -0.5708
18293THY    HP453396   4.503   5.180   2.833  0.4036 -1.2707  0.0245
18293THY    CP353397   4.314   5.470   2.945 -0.2544  0.0067 -0.3311
18293THY    HP553398   4.328   5.551   3.018  1.0110  0.2049 -0.7071
18293THY    HP653399   4.206   5.453   2.947 -0.6824  2.3465  1.9881
18293THY    HP753400   4.332   5.525   2.851 -3.9846  0.0752  1.3465
18293THY    CA353401   4.631   5.440   2.854 -0.1164  0.6272 -0.2411
18293THY    HA353402   4.589   5.438   2.754  0.2092  0.4818 -0.0464
18293THY    CA453403   4.763   5.481   2.861 -0.8889 -0.1751  0.2376
18293THY    HA453404   4.811   5.528   2.776 -1.2351 -1.3337 -1.4141
18293THY    CA553405   4.826   5.479   2.979 -0.6027  0.1274  0.1742
18293THY    CM153406   4.971   5.515   2.974  0.4036  0.4701  0.7246
18293THY    HM153407   4.999   5.589   2.899 -1.4444 -1.7591 -0.7189
18293THY    HM253408   5.028   5.422   2.958  0.2667  0.6134  0.6146
18293THY    HM353409   5.008   5.554   3.070 -0.1655  1.2044 -0.4672
18293THY    CA653410   4.766   5.441   3.099  0.4778 -0.1211 -0.3640
18293THY    HA653411   4.823   5.425   3.190  0.8906 -0.2693  0.2451
18294THY      O53412   8.804   0.647   6.976 -0.9866  0.1280 -0.1550
18294THY     HO53413   8.727   0.692   7.015 -0.8207  2.3566 -1.6264
18294THY    CA153414   8.755   0.545   6.898 -0.0464  0.5524 -0.6673
18294THY    CA253415   8.790   0.539   6.762 -0.2271 -0.4217  0.4431
18294THY    CP153416   8.907   0.629   6.708  0.5188 -0.0179  0.0704
18294THY    HP153417   8.930   0.712   6.775 -1.8635  1.5133 -0.3968
18294THY    CP253418   8.859   0.693   6.574 -0.0276 -0.0518  0.0260
18294THY    HP253419   8.925   0.780   6.562  0.7445  2.4613 -0.1307
18294THY    HP353420   8.758   0.734   6.581  0.6112  0.0320  1.6508
18294THY    HP453421   8.868   0.616   6.496  0.8013  0.9146 -0.8957
18294THY    CP353422   9.045   0.556   6.690  0.6819  0.1556  0.6084
18294THY    HP553423   9.085   0.498   6.773  0.7504 -1.3214 -1.5718
18294THY    HP653424   9.117   0.637   6.671 -0.1550 -1.4526  1.0174
18294THY    HP753425   9.022   0.487   6.608 -0.7675  2.1970 -1.4313
18294THY    CA353426   8.724   0.440   6.679 -0.0448  0.0946  0.0993
18294THY    HA353427   8.751   0.418   6.576  0.5411  0.5080 -1.2359
18294THY    CA453428   8.618   0.360   6.733 -0.1850 -0.0380 -0.5187
18294THY    HA453429   8.573   0.277   6.680 -0.8700  0.4976 -0.4998
18294THY    CA553430   8.575   0.391   6.867  0.2990  0.4510 -0.3174
18294THY    CM153431   8.461   0.307   6.923  0.2284 -0.0539  0.8127
18294THY    HM153432   8.446   0.314   7.031 -1.7289 -0.1387 -0.8981
18294THY    HM253433   8.480   0.203   6.891  0.9399  2.0735  0.2439
18294THY    HM353434   8.372   0.336   6.866 -0.8387  0.7125 -0.7969
18294THY    CA653435   8.650   0.472   6.946  0.6005 -0.6204 -0.3311
18294THY    HA653436   8.615   0.485   7.048 -0.6758 -1.2577  1.7204
18295THY      O53437   5.788   2.261   6.452 -0.1129  0.1675  0.0621
18295THY     HO53438   5.760   2.177   6.492  1.4530 -0.4863 -0.8000
18295THY    CA153439   5.780   2.351   6.549 -0.4877 -0.4293  0.3568
18295THY    CA253440   5.810   2.494   6.530 -0.6050  0.2043  0.7567
18295THY    CP153441   5.858   2.542   6.388  0.8764 -0.0551  0.3095
18295THY    HP153442   5.887   2.451   6.335  0.9035  0.7240 -0.1388
18295THY    CP253443   5.962   2.651   6.388 -0.2970  0.9122  0.1240
18295THY    HP253444   5.983   2.660   6.281 -1.3662  0.6262 -0.5120
18295THY    HP353445   6.049   2.612   6.441 -0.3662  2.8513  2.4208
18295THY    HP453446   5.930   2.751   6.417  0.4971 -2.9638  1.6713
18295THY    CP353447   5.733   2.602   6.320 -0.1700  0.6770 -0.2755
18295THY    HP553448   5.707   2.699   6.364  0.8541 -1.1479  0.8963
18295THY    HP653449   5.655   2.525   6.319 -0.0381  1.8826 -0.4324
18295THY    HP753450   5.754   2.630   6.216  1.7257  0.0454 -3.4944
18295THY    CA353451   5.801   2.588   6.643  0.3075  0.1639  1.0595
18295THY    HA353452   5.805   2.696   6.634  0.3407  3.4519  1.4318
18295THY    CA453453   5.770   2.537   6.769 -0.3209 -0.1545  0.6171
18295THY    HA453454   5.765   2.601   6.857  2.9155  0.9807 -0.4775
18295THY    CA553455   5.762   2.398   6.785  0.7821  0.0861 -0.1656
18295THY    CM153456   5.726   2.345   6.923  0.2109  0.6054 -0.3077
18295THY    HM153457   5.762   2.243   6.939 -1.4780  1.2731 -0.8251
18295THY    HM253458   5.620   2.355   6.947  0.1577  0.2041  0.1190
18295THY    HM353459   5.777   2.405   6.999  1.1050  0.3503 -0.7278
18295THY    CA653460   5.760   2.307   6.678 -0.2113  0.1590 -0.1656
18295THY    HA653461   5.742   2.202   6.700  0.9759 -0.6002 -0.5384
18296THY      O53462   5.685   7.718   4.375  0.2659  0.0880 -0.2807
18296THY     HO53463   5.739   7.754   4.448 -1.6709  0.9195  1.1144
18296THY    CA153464   5.574   7.703   4.444  0.0460  0.1710  0.3911
18296THY    CA253465   5.452   7.644   4.394  0.1743 -0.7053  0.1047
18296THY    CP153466   5.457   7.588   4.254  0.7314  0.3190  0.1731
18296THY    HP153467   5.520   7.654   4.193  0.5991  0.6578  0.6220
18296THY    CP253468   5.318   7.592   4.183 -0.1602 -0.2395 -1.0697
18296THY    HP253469   5.277   7.693   4.184 -0.0735  0.4152 -1.0385
18296THY    HP353470   5.242   7.523   4.220 -0.2309 -0.0229 -0.8753
18296THY    HP453471   5.338   7.561   4.079 -2.4453 -1.6409  1.7077
18296THY    CP353472   5.510   7.446   4.248  0.5811 -0.4320  0.1781
18296THY    HP553473   5.458   7.394   4.330  1.9923  0.2113 -0.2712
18296THY    HP653474   5.616   7.432   4.275  0.7614 -1.4059 -0.4043
18296THY    HP753475   5.497   7.391   4.154  1.2887  0.4139 -1.5176
18296THY    CA353476   5.343   7.626   4.484 -0.9902  0.9671  0.3060
18296THY    HA353477   5.259   7.568   4.446  0.4508  0.6585 -1.6907
18296THY    CA453478   5.351   7.675   4.618  0.1162 -0.4414 -0.4766
18296THY    HA453479   5.269   7.663   4.688  0.3795 -0.0687 -0.1451
18296THY    CA553480   5.473   7.736   4.662  0.0343 -0.2425 -0.4145
18296THY    CM153481   5.477   7.786   4.803 -0.3667 -0.3814  0.5552
18296THY    HM153482   5.440   7.888   4.818  0.2113 -0.4439  0.7787
18296THY    HM253483   5.579   7.788   4.843 -0.2375 -0.7255  1.2629
18296THY    HM353484   5.428   7.716   4.872 -0.5009  0.3882  1.3870
18296THY    CA653485   5.581   7.746   4.577  0.6651  0.1107 -0.9201
18296THY    HA653486   5.665   7.803   4.617  0.5096 -1.7646  0.7111
18297THY      O53487   0.341   0.592   3.023 -0.2873 -0.3227 -0.2660
18297THY     HO53488   0.289   0.631   2.950  0.4408 -0.2319  0.9174
18297THY    CA153489   0.462   0.560   2.977  0.2298  0.0363 -0.6271
18297THY    CA253490   0.557   0.491   3.059  0.3126 -0.6686 -0.0290
18297THY    CP153491   0.510   0.429   3.191  0.0147  0.2178 -0.5148
18297THY    HP153492   0.424   0.482   3.235  0.6305  1.0949 -0.2046
18297THY    CP253493   0.607   0.441   3.313  0.3071 -0.6651 -0.1703
18297THY    HP253494   0.670   0.352   3.322  2.0253  0.2061  1.0471
18297THY    HP353495   0.550   0.456   3.405  2.6264  0.6795  1.0431
18297THY    HP453496   0.675   0.528   3.309  2.4002  0.0746 -1.6923
18297THY    CP353497   0.480   0.283   3.177  0.8312 -0.2612 -0.2090
18297THY    HP553498   0.395   0.257   3.113 -0.1347  1.0303 -0.3549
18297THY    HP653499   0.465   0.247   3.280  0.1299  0.3464  1.6755
18297THY    HP753500   0.571   0.244   3.131 -0.1567 -2.2102 -0.3373
18297THY    CA353501   0.690   0.487   3.016 -0.3798 -0.4064  0.6874
18297THY    HA353502   0.764   0.457   3.090  0.2222 -0.4423  2.0414
18297THY    CA453503   0.724   0.524   2.882 -0.1003  0.5588 -0.1527
18297THY    HA453504   0.828   0.509   2.852 -0.6024 -0.5207 -1.7280
18297THY    CA553505   0.626   0.589   2.803 -0.2728 -0.7144 -0.0346
18297THY    CM153506   0.652   0.640   2.663  0.4188 -0.2100 -0.7233
18297THY    HM153507   0.664   0.749   2.667  1.3421  3.4415 -0.8432
18297THY    HM253508   0.561   0.634   2.601 -0.1013  0.4122  0.3835
18297THY    HM353509   0.737   0.586   2.622  2.0013  3.7057 -1.4929
18297THY    CA653510   0.497   0.606   2.852  0.6397  0.2123  0.0776
18297THY    HA653511   0.424   0.659   2.790  1.6122 -0.5757  0.5298
18298THY      O53512   6.614   6.122   4.404 -0.7448  0.4834 -0.3826
18298THY     HO53513   6.603   6.097   4.497  1.4566  0.6011 -1.1221
18298THY    CA153514   6.495   6.133   4.352  0.3190 -0.6242 -1.0359
18298THY    CA253515   6.480   6.146   4.213 -0.2110 -0.4861 -0.0255
18298THY    CP153516   6.605   6.150   4.124 -0.0526  0.2442  0.4501
18298THY    HP153517   6.685   6.080   4.148  0.0762 -2.6580 -0.5541
18298THY    CP253518   6.666   6.289   4.129  0.4703 -0.0904 -0.2596
18298THY    HP253519   6.761   6.292   4.074 -0.3945 -1.7886 -1.9591
18298THY    HP353520   6.692   6.309   4.234  0.3287 -0.2479  0.8524
18298THY    HP453521   6.597   6.371   4.106  0.6563  0.0467 -0.0625
18298THY    CP353522   6.580   6.122   3.975 -0.3787  0.4557 -0.3980
18298THY    HP553523   6.676   6.108   3.924  0.4963  1.5621  1.2485
18298THY    HP653524   6.525   6.198   3.918  0.6517 -1.6731 -1.1821
18298THY    HP753525   6.521   6.031   3.958 -0.8961 -0.6647  0.1275
18298THY    CA353526   6.351   6.166   4.164  0.1124  0.0397  0.2182
18298THY    HA353527   6.317   6.167   4.060 -1.0145  0.3804 -0.5388
18298THY    CA453528   6.247   6.174   4.265 -0.9538  0.2076  0.2170
18298THY    HA453529   6.145   6.186   4.231 -0.5053 -1.3290 -0.1085
18298THY    CA553530   6.265   6.167   4.403  0.0082  0.0401  0.1578
18298THY    CM153531   6.149   6.159   4.497 -0.3405  0.5224  0.1345
18298THY    HM153532   6.120   6.256   4.540  1.5334  1.0319  0.5108
18298THY    HM253533   6.179   6.100   4.585  0.7937  0.0119 -0.0740
18298THY    HM353534   6.063   6.109   4.451 -1.2627 -1.0475  2.9475
18298THY    CA653535   6.392   6.140   4.443 -0.3245 -0.0103 -0.5635
18298THY    HA653536   6.410   6.138   4.550  2.0743 -0.2488  1.5296
18299THY      O53537   1.495   8.206   6.886  0.0012  0.8703 -0.0088
18299THY     HO53538   1.473   8.115   6.860  0.0603  0.8930 -0.0297
18299THY    CA153539   1.398   8.279   6.838  0.3997  0.2864  0.5666
18299THY    CA253540   1.428   8.411   6.789  0.0695 -0.0766  0.2308
18299THY    CP153541   1.575   8.453   6.786  0.5334  0.2325  0.1855
18299THY    HP153542   1.635   8.393   6.855 -1.2733  1.0436 -0.7633
18299THY    CP253543   1.599   8.605   6.821 -0.1141  0.2306 -0.1624
18299THY    HP253544   1.577   8.666   6.733 -1.9181 -0.9222 -2.3702
18299THY    HP353545   1.702   8.637   6.845  0.2606 -0.4767 -0.8078
18299THY    HP453546   1.540   8.628   6.911  2.3562  1.4789  1.8927
18299THY    CP353547   1.641   8.424   6.644  0.3427 -0.1243 -0.1661
18299THY    HP553548   1.642   8.317   6.621  0.7268 -3.1354  0.3862
18299THY    HP653549   1.746   8.455   6.638 -0.1287 -1.9169  1.2811
18299THY    HP753550   1.589   8.484   6.569 -0.8601  3.0067  3.0827
18299THY    CA353551   1.319   8.491   6.743 -0.4248  0.0883  0.2185
18299THY    HA353552   1.327   8.592   6.704  1.8134  0.3004  0.1627
18299THY    CA453553   1.192   8.426   6.732 -0.0389 -0.8480  0.0762
18299THY    HA453554   1.106   8.475   6.688 -0.9700 -2.1956 -2.6057
18299THY    CA553555   1.169   8.296   6.784  0.7644  0.8225  0.5436
18299THY    CM153556   1.030   8.243   6.768 -0.3994  0.7727  0.4198
18299THY    HM153557   0.960   8.290   6.837 -2.2771  0.8695 -2.2628
18299THY    HM253558   1.032   8.133   6.772  1.9721  1.3400  0.4282
18299THY    HM353559   0.996   8.267   6.666 -0.0887  0.3910 -0.7017
18299THY    CA653560   1.272   8.218   6.825 -0.2417 -0.7811  0.0244
18299THY    HA653561   1.260   8.118   6.866  2.3290 -0.7675 -0.3479
18300THY      O53562   7.245   1.270   3.888  0.6353  0.4947 -0.2399
18300THY     HO53563   7.194   1.335   3.938 -2.2053 -1.6306 -0.6347
18300THY    CA153564   7.146   1.197   3.835  1.2145  0.0775 -0.2923
18300THY    CA253565   7.164   1.061   3.794  0.4788 -0.7917 -0.1325
18300THY    CP153566   7.293   0.976   3.822 -0.4201 -0.1031  0.5700
18300THY    HP153567   7.360   1.015   3.899  0.9671 -0.4579 -1.0273
18300THY    CP253568   7.365   0.969   3.686 -0.1521  0.5381 -0.4258
18300THY    HP253569   7.297   0.919   3.616 -2.6206  2.3227  0.2234
18300THY    HP353570   7.462   0.921   3.704 -0.3780  1.6925 -0.4927
18300THY    HP453571   7.380   1.071   3.649 -2.0516 -0.3983 -0.4286
18300THY    CP353572   7.259   0.831   3.868 -0.0974  0.2847 -0.2415
18300THY    HP553573   7.202   0.849   3.959  0.2863  0.4740  0.0312
18300THY    HP653574   7.349   0.776   3.897 -0.3895  4.1123  1.0172
18300THY    HP753575   7.195   0.772   3.801 -3.0980  3.2122 -0.5775
18300THY    CA353576   7.056   0.993   3.746 -0.3681  0.5310 -0.0759
18300THY    HA353577   7.068   0.889   3.718 -1.2380  1.6486 -0.4994
18300THY    CA453578   6.932   1.058   3.742  0.4784  0.0614  0.3002
18300THY    HA453579   6.852   0.995   3.705  1.0179 -2.3693  0.9654
18300THY    CA553580   6.910   1.189   3.767 -0.1468  0.3160 -0.3890
18300THY    CM153581   6.770   1.248   3.756 -0.5472 -0.1595  0.6892
18300THY    HM153582   6.703   1.196   3.825 -1.8108 -1.0725  1.0750
18300THY    HM253583   6.728   1.217   3.660 -1.5750  0.8447 -1.2185
18300THY    HM353584   6.764   1.357   3.765 -0.1463 -0.8382  0.7748
18300THY    CA653585   7.019   1.262   3.823  0.6121 -0.4231 -0.3008
18300THY    HA653586   7.000   1.366   3.849 -2.7830 -0.6313 -0.7452
18301THY      O53587   2.413   4.498   3.990  0.2456  0.0749  0.3486
18301THY     HO53588   2.450   4.548   3.915 -2.1494 -1.5671 -0.1772
18301THY    CA153589   2.477   4.378   3.991 -0.6917  0.0663 -0.4082
18301THY    CA253590   2.418   4.263   4.047 -0.2181  0.4588  0.3235
18301THY    CP153591   2.289   4.285   4.131 -0.4945 -0.3563  0.0472
18301THY    HP153592   2.266   4.392   4.142 -0.2543 -0.9542  0.1627
18301THY    CP253593   2.296   4.215   4.274 -0.2478  0.4836  0.9420
18301THY    HP253594   2.219   4.246   4.346 -3.4029 -3.1884  2.5557
18301THY    HP353595   2.391   4.250   4.315  1.1472 -2.0999  0.4484
18301THY    HP453596   2.303   4.106   4.274  0.3551  2.1044  0.9639
18301THY    CP353597   2.163   4.221   4.065 -0.7435  0.3379  0.1944
18301THY    HP553598   2.080   4.224   4.137  0.2510  1.6231 -1.0577
18301THY    HP653599   2.186   4.114   4.055  0.5642  0.5206  0.4410
18301THY    HP753600   2.142   4.260   3.966  1.4430 -0.1639  0.2100
18301THY    CA353601   2.476   4.133   4.026 -0.3143 -0.7267 -0.1091
18301THY    HA353602   2.447   4.041   4.075 -1.5499 -1.0815  0.0715
18301THY    CA453603   2.602   4.135   3.971  0.0868  0.6837 -0.4598
18301THY    HA453604   2.652   4.044   3.938  1.4615 -3.0737  1.4384
18301THY    CA553605   2.656   4.251   3.909 -0.3347  1.1548 -0.0238
18301THY    CM153606   2.781   4.222   3.828  0.8839  0.3092 -0.6326
18301THY    HM153607   2.753   4.149   3.752 -0.1068 -1.1019  1.1297
18301THY    HM253608   2.863   4.184   3.891  1.0285 -0.3078 -1.3459
18301THY    HM353609   2.821   4.305   3.768 -1.3054 -2.6908 -1.5802
18301THY    CA653610   2.596   4.377   3.915 -0.3668 -0.0940  0.4653
18301THY    HA653611   2.626   4.474   3.877 -2.9236  3.7285  3.0522
18302THY      O53612   5.181   5.039   7.358 -0.1237  0.7038 -0.3694
18302THY     HO53613   5.221   4.971   7.302 -0.5048  2.2803 -1.9679
18302THY    CA153614   5.079   5.075   7.279 -0.2800 -0.6424  0.2746
18302THY    CA253615   4.953   5.115   7.332  0.2305  0.4034  0.2085
18302THY    CP153616   4.935   5.126   7.486  0.0716 -0.2612 -0.6009
18302THY    HP153617   5.026   5.094   7.539 -0.8891  0.7424 -1.7869
18302THY    CP253618   4.822   5.039   7.527 -0.4361  0.4297 -0.2697
18302THY    HP253619   4.803   5.054   7.634  1.5794  0.9213 -0.9259
18302THY    HP353620   4.851   4.933   7.517 -1.8729 -0.4545 -0.6070
18302THY    HP453621   4.738   5.051   7.457  0.6834 -0.7221  1.2641
18302THY    CP353622   4.906   5.268   7.516 -0.4848  0.3250 -0.1757
18302THY    HP553623   4.995   5.327   7.491 -0.8142  0.7172  0.5056
18302THY    HP653624   4.890   5.291   7.622  0.2770 -0.1627  3.2025
18302THY    HP753625   4.815   5.302   7.465 -1.3381  0.9712 -1.4050
18302THY    CA353626   4.858   5.158   7.242 -0.8009  0.0440  0.4400
18302THY    HA353627   4.757   5.182   7.274 -0.3134  2.6200 -0.6386
18302THY    CA453628   4.891   5.163   7.101 -0.7993 -0.4035 -0.1680
18302THY    HA453629   4.810   5.186   7.033 -0.3397 -1.1749 -0.7556
18302THY    CA553630   5.013   5.124   7.049 -0.1973  1.0085 -0.1720
18302THY    CM153631   5.054   5.129   6.895  0.0543 -0.3790 -0.1717
18302THY    HM153632   5.015   5.223   6.855 -0.0027  3.2580  1.5096
18302THY    HM253633   5.024   5.036   6.845 -0.1468 -0.7169  0.0734
18302THY    HM353634   5.163   5.129   6.895  0.1009  1.5972 -0.0653
18302THY    CA653635   5.108   5.090   7.146  0.4541  0.0301 -0.1283
18302THY    HA653636   5.211   5.089   7.114  0.2134 -0.7601 -0.2365
18303THY      O53637   6.928   1.234   6.714  0.2382 -0.7076  0.1785
18303THY     HO53638   6.983   1.184   6.652  2.0229  1.1416 -0.3026
18303THY    CA153639   7.017   1.322   6.772  0.5302 -0.4093 -0.0600
18303THY    CA253640   6.997   1.375   6.908 -1.1279 -0.8297  0.1923
18303THY    CP153641   6.877   1.341   6.986  0.2704 -0.2872  0.8861
18303THY    HP153642   6.859   1.237   6.956  0.3858 -1.1380  1.1100
18303THY    CP253643   6.763   1.428   6.941  0.5684 -0.4876 -0.5825
18303THY    HP253644   6.800   1.530   6.955 -2.6968  1.1500  0.5136
18303THY    HP353645   6.673   1.431   7.004 -0.5933 -2.1164  0.4857
18303THY    HP453646   6.745   1.424   6.833 -0.3596 -0.4017  0.7482
18303THY    CP353647   6.886   1.333   7.145 -0.5654 -0.0678 -0.4113
18303THY    HP553648   6.906   1.432   7.186 -0.1903 -0.1123 -0.4680
18303THY    HP653649   6.962   1.260   7.176  0.5282 -1.0453  0.2698
18303THY    HP753650   6.783   1.316   7.180 -1.1806 -1.9438 -0.8431
18303THY    CA353651   7.097   1.459   6.958  0.0485 -0.0197 -0.3536
18303THY    HA353652   7.084   1.495   7.060 -0.3116  0.0220 -0.6004
18303THY    CA453653   7.215   1.482   6.882  0.0624 -1.0135  0.8814
18303THY    HA453654   7.297   1.534   6.932  1.9154 -0.7063 -2.1075
18303THY    CA553655   7.228   1.437   6.758 -1.1320  0.1226 -0.1003
18303THY    CM153656   7.347   1.472   6.675 -0.1119 -0.0698 -0.5324
18303THY    HM153657   7.325   1.493   6.569  0.0231 -0.3688 -1.7990
18303THY    HM253658   7.415   1.389   6.652  0.2495  1.1820 -0.6022
18303THY    HM353659   7.399   1.559   6.716 -0.9248 -0.4864  0.1643
18303THY    CA653660   7.131   1.355   6.701  0.5403 -0.3880 -0.0385
18303THY    HA653661   7.139   1.316   6.600 -0.4376 -0.2423 -0.6411
18304THY      O53662   5.108   3.585   7.222  0.2306 -0.0121  0.1429
18304THY     HO53663   5.105   3.630   7.136  0.3931  0.1167  0.4012
18304THY    CA153664   5.054   3.464   7.195 -0.0741 -0.2275  0.1742
18304THY    CA253665   4.957   3.403   7.285  0.5017 -0.1643  0.5871
18304THY    CP153666   4.900   3.473   7.409  0.6865 -0.0623 -0.3413
18304THY    HP153667   4.851   3.563   7.369  1.2561 -0.4751 -0.2128
18304THY    CP253668   5.006   3.507   7.522  0.7178 -0.8893  0.2458
18304THY    HP253669   5.093   3.565   7.490  1.6778  0.7976 -0.1887
18304THY    HP353670   5.038   3.415   7.572 -2.7078  1.1690  0.0059
18304THY    HP453671   4.955   3.564   7.600 -2.6207 -1.0693 -2.2151
18304THY    CP353672   4.797   3.395   7.481  0.0525 -0.0385  0.6201
18304THY    HP553673   4.701   3.379   7.429 -0.3262 -0.1528  2.9522
18304THY    HP653674   4.767   3.432   7.580  2.1471  0.2106  1.7865
18304THY    HP753675   4.840   3.300   7.514  0.4368  0.4483  0.9570
18304THY    CA353676   4.905   3.285   7.234 -0.5789  0.2971 -0.1281
18304THY    HA353677   4.826   3.229   7.282  0.3656  0.0498 -1.7410
18304THY    CA453678   4.950   3.234   7.108  0.3109  0.3757 -0.1943
18304THY    HA453679   4.916   3.137   7.076  2.4983  0.4876 -1.0578
18304THY    CA553680   5.061   3.286   7.031  0.9454 -0.0654  0.2336
18304THY    CM153681   5.093   3.229   6.892  0.1657  0.1738  0.8696
18304THY    HM153682   5.180   3.283   6.852 -1.2395 -3.1392  0.9145
18304THY    HM253683   5.014   3.260   6.822 -1.0666  1.1121 -0.0549
18304THY    HM353684   5.105   3.121   6.895 -0.3844  2.1255  0.8317
18304THY    CA653685   5.109   3.405   7.082  0.5605  0.7248 -0.0501
18304THY    HA653686   5.190   3.457   7.031 -0.0184  0.1116  0.2641
18305THY      O53687   1.275   3.486   4.138 -0.5532 -0.3683 -0.4856
18305THY     HO53688   1.204   3.506   4.201 -1.0425 -0.6951 -1.1509
18305THY    CA153689   1.312   3.605   4.084  0.3859  0.0649 -0.0994
18305THY    CA253690   1.428   3.601   4.005 -0.2101 -0.1997 -0.0217
18305THY    CP153691   1.510   3.477   3.971 -0.6574  0.2384  0.0391
18305THY    HP153692   1.479   3.389   4.028 -0.2412  0.4230  0.0124
18305THY    CP253693   1.666   3.497   3.971  0.3945 -0.1137 -0.2602
18305THY    HP253694   1.719   3.429   4.039  1.4417  0.5072  1.1341
18305THY    HP353695   1.687   3.598   4.007  2.0797 -1.5562 -0.0695
18305THY    HP453696   1.707   3.474   3.872 -1.6263 -1.1526  0.4027
18305THY    CP353697   1.457   3.440   3.829  0.5545 -0.5673  0.8754
18305THY    HP553698   1.490   3.523   3.765  0.5366  1.6305  2.6838
18305THY    HP653699   1.348   3.435   3.838  0.6857  0.9070 -0.2765
18305THY    HP753700   1.492   3.343   3.791 -0.6346  2.4065 -0.8525
18305THY    CA353701   1.460   3.721   3.949  0.7324 -0.3504 -0.7059
18305THY    HA353702   1.538   3.725   3.873  0.0029 -1.1711 -1.5785
18305THY    CA453703   1.396   3.842   3.975  0.9274  0.6399  0.8949
18305THY    HA453704   1.422   3.934   3.922  0.0845 -0.8526  0.3043
18305THY    CA553705   1.291   3.840   4.066 -0.1276  0.3535 -0.3476
18305THY    CM153706   1.227   3.968   4.111  0.2830 -1.0552 -0.5052
18305THY    HM153707   1.276   4.062   4.084 -0.4925  1.1363  0.6104
18305THY    HM253708   1.218   3.973   4.220 -2.0518 -1.2501  1.6652
18305THY    HM353709   1.125   3.979   4.071 -0.4959  0.5033 -1.4887
18305THY    CA653710   1.235   3.722   4.112 -0.0863 -1.2027 -0.4132
18305THY    HA653711   1.139   3.737   4.160 -0.1495 -1.6284  0.5694
18306THY      O53712   5.800   2.530   2.778  0.2504 -0.2018 -0.2076
18306THY     HO53713   5.829   2.612   2.821  0.2938  0.3630 -0.5130
18306THY    CA153714   5.856   2.427   2.846  0.1631  0.0687 -0.0621
18306THY    CA253715   5.835   2.291   2.818  0.1981 -0.3424  0.0750
18306THY    CP153716   5.743   2.236   2.707 -0.0861 -0.7478  0.3228
18306THY    HP153717   5.678   2.317   2.671 -0.4598 -2.2930 -0.6108
18306THY    CP253718   5.650   2.123   2.753  0.0874  0.5053 -0.5916
18306THY    HP253719   5.588   2.154   2.839  2.6797  1.3959  2.7360
18306THY    HP353720   5.700   2.028   2.772 -1.3812  0.2932 -1.4441
18306THY    HP453721   5.578   2.104   2.673  0.0481 -0.1293  1.8266
18306THY    CP353722   5.823   2.179   2.585  0.2423  0.0881  0.3960
18306THY    HP553723   5.899   2.252   2.556  0.5477 -2.4244 -0.8039
18306THY    HP653724   5.758   2.160   2.498  1.2308 -0.1531 -2.4481
18306THY    HP753725   5.880   2.086   2.597 -1.8684  0.2891 -0.9437
18306THY    CA353726   5.909   2.195   2.891  0.1709 -0.6729 -0.7240
18306THY    HA353727   5.889   2.088   2.885 -0.6547  0.1641 -0.6321
18306THY    CA453728   5.996   2.234   2.993 -0.0060 -0.1788 -0.5210
18306THY    HA453729   6.034   2.160   3.062 -1.4089  1.8738  0.5721
18306THY    CA553730   6.023   2.372   3.013 -0.4870 -0.3145  0.1413
18306THY    CM153731   6.133   2.412   3.111  0.0904 -0.4669 -0.0329
18306THY    HM153732   6.103   2.366   3.206  0.2727 -1.1317 -1.5853
18306THY    HM253733   6.141   2.521   3.125 -0.8425  1.2431 -0.1402
18306THY    HM353734   6.230   2.375   3.078 -0.0337 -1.8479  0.7962
18306THY    CA653735   5.947   2.466   2.945  1.0473 -0.3905 -0.7035
18306THY    HA653736   5.965   2.573   2.958  2.8428 -1.8694 -0.7739
18307THY      O53737   7.643   3.943   6.530 -0.0551  0.4947 -0.5163
18307THY     HO53738   7.696   3.998   6.590  1.2694 -0.9221 -0.1516
18307THY    CA153739   7.640   3.821   6.592  0.2625  0.2327 -0.7129
18307THY    CA253740   7.584   3.698   6.538 -0.2797  0.1234 -0.2970
18307THY    CP153741   7.517   3.694   6.392 -0.1225 -0.1322  0.3098
18307THY    HP153742   7.506   3.799   6.363 -1.2767 -0.2144  0.1764
18307THY    CP253743   7.373   3.636   6.394  0.3118  0.3131 -0.1859
18307THY    HP253744   7.306   3.696   6.455  0.2055 -1.1580  1.2886
18307THY    HP353745   7.371   3.543   6.452 -4.2209 -2.6228 -2.2717
18307THY    HP453746   7.331   3.607   6.297  2.3208 -0.5540 -0.3679
18307THY    CP353747   7.599   3.624   6.294 -0.0597  1.1040 -0.6135
18307THY    HP553748   7.702   3.659   6.308 -0.4554  1.4843  0.4550
18307THY    HP653749   7.559   3.627   6.192  0.2255  0.9670 -1.2505
18307THY    HP753750   7.611   3.518   6.320  1.5641  0.0281 -0.7178
18307THY    CA353751   7.587   3.583   6.617  0.9370 -0.1442 -0.5665
18307THY    HA353752   7.550   3.491   6.573  0.0174  0.5377 -0.5309
18307THY    CA453753   7.646   3.588   6.745  0.7913  0.0577 -0.2171
18307THY    HA453754   7.643   3.504   6.814  0.3592 -1.2943 -1.3356
18307THY    CA553755   7.698   3.708   6.796 -0.7882 -0.3689 -0.0193
18307THY    CM153756   7.762   3.713   6.930 -0.3034 -0.7949 -0.5128
18307THY    HM153757   7.829   3.629   6.951  2.5050  1.7417  2.0558
18307THY    HM253758   7.687   3.698   7.009  1.7910  1.5429  0.4051
18307THY    HM353759   7.812   3.810   6.946 -0.6546  0.0171 -0.4562
18307THY    CA653760   7.709   3.820   6.717 -0.1156 -0.4633  0.6378
18307THY    HA653761   7.756   3.908   6.761  1.0874  1.2964 -0.8175
18308THY      O53762   3.039   8.385   4.564 -0.0391 -0.0979 -0.2292
18308THY     HO53763   3.131   8.417   4.571  1.1133 -2.0832 -2.7134
18308THY    CA153764   3.053   8.271   4.495  0.2257  0.5083 -0.1810
18308THY    CA253765   2.949   8.186   4.471  0.4744 -0.2345  0.5439
18308THY    CP153766   2.811   8.217   4.537 -0.1652 -0.8827  0.2169
18308THY    HP153767   2.800   8.321   4.572 -1.5056  0.7368 -0.4204
18308THY    CP253768   2.812   8.141   4.672  0.5043  0.7188  0.4240
18308THY    HP253769   2.806   8.033   4.657 -1.2680  0.5275  0.5108
18308THY    HP353770   2.722   8.164   4.730 -0.5072 -0.5355 -0.2415
18308THY    HP453771   2.900   8.177   4.726  1.6424 -0.1956 -0.9229
18308THY    CP353772   2.689   8.190   4.453 -0.2274  0.3922 -0.6140
18308THY    HP553773   2.590   8.218   4.492 -1.1953 -2.2122 -0.0955
18308THY    HP653774   2.679   8.083   4.434 -1.2862 -1.6385 -0.2173
18308THY    HP753775   2.690   8.238   4.354  0.1776 -0.2859 -1.9750
18308THY    CA353776   2.979   8.063   4.403 -0.9980  0.8238 -0.1223
18308THY    HA353777   2.900   7.990   4.385 -0.2072  1.4598 -1.1593
18308THY    CA453778   3.110   8.035   4.361 -0.3438  0.4545 -0.2635
18308THY    HA453779   3.135   7.947   4.303  0.7362 -0.1589  0.4178
18308THY    CA553780   3.213   8.127   4.375 -0.0248 -1.2240  0.2140
18308THY    CM153781   3.362   8.110   4.330 -0.6818 -0.1809 -0.4068
18308THY    HM153782   3.374   8.133   4.224  1.3094  0.1823  0.4272
18308THY    HM253783   3.380   8.002   4.340  1.0912 -0.4392 -0.1736
18308THY    HM353784   3.442   8.162   4.385  1.3786 -0.3381 -3.1802
18308THY    CA653785   3.181   8.249   4.440  0.4937  0.5432 -0.0558
18308THY    HA653786   3.255   8.329   4.441  0.4202 -1.1737  0.0709
18309THY      O53787   4.632   4.715   2.503  0.5643  0.2239 -0.1591
18309THY     HO53788   4.696   4.700   2.575  1.5074 -0.5438  0.1008
18309THY    CA153789   4.556   4.601   2.480  0.0247  0.1844 -0.5372
18309THY    CA253790   4.420   4.609   2.427 -0.1817  0.3268  0.9869
18309THY    CP153791   4.356   4.757   2.415  0.0623  0.2178  0.2465
18309THY    HP153792   4.433   4.833   2.399 -0.3737 -0.1971  0.6062
18309THY    CP253793   4.294   4.790   2.548  0.3908  0.0256  0.3241
18309THY    HP253794   4.251   4.890   2.531  0.4140  0.1376  0.3534
18309THY    HP353795   4.370   4.775   2.626  1.1130 -0.4394  1.4260
18309THY    HP453796   4.208   4.726   2.568  0.1441 -1.3311  0.1932
18309THY    CP353797   4.259   4.768   2.297  0.2360 -0.6998 -0.1927
18309THY    HP553798   4.174   4.702   2.316  0.0596 -1.7820 -0.2907
18309THY    HP653799   4.317   4.735   2.210  3.0081  0.7790  0.4891
18309THY    HP753800   4.209   4.864   2.277 -0.3152 -0.9175 -0.5184
18309THY    CA353801   4.351   4.484   2.405  0.3187 -0.2885 -0.0445
18309THY    HA353802   4.245   4.490   2.383  0.8651 -2.9671  1.3416
18309THY    CA453803   4.411   4.366   2.441 -0.7507  0.0066  0.3378
18309THY    HA453804   4.354   4.274   2.431 -0.5853  1.0569  0.1127
18309THY    CA553805   4.541   4.358   2.503  0.2082  0.5979  0.3930
18309THY    CM153806   4.605   4.229   2.543  0.3487  0.4579  0.5928
18309THY    HM153807   4.534   4.154   2.579  0.3154  1.3670  1.0564
18309THY    HM253808   4.663   4.221   2.635 -1.7433  1.9545  1.7882
18309THY    HM353809   4.661   4.188   2.458  0.1096 -0.1040  1.3980
18309THY    CA653810   4.613   4.479   2.520  1.5365 -0.5413 -0.0416
18309THY    HA653811   4.710   4.468   2.568  0.7402  1.7389  1.9447
18310THY      O53812   3.303   4.278   3.961 -0.3160 -0.2770 -0.4432
18310THY     HO53813   3.230   4.340   3.980 -0.4161  0.2149 -0.7054
18310THY    CA153814   3.426   4.344   3.979 -0.3220 -1.1504 -0.7396
18310THY    CA253815   3.536   4.281   4.042  0.4669 -0.4366 -0.6382
18310THY    CP153816   3.528   4.141   4.104  0.1324  0.5469 -0.1176
18310THY    HP153817   3.422   4.112   4.097 -0.1784 -1.2072  1.2985
18310THY    CP253818   3.568   4.133   4.251 -1.0833 -0.1089 -0.6345
18310THY    HP253819   3.555   4.033   4.294  0.6757  1.3659 -0.2911
18310THY    HP353820   3.505   4.199   4.311  1.3642  1.6071  0.3036
18310THY    HP453821   3.674   4.152   4.271 -0.2930 -2.5578 -1.9876
18310THY    CP353822   3.595   4.034   4.025  0.4205 -0.7941  0.0683
18310THY    HP553823   3.564   3.934   4.056  0.9811 -0.9837 -0.1705
18310THY    HP653824   3.703   4.040   4.047  0.2756 -0.0071 -0.1495
18310THY    HP753825   3.585   4.067   3.920  2.1069 -1.7123 -2.0744
18310THY    CA353826   3.666   4.346   4.045  2.1250 -0.2598 -0.0134
18310THY    HA353827   3.743   4.294   4.102  1.2942  0.5275 -0.4195
18310THY    CA453828   3.679   4.476   4.003  0.4127  0.1753  0.2157
18310THY    HA453829   3.776   4.525   4.001 -0.4045 -1.4658  1.8853
18310THY    CA553830   3.566   4.543   3.941  0.0731  0.1503 -0.1574
18310THY    CM153831   3.583   4.682   3.876  0.0549 -0.3007 -0.5214
18310THY    HM153832   3.671   4.737   3.912  0.6233  1.4300 -2.4477
18310THY    HM253833   3.496   4.746   3.897  0.5355 -2.3794  0.9314
18310THY    HM353834   3.606   4.671   3.770 -0.1466 -0.2102 -2.0044
18310THY    CA653835   3.442   4.472   3.936 -0.8370 -0.1316  0.1988
18310THY    HA653836   3.360   4.503   3.872 -0.9500 -1.4371 -2.4753
18311THY      O53837   3.928   6.735   5.745  0.3522 -0.0790 -0.4850
18311THY     HO53838   4.013   6.764   5.783  1.0197 -1.8871  0.0693
18311THY    CA153839   3.949   6.740   5.613  0.4237 -0.3688  0.5637
18311THY    CA253840   3.849   6.683   5.527 -1.1481 -0.1660 -0.1127
18311THY    CP153841   3.706   6.650   5.584 -0.1075 -0.6818  0.5319
18311THY    HP153842   3.700   6.661   5.692  1.0059 -0.6872  1.3364
18311THY    CP253843   3.680   6.500   5.567 -0.4821  0.1269 -0.3702
18311THY    HP253844   3.772   6.446   5.593  0.6285 -1.3346  0.7453
18311THY    HP353845   3.655   6.482   5.462  1.7177 -0.6423  0.6753
18311THY    HP453846   3.600   6.451   5.624 -0.5321 -1.0548 -1.7443
18311THY    CP353847   3.598   6.738   5.518 -0.5222 -0.4096 -0.4198
18311THY    HP553848   3.595   6.750   5.409  2.2223 -0.3956  1.1622
18311THY    HP653849   3.604   6.842   5.553 -0.8367  1.5464 -1.0312
18311THY    HP753850   3.496   6.710   5.545 -1.4822 -0.2781  2.8141
18311THY    CA353851   3.885   6.661   5.386  0.4054  0.1446  0.2279
18311THY    HA353852   3.817   6.616   5.314 -1.3335  2.3452 -0.8130
18311THY    CA453853   4.008   6.706   5.343 -0.4502  0.2189  0.2017
18311THY    HA453854   4.038   6.700   5.239  0.6061  0.5101  0.1345
18311THY    CA553855   4.099   6.762   5.432 -0.5193 -0.0653 -0.4267
18311THY    CM153856   4.231   6.809   5.376 -0.5088 -0.3658  0.2378
18311THY    HM153857   4.304   6.777   5.451 -0.2701 -0.8905 -0.4687
18311THY    HM253858   4.236   6.917   5.358  0.6482  0.6619  0.3801
18311THY    HM353859   4.266   6.760   5.285  0.3204 -0.1521  0.4268
18311THY    CA653860   4.071   6.778   5.566 -0.0979 -0.3552  0.3218
18311THY    HA653861   4.141   6.804   5.645 -1.3638  0.7009  0.6515
18312THY      O53862   3.903   6.214   3.586  0.6049 -0.2446  0.0413
18312THY     HO53863   3.885   6.122   3.612  0.5249 -2.0455 -0.4932
18312THY    CA153864   4.012   6.207   3.499  0.9637  0.0310 -0.3870
18312THY    CA253865   4.082   6.322   3.453 -0.1573 -0.1695  0.5954
18312THY    CP153866   4.034   6.458   3.473 -0.8969 -0.3174 -1.0596
18312THY    HP153867   3.960   6.466   3.554  0.8544  1.5909 -2.9176
18312THY    CP253868   3.971   6.515   3.342 -0.0411 -0.3104  0.1551
18312THY    HP253869   3.928   6.615   3.357  0.4525  1.9144  0.0828
18312THY    HP353870   3.894   6.440   3.317  0.5710  0.9698 -0.9398
18312THY    HP453871   4.047   6.511   3.263 -0.5185 -0.7933  0.4929
18312THY    CP353872   4.146   6.546   3.513 -0.7107  0.9107 -0.0087
18312THY    HP553873   4.195   6.509   3.604 -1.3548  0.7530 -1.2862
18312THY    HP653874   4.097   6.637   3.550 -1.9758  0.7506 -0.6133
18312THY    HP753875   4.217   6.580   3.437 -0.7464  0.9869  0.2390
18312THY    CA353876   4.200   6.303   3.367  0.4405 -0.0289 -0.6882
18312THY    HA353877   4.251   6.389   3.326  0.1441 -0.6549 -0.8099
18312THY    CA453878   4.235   6.168   3.332  0.0399 -0.3009 -0.1814
18312THY    HA453879   4.329   6.157   3.279  0.9239  1.2592 -0.5409
18312THY    CA553880   4.163   6.063   3.373  0.5477 -0.1374 -0.1185
18312THY    CM153881   4.210   5.926   3.350  0.1530 -0.5223  0.9031
18312THY    HM153882   4.131   5.871   3.298 -2.1381  0.6374  2.9138
18312THY    HM253883   4.233   5.871   3.441 -1.0359 -0.7537 -0.0275
18312THY    HM353884   4.287   5.911   3.273 -1.3497 -1.8860 -0.1540
18312THY    CA653885   4.053   6.082   3.463 -0.6416  0.5394 -0.2860
18312THY    HA653886   4.005   5.993   3.502 -2.6527  2.1598  1.4045
18313THY      O53887   3.498   3.319   4.268 -0.0404 -0.6910 -0.0659
18313THY     HO53888   3.426   3.256   4.284 -0.1412  0.6687  0.3614
18313THY    CA153889   3.573   3.255   4.187  0.2891 -0.0956  0.8134
18313THY    CA253890   3.706   3.296   4.166 -0.5325  0.9418 -0.1548
18313THY    CP153891   3.759   3.418   4.240  0.3851  0.6164 -0.4204
18313THY    HP153892   3.671   3.474   4.274 -0.4541  0.3781 -1.5569
18313THY    CP253893   3.830   3.511   4.150 -0.9406  0.1468  0.7055
18313THY    HP253894   3.759   3.525   4.068 -2.0614  0.6279 -1.6219
18313THY    HP353895   3.922   3.465   4.112 -1.6418 -0.5583 -0.1446
18313THY    HP453896   3.848   3.608   4.198  0.0155 -1.1980  1.2252
18313THY    CP353897   3.842   3.380   4.367  0.1378 -0.1074  0.6537
18313THY    HP553898   3.906   3.463   4.398  0.9624 -0.6996  0.2547
18313THY    HP653899   3.916   3.306   4.334 -0.1247  0.3265  0.1985
18313THY    HP753900   3.790   3.334   4.452  0.1970  0.7799  2.1857
18313THY    CA353901   3.784   3.216   4.085 -0.4218  0.5659  0.7390
18313THY    HA353902   3.889   3.237   4.071 -0.1529 -0.8654 -1.2416
18313THY    CA453903   3.731   3.104   4.025 -0.5377  0.1218  0.7431
18313THY    HA453904   3.792   3.044   3.959 -3.6352 -1.9093 -0.3621
18313THY    CA553905   3.598   3.071   4.042 -0.7026 -0.2652 -0.2489
18313THY    CM153906   3.543   2.947   3.977  0.0365 -1.1572 -0.2528
18313THY    HM153907   3.455   2.976   3.918 -1.8067  2.2671  1.7404
18313THY    HM253908   3.490   2.871   4.037  0.8192 -1.1240 -0.7832
18313THY    HM353909   3.607   2.893   3.906 -0.1314 -1.3104 -0.2514
18313THY    CA653910   3.519   3.147   4.124  0.2734  0.3985  0.5086
18313THY    HA653911   3.414   3.120   4.130  0.1036 -0.2418  1.0031
18314THY      O53912   3.800   3.540   3.457  0.2380  0.0762  0.7164
18314THY     HO53913   3.818   3.494   3.373  0.5982 -0.4598  1.7987
18314THY    CA153914   3.891   3.641   3.454  0.6633 -0.0161 -0.8657
18314THY    CA253915   3.942   3.695   3.570  0.3023  0.4233 -0.6785
18314THY    CP153916   3.892   3.646   3.713  0.0896  0.6932  0.1335
18314THY    HP153917   3.804   3.580   3.709  0.0095  2.0317  0.1209
18314THY    CP253918   3.841   3.754   3.798  0.4073 -0.8234 -0.1361
18314THY    HP253919   3.765   3.816   3.747  1.0799 -2.5256 -0.6706
18314THY    HP353920   3.917   3.823   3.838 -1.4833 -1.1356  2.2974
18314THY    HP453921   3.784   3.717   3.884  0.0043 -0.9980  0.0685
18314THY    CP353922   3.996   3.570   3.793  0.5638  0.0534 -0.5792
18314THY    HP553923   4.032   3.485   3.734 -1.9468  0.8494 -2.2963
18314THY    HP653924   3.956   3.557   3.894  0.6601  0.1845  0.1222
18314THY    HP753925   4.085   3.630   3.817 -0.0544  1.9668 -0.3634
18314THY    CA353926   4.030   3.806   3.562 -0.3620  0.2930  0.5951
18314THY    HA353927   4.068   3.852   3.653 -1.1327  0.6801  0.4742
18314THY    CA453928   4.061   3.858   3.437 -0.3232 -0.0213 -0.8005
18314THY    HA453929   4.124   3.946   3.424 -1.1944 -0.9739 -0.3035
18314THY    CA553930   4.009   3.806   3.326  0.0116 -0.1304 -0.7610
18314THY    CM153931   4.018   3.872   3.192 -0.0733  0.2915  0.4686
18314THY    HM153932   3.978   3.808   3.113 -0.3124  0.5104  0.3485
18314THY    HM253933   4.116   3.915   3.169  0.5807  0.5327 -0.8484
18314THY    HM353934   3.942   3.951   3.179 -0.8332 -2.0596 -0.5539
18314THY    CA653935   3.930   3.695   3.336  0.1329  0.0251  0.4717
18314THY    HA653936   3.886   3.657   3.244  1.3054  0.1237 -1.2307
18315THY      O53937   0.627   6.635   3.462  0.2708 -0.1373 -0.2808
18315THY     HO53938   0.698   6.590   3.511  2.2525 -2.7623 -0.2686
18315THY    CA153939   0.689   6.677   3.351 -0.1210  0.8085 -0.4487
18315THY    CA253940   0.631   6.774   3.257  1.0155 -0.0362  0.0920
18315THY    CP153941   0.488   6.828   3.289 -0.1484  0.4005  0.0597
18315THY    HP153942   0.418   6.745   3.307 -1.9676 -2.6152  0.7569
18315THY    CP253943   0.417   6.888   3.173 -0.5485 -0.4849  0.4707
18315THY    HP253944   0.473   6.967   3.122 -1.0829  1.5999  2.2739
18315THY    HP353945   0.316   6.923   3.198 -0.1906 -0.4879  1.5366
18315THY    HP453946   0.404   6.806   3.100  1.0059  0.2621 -0.4964
18315THY    CP353947   0.481   6.921   3.405 -0.2222 -0.4546  0.0499
18315THY    HP553948   0.557   6.919   3.484 -1.3538  0.6619 -1.4882
18315THY    HP653949   0.379   6.908   3.444  0.7527  2.1304 -0.3935
18315THY    HP753950   0.476   7.024   3.369 -4.1374  1.2514  0.6260
18315THY    CA353951   0.709   6.820   3.146  0.1544  0.3298 -0.0443
18315THY    HA353952   0.673   6.899   3.080 -0.3841  2.0013  1.1675
18315THY    CA453953   0.836   6.771   3.139 -0.4871  0.6471 -0.2365
18315THY    HA453954   0.895   6.808   3.056  1.2446  1.5817 -0.8068
18315THY    CA553955   0.895   6.684   3.230 -0.1553 -1.0071  0.2100
18315THY    CM153956   1.036   6.639   3.215 -0.5648  0.3900 -0.5210
18315THY    HM153957   1.066   6.661   3.112  1.9834  1.3404  0.8362
18315THY    HM253958   1.048   6.530   3.229 -1.8006 -0.5857 -0.8085
18315THY    HM353959   1.107   6.683   3.286 -0.2074  0.9636 -1.9543
18315THY    CA653960   0.820   6.642   3.335  0.5452 -0.2453  0.3596
18315THY    HA653961   0.865   6.569   3.403 -3.3915  0.1075 -2.0710
18316THY      O53962   2.408   5.900   4.604  0.2750 -0.0946 -0.2509
18316THY     HO53963   2.353   5.837   4.654  0.4053  0.9056  0.4070
18316THY    CA153964   2.525   5.832   4.590 -0.0189 -0.0757 -0.5975
18316THY    CA253965   2.654   5.886   4.568 -0.0840 -0.5680  0.5988
18316THY    CP153966   2.665   6.043   4.560 -0.0579 -0.2367 -0.7074
18316THY    HP153967   2.570   6.098   4.561  0.0884 -2.5460 -0.2888
18316THY    CP253968   2.751   6.090   4.438 -0.2377 -0.1078  0.5951
18316THY    HP253969   2.736   6.012   4.363  0.4172  1.0751 -0.6980
18316THY    HP353970   2.857   6.092   4.466  0.1295 -0.9825 -2.2401
18316THY    HP453971   2.726   6.192   4.407  1.4957  0.2015  1.1497
18316THY    CP353972   2.725   6.090   4.694 -0.4309  0.1946 -0.5467
18316THY    HP553973   2.832   6.069   4.684 -0.7859  0.0552 -2.5330
18316THY    HP653974   2.677   6.026   4.769  2.2308  0.9516 -1.7716
18316THY    HP753975   2.695   6.192   4.721  0.6459  0.9590 -0.4256
18316THY    CA353976   2.764   5.799   4.554 -0.7767 -0.1614 -0.0237
18316THY    HA353977   2.863   5.835   4.530 -0.9158 -1.4312 -0.4130
18316THY    CA453978   2.749   5.657   4.549  0.4165 -0.7171  0.4809
18316THY    HA453979   2.834   5.593   4.530 -0.3296  0.3949 -0.8774
18316THY    CA553980   2.618   5.600   4.567 -0.0966 -0.0509  0.0797
18316THY    CM153981   2.588   5.455   4.585  0.3380  0.1492 -0.5243
18316THY    HM153982   2.623   5.400   4.497  0.4284  0.9553 -1.7861
18316THY    HM253983   2.482   5.431   4.599  0.0961  1.3758  1.0618
18316THY    HM353984   2.647   5.430   4.674  0.5913  0.5271  1.2721
18316THY    CA653985   2.510   5.692   4.588  0.2269  0.1312  0.5094
18316THY    HA653986   2.411   5.652   4.605 -0.4239  0.5701  2.1956
18317THY      O53987   9.124   5.502   5.717 -0.0530 -0.0365  0.0450
18317THY     HO53988   9.066   5.446   5.662 -0.1118 -0.1555  0.2240
18317THY    CA153989   9.092   5.625   5.676 -0.3457  0.0243  0.2516
18317THY    CA253990   9.137   5.741   5.749 -0.8778  0.3974 -0.1704
18317THY    CP153991   9.224   5.732   5.865 -0.4857  0.3278 -0.0538
18317THY    HP153992   9.290   5.645   5.858  0.2458  1.8686  0.3349
18317THY    CP253993   9.125   5.720   5.988 -0.2623  0.4398 -0.3797
18317THY    HP253994   9.064   5.629   5.985 -0.1977  0.8308 -0.4375
18317THY    HP353995   9.046   5.796   5.989 -0.7567  1.2419 -0.8951
18317THY    HP453996   9.172   5.724   6.087 -2.9058  1.7156  2.0429
18317THY    CP353997   9.331   5.845   5.883 -0.5840  0.6228 -0.7668
18317THY    HP553998   9.279   5.942   5.882 -2.7159 -0.2864 -1.8718
18317THY    HP653999   9.397   5.850   5.795 -0.1291  0.7644 -3.3029
18317THY    HP754000   9.381   5.835   5.980  0.7234  0.3245  1.8069
18317THY    CA354001   9.092   5.864   5.704  0.2466 -0.1717  0.4409
18317THY    HA354002   9.116   5.956   5.757  2.7356 -0.6297  0.1064
18317THY    CA454003   9.002   5.866   5.594  0.2603 -0.0171  0.9407
18317THY    HA454004   8.973   5.962   5.551 -1.7041 -0.7102  0.0979
18317THY    CA554005   8.966   5.753   5.525 -0.6369  0.1861 -0.2615
18317THY    CM154006   8.865   5.756   5.420  0.3312  0.2200  0.4981
18317THY    HM154007   8.883   5.674   5.349 -0.8768 -3.2013  2.9638
18317THY    HM254008   8.870   5.849   5.362  0.1098  1.4660  1.3122
18317THY    HM354009   8.764   5.737   5.457  0.2322 -0.5743 -0.6451
18317THY    CA654010   9.005   5.630   5.568  0.1656 -0.3041  0.8129
18317THY    HA654011   8.966   5.541   5.520  1.9052  2.0323 -1.3714
18318THY      O54012   2.059   6.362   2.375 -0.1903  0.0359 -0.1802
18318THY     HO54013   1.991   6.404   2.320 -0.5103 -1.3149 -2.2983
18318THY    CA154014   2.144   6.286   2.296 -0.6386 -0.3727 -0.5815
18318THY    CA254015   2.225   6.190   2.359  0.0609  0.3341  0.2371
18318THY    CP154016   2.216   6.156   2.509  0.0458  0.4156 -0.0171
18318THY    HP154017   2.142   6.222   2.556  1.4610  2.2621  0.3377
18318THY    CP254018   2.341   6.190   2.593 -0.0402  0.2634  0.1568
18318THY    HP254019   2.315   6.183   2.699 -0.5769  0.4183  3.1862
18318THY    HP354020   2.379   6.289   2.565  0.1056  0.5799  0.1919
18318THY    HP454021   2.417   6.115   2.568 -1.0551 -0.1575 -0.7563
18318THY    CP354022   2.175   6.005   2.520  0.3678 -0.3778 -0.2180
18318THY    HP554023   2.168   5.983   2.627  1.5048  0.1515  1.7358
18318THY    HP654024   2.250   5.932   2.486 -0.0189  1.1409 -1.3672
18318THY    HP754025   2.084   5.994   2.460 -0.4092  0.4214  1.5686
18318THY    CA354026   2.326   6.127   2.282 -0.5058  0.3520 -1.0548
18318THY    HA354027   2.397   6.062   2.332  1.8756 -0.4407  0.7806
18318THY    CA454028   2.341   6.169   2.149 -0.1397  0.0514  0.5321
18318THY    HA454029   2.413   6.125   2.079 -2.1094 -2.4198  1.0195
18318THY    CA554030   2.259   6.266   2.088  0.8601 -0.2653  0.4765
18318THY    CM154031   2.276   6.309   1.947 -0.0899 -0.5737 -0.1041
18318THY    HM154032   2.177   6.311   1.900 -0.0498 -0.6436  0.3927
18318THY    HM254033   2.345   6.234   1.907 -1.9892 -0.8939 -1.7659
18318THY    HM354034   2.315   6.412   1.944 -0.5853 -0.8989  0.0808
18318THY    CA654035   2.153   6.319   2.162 -0.2466  0.0127 -0.1793
18318THY    HA654036   2.093   6.396   2.115 -1.1312 -1.2671 -1.6008
18319THY      O54037   8.064   3.189   4.078  0.4588  0.4928 -0.3277
18319THY     HO54038   8.010   3.119   4.118 -1.7938  2.1533  2.1253
18319THY    CA154039   8.000   3.311   4.104 -0.0405  0.1437  1.1865
18319THY    CA254040   8.029   3.431   4.040  0.2957  0.0034 -0.0926
18319THY    CP154041   8.139   3.443   3.940 -0.8084 -0.3366  0.4237
18319THY    HP154042   8.181   3.343   3.921 -0.1861  1.1424  0.3791
18319THY    CP254043   8.254   3.536   3.991 -0.4267  0.2620 -0.7733
18319THY    HP254044   8.276   3.506   4.094  0.0641  0.5248  0.3986
18319THY    HP354045   8.214   3.639   3.996  0.6670  0.8093 -0.3600
18319THY    HP454046   8.349   3.515   3.942  0.1226  1.5385 -1.3333
18319THY    CP354047   8.099   3.489   3.802  0.4360 -0.1464  0.5029
18319THY    HP554048   8.072   3.596   3.806  4.0951  1.3376  1.5274
18319THY    HP654049   8.015   3.429   3.765  1.6288 -0.1963 -1.2006
18319THY    HP754050   8.180   3.477   3.729  0.1999 -0.3548  0.1822
18319THY    CA354051   7.959   3.544   4.080  0.0994 -1.2546 -1.0435
18319THY    HA354052   7.992   3.642   4.048  0.6598  0.6180 -0.5784
18319THY    CA454053   7.853   3.532   4.171  0.2153  0.5849  0.0862
18319THY    HA454054   7.798   3.620   4.202 -1.4835 -0.3837 -0.6004
18319THY    CA554055   7.824   3.411   4.236 -0.5076  0.6306 -0.3147
18319THY    CM154056   7.721   3.402   4.346 -0.1322  0.2200  0.0808
18319THY    HM154057   7.627   3.396   4.290  0.1356 -0.5237  2.0394
18319THY    HM254058   7.720   3.493   4.407 -0.0933  1.7446 -0.9056
18319THY    HM354059   7.738   3.308   4.401 -0.7231 -3.9813 -2.7665
18319THY    CA654060   7.899   3.303   4.200 -0.1036  0.3745 -0.5837
18319THY    HA654061   7.878   3.209   4.251 -0.0060  1.0963 -0.2200
18320THY      O54062   4.875   2.592   7.504  0.2753 -0.0226 -0.3913
18320THY     HO54063   4.921   2.674   7.481  0.7672  2.9875  0.3123
18320THY    CA154064   4.941   2.551   7.617 -0.0409  0.5927 -0.5071
18320THY    CA254065   4.879   2.466   7.712 -0.9289  0.1958 -0.1149
18320THY    CP154066   4.730   2.444   7.703  0.8234 -0.0379  0.7048
18320THY    HP154067   4.689   2.467   7.604  0.1993 -0.1008 -0.5902
18320THY    CP254068   4.662   2.547   7.802  0.0427  0.2462  0.3241
18320THY    HP254069   4.684   2.520   7.906  0.8739 -0.4108 -1.7319
18320THY    HP354070   4.554   2.540   7.790 -0.0869  2.0002 -2.3153
18320THY    HP454071   4.679   2.652   7.779  2.5183 -1.1374 -0.2829
18320THY    CP354072   4.686   2.300   7.743 -0.0030  0.2526  0.1328
18320THY    HP554073   4.707   2.276   7.848  2.9107  0.0621  1.4301
18320THY    HP654074   4.735   2.224   7.681 -0.3768 -0.7975  0.7273
18320THY    HP754075   4.576   2.304   7.737 -0.0003  0.7632  1.3183
18320THY    CA354076   4.966   2.413   7.812 -0.5564  0.3102 -0.4030
18320THY    HA354077   4.932   2.344   7.888 -1.7092  1.0999  0.9694
18320THY    CA454078   5.100   2.456   7.825  0.5768  0.0961  0.2541
18320THY    HA454079   5.159   2.408   7.902 -0.2890  0.7414  0.1919
18320THY    CA554080   5.152   2.549   7.735 -0.9857 -0.2304 -0.2613
18320THY    CM154081   5.290   2.594   7.750 -0.0825 -0.2194 -0.3330
18320THY    HM154082   5.307   2.696   7.714 -1.7831  3.5850  1.4863
18320THY    HM254083   5.364   2.528   7.702  2.1059 -1.1550  2.5838
18320THY    HM354084   5.305   2.599   7.859 -0.5081 -0.0277 -2.3599
18320THY    CA654085   5.073   2.594   7.631 -0.3542 -0.3584 -0.6537
18320THY    HA654086   5.106   2.671   7.562 -1.4265  1.3551  1.4597
18321THY      O54087   1.003   2.094   5.101 -0.0283  0.0496 -0.5231
18321THY     HO54088   1.024   2.019   5.043  0.1905 -0.5565 -0.0076
18321THY    CA154089   0.916   2.061   5.192  0.6864  0.0049  0.0862
18321THY    CA254090   0.912   2.132   5.314 -0.0017 -0.1338  0.1971
18321THY    CP154091   1.014   2.238   5.356  0.3051 -0.9955 -0.1572
18321THY    HP154092   1.061   2.269   5.262  0.0653 -1.4698 -1.1802
18321THY    CP254093   1.116   2.167   5.443 -0.6722  0.3914  0.2605
18321THY    HP254094   1.147   2.081   5.383 -2.6379 -0.9218  0.4087
18321THY    HP354095   1.091   2.123   5.541  3.3032  0.2814 -2.8558
18321THY    HP454096   1.207   2.226   5.456 -0.8805  1.9615  0.2714
18321THY    CP354097   0.947   2.356   5.420  0.5797 -0.6495 -0.0572
18321THY    HP554098   1.019   2.431   5.454 -1.4245  1.6267  0.9636
18321THY    HP654099   0.894   2.332   5.513  1.5666  1.0271  3.6285
18321THY    HP754100   0.874   2.400   5.351  1.3645 -1.7092 -0.3842
18321THY    CA354101   0.820   2.087   5.416 -0.0944  0.8609 -0.1970
18321THY    HA354102   0.830   2.119   5.520  1.3762  0.4721  0.7313
18321THY    CA454103   0.717   2.006   5.372  0.5985  0.6080  0.3061
18321THY    HA454104   0.635   1.981   5.439 -0.9065 -0.4788  2.0710
18321THY    CA554105   0.724   1.937   5.249  0.3233 -0.0845 -0.0251
18321THY    CM154106   0.622   1.835   5.204 -0.2772  0.3208  0.0133
18321THY    HM154107   0.523   1.881   5.216  0.7168  0.9956  2.0955
18321THY    HM254108   0.618   1.742   5.262 -0.6629 -0.4763 -0.4815
18321THY    HM354109   0.631   1.807   5.099 -0.4623  0.6964 -1.5771
18321THY    CA654110   0.821   1.968   5.158 -0.1873 -0.5066  0.3375
18321THY    HA654111   0.820   1.922   5.060 -1.9460 -0.1753 -0.3748
18322THY      O54112   5.610   3.908   3.780 -0.4615  0.4429 -0.3303
18322THY     HO54113   5.587   3.845   3.850  0.3443  0.5235 -0.5435
18322THY    CA154114   5.571   3.848   3.672 -1.4089  0.6722  0.3492
18322THY    CA254115   5.606   3.892   3.545 -0.3567  0.4417 -0.3615
18322THY    CP154116   5.703   4.014   3.525  0.4979  0.7093  1.2819
18322THY    HP154117   5.722   4.064   3.621  0.7216  0.2606  2.0805
18322THY    CP254118   5.641   4.137   3.443  0.7198  0.3351 -0.6331
18322THY    HP254119   5.535   4.150   3.467  0.7829  0.0736  0.4726
18322THY    HP354120   5.658   4.110   3.339  0.3123  0.4423 -1.3314
18322THY    HP454121   5.698   4.228   3.466 -1.2182  0.3720  0.6233
18322THY    CP354122   5.835   3.981   3.452  0.2059  0.3412 -0.5445
18322THY    HP554123   5.813   3.930   3.358  0.6947  1.4515 -2.9178
18322THY    HP654124   5.896   3.926   3.525  1.0980  0.7762  0.9503
18322THY    HP754125   5.897   4.070   3.432 -1.2134 -1.5150  0.0789
18322THY    CA354126   5.548   3.823   3.437 -0.3163 -1.0042 -0.4058
18322THY    HA354127   5.561   3.869   3.340 -0.1458 -0.0832  1.5939
18322THY    CA454128   5.470   3.712   3.454  0.3237 -0.0216  0.2984
18322THY    HA454129   5.441   3.659   3.364 -1.1998 -0.6522  2.0806
18322THY    CA554130   5.439   3.662   3.576 -0.6436 -0.0125 -0.1178
18322THY    CM154131   5.354   3.538   3.591 -0.2686 -0.4981  0.1257
18322THY    HM154132   5.409   3.457   3.543 -0.9400 -1.4415  0.2101
18322THY    HM254133   5.253   3.542   3.548  0.1686 -1.4698  1.5976
18322THY    HM354134   5.343   3.517   3.698  1.9139 -0.1376  0.5829
18322THY    CA654135   5.491   3.732   3.686  0.0166  0.4514 -0.1861
18322THY    HA654136   5.467   3.696   3.786  0.4373 -0.4164 -3.1119
18323THY      O54137   0.682   1.227   7.789 -0.4746  0.2097  0.0659
18323THY     HO54138   0.608   1.165   7.800 -0.0607  2.1049 -0.1405
18323THY    CA154139   0.667   1.284   7.668 -0.0419  0.2178 -0.5524
18323THY    CA254140   0.742   1.404   7.635 -0.7710 -0.0798  0.6342
18323THY    CP154141   0.827   1.484   7.740 -0.1774  0.5625 -0.4258
18323THY    HP154142   0.834   1.434   7.837  0.0318  1.3712  1.1347
18323THY    CP254143   0.770   1.625   7.753 -0.4721 -0.8082  0.6301
18323THY    HP254144   0.838   1.683   7.817 -0.3756  0.0445 -0.3965
18323THY    HP354145   0.671   1.620   7.799 -0.4965 -0.9988 -1.2231
18323THY    HP454146   0.753   1.680   7.660 -0.2915  0.0745  2.2666
18323THY    CP354147   0.972   1.508   7.683  0.6142  0.3029  0.5664
18323THY    HP554148   1.027   1.413   7.680 -0.5614  3.4844 -0.3211
18323THY    HP654149   1.026   1.567   7.759  0.0774  1.4229 -0.3522
18323THY    HP754150   0.966   1.561   7.587  0.5839 -1.2444 -2.0987
18323THY    CA354151   0.713   1.463   7.508  0.3248 -0.2030 -0.1405
18323THY    HA354152   0.766   1.552   7.474  1.4754 -1.1240 -1.1457
18323THY    CA454153   0.618   1.397   7.422 -0.2064  0.0655 -0.1547
18323THY    HA454154   0.594   1.441   7.326 -0.7647 -0.6044 -1.8462
18323THY    CA554155   0.558   1.281   7.457 -0.2344  0.0265 -0.3247
18323THY    CM154156   0.457   1.216   7.364 -1.2206  0.1581 -0.3127
18323THY    HM154157   0.481   1.226   7.258 -0.8802  0.3742  1.6222
18323THY    HM254158   0.359   1.263   7.380 -0.4102  1.2848  1.0951
18323THY    HM354159   0.433   1.113   7.392  1.5520 -1.7366 -1.5854
18323THY    CA654160   0.577   1.226   7.582 -0.2047 -0.0190 -0.7708
18323THY    HA654161   0.528   1.136   7.617  0.5488  1.3559 -0.6730
18324THY      O54162   2.639   5.338   1.659  0.2298  0.6161  0.1144
18324THY     HO54163   2.608   5.365   1.571  3.6837 -0.3482  1.4887
18324THY    CA154164   2.541   5.302   1.743  0.0658  0.3795  0.5476
18324THY    CA254165   2.574   5.253   1.867  0.6003 -0.0214  0.2886
18324THY    CP154166   2.722   5.241   1.912  0.0693  0.0621  0.0383
18324THY    HP154167   2.803   5.248   1.839  1.0424  0.9955 -1.1136
18324THY    CP254168   2.752   5.109   1.984  0.0887  0.2540 -0.6183
18324THY    HP254169   2.680   5.084   2.063  0.8428  1.4774  0.8791
18324THY    HP354170   2.853   5.100   2.025 -0.0131  0.0799 -3.0753
18324THY    HP454171   2.757   5.033   1.905 -0.1990  0.0656 -0.4432
18324THY    CP354172   2.750   5.341   2.019  0.4778  0.8026  0.5766
18324THY    HP554173   2.732   5.438   1.971 -1.0945  0.3671  0.1022
18324THY    HP654174   2.858   5.342   2.037  0.9832 -1.9334  1.4077
18324THY    HP754175   2.696   5.318   2.112 -1.3464 -0.7343 -1.8963
18324THY    CA354176   2.471   5.231   1.964  0.3456  0.5710  0.2809
18324THY    HA354177   2.496   5.195   2.063 -0.4616  0.8423  0.4496
18324THY    CA454178   2.340   5.242   1.919 -0.1641 -0.2160  0.5538
18324THY    HA454179   2.259   5.214   1.986  1.1523  1.1166 -0.2329
18324THY    CA554180   2.311   5.283   1.785 -0.6009 -0.6374  0.3322
18324THY    CM154181   2.173   5.286   1.739  0.3805 -0.2555  0.0124
18324THY    HM154182   2.110   5.311   1.825 -0.2085 -0.6871  0.0347
18324THY    HM254183   2.146   5.186   1.703 -0.1428 -0.8919  0.3723
18324THY    HM354184   2.152   5.345   1.649  1.8931  0.2388  1.3559
18324THY    CA654185   2.415   5.308   1.700 -0.4294 -0.4335 -0.3775
18324THY    HA654186   2.398   5.346   1.600  1.0657  0.0341  1.6921
18325THY      O54187   6.149   5.663   7.478  0.5333 -0.4044 -0.0740
18325THY     HO54188   6.209   5.596   7.442 -0.5277  2.0048 -2.4818
18325THY    CA154189   6.101   5.721   7.368  0.3360  0.2749 -0.1060
18325THY    CA254190   5.984   5.803   7.371 -0.1393 -0.2077 -0.6131
18325THY    CP154191   5.910   5.836   7.500 -0.8142 -0.0960  0.0904
18325THY    HP154192   5.969   5.828   7.592  0.8314 -0.8371  2.5281
18325THY    CP254193   5.797   5.732   7.535 -0.3318  0.6565 -0.2611
18325THY    HP254194   5.760   5.754   7.636 -0.3283  0.2186  2.0272
18325THY    HP354195   5.838   5.631   7.528 -0.6914 -2.2886 -0.2876
18325THY    HP454196   5.715   5.742   7.463 -0.2775  0.0360 -3.4938
18325THY    CP354197   5.876   5.993   7.509 -0.0507 -0.0642  0.6341
18325THY    HP554198   5.782   6.012   7.455 -1.1594  2.0104  1.4701
18325THY    HP654199   5.951   6.060   7.468  0.2161 -0.3746  0.1452
18325THY    HP754200   5.857   6.026   7.612 -3.9549 -0.7954  1.2045
18325THY    CA354201   5.951   5.864   7.247  0.6254 -0.3701  0.4211
18325THY    HA354202   5.871   5.937   7.254  0.6442  1.4256  0.3075
18325THY    CA454203   6.023   5.847   7.135  0.1173 -0.5452  0.6073
18325THY    HA454204   5.989   5.900   7.046 -1.3821 -2.2066 -2.8524
18325THY    CA554205   6.150   5.783   7.142  0.1408 -0.0767  0.3663
18325THY    CM154206   6.235   5.774   7.013  0.0917  0.1328  0.1078
18325THY    HM154207   6.338   5.746   7.038 -0.3715  1.0314 -0.8478
18325THY    HM254208   6.238   5.871   6.961 -2.0463  0.6790  0.5229
18325THY    HM354209   6.181   5.704   6.949  0.5320 -2.8631  2.3069
18325THY    CA654210   6.179   5.706   7.255 -0.3251 -0.5706  0.1789
18325THY    HA654211   6.277   5.660   7.263  0.8445  1.0971  2.7199
18326THY      O54212   0.589   8.062   5.832 -0.2663 -0.0018  0.4140
18326THY     HO54213   0.557   8.120   5.761  0.9465 -0.0959  0.9936
18326THY    CA154214   0.547   7.933   5.800  0.2627 -0.2422 -0.6054
18326THY    CA254215   0.618   7.826   5.862  0.5732 -0.4159  0.3306
18326THY    CP154216   0.736   7.858   5.963  0.3881  0.2275  0.2438
18326THY    HP154217   0.762   7.964   5.965 -2.3268  3.0697  0.9989
18326THY    CP254218   0.877   7.776   5.946  0.8349  0.1694 -0.5061
18326THY    HP254219   0.857   7.670   5.968 -1.7686 -0.9029 -0.3342
18326THY    HP354220   0.945   7.827   6.014  0.0670 -1.1871  2.5341
18326THY    HP454221   0.918   7.777   5.844  0.0334 -0.1762 -1.0486
18326THY    CP354222   0.684   7.839   6.107  0.6523  0.4520 -0.1778
18326THY    HP554223   0.661   7.731   6.110 -3.5279 -2.4529  0.3958
18326THY    HP654224   0.586   7.883   6.124  0.5436 -0.5711 -0.0001
18326THY    HP754225   0.756   7.866   6.185 -0.3612  1.2599  0.2616
18326THY    CA354226   0.569   7.693   5.842 -0.2534  0.8948  0.0846
18326THY    HA354227   0.615   7.605   5.886 -0.5437  1.2659  0.1176
18326THY    CA454228   0.461   7.674   5.753  0.1257  0.2193  0.8151
18326THY    HA454229   0.425   7.573   5.734 -0.9756  1.6692  0.9053
18326THY    CA554230   0.403   7.777   5.686  0.3897  0.6752  0.1999
18326THY    CM154231   0.293   7.743   5.585 -0.1607 -0.4502 -0.3931
18326THY    HM154232   0.254   7.828   5.528  0.3610  1.7745  1.4121
18326THY    HM254233   0.211   7.714   5.652  0.1037  0.1139  0.1506
18326THY    HM354234   0.326   7.663   5.518  1.3542  0.1749 -0.3182
18326THY    CA654235   0.444   7.908   5.712  0.2680 -0.1266 -0.3372
18326THY    HA654236   0.391   7.990   5.664  0.2692  0.1927 -0.1511
18327THY      O54237   4.354   5.943   4.156 -0.9140  0.2312  0.3853
18327THY     HO54238   4.431   5.912   4.106 -2.4260 -1.4166 -0.9434
18327THY    CA154239   4.279   6.004   4.068 -0.2983  0.2189  0.2442
18327THY    CA254240   4.151   6.053   4.105 -0.1543 -0.2670  0.3570
18327THY    CP154241   4.103   6.052   4.247 -0.5559  0.1083  0.4280
18327THY    HP154242   4.187   6.061   4.317 -1.8192  1.4619  2.3690
18327THY    CP254243   4.053   5.908   4.274  0.5574  0.2070  0.4960
18327THY    HP254244   4.002   5.900   4.370  1.3902  0.5272 -1.3757
18327THY    HP354245   4.139   5.841   4.282  1.0470 -0.2198  1.0597
18327THY    HP454246   3.989   5.870   4.194  1.7213 -1.1786  1.2946
18327THY    CP354247   3.983   6.147   4.285  0.3972  0.0692  0.2917
18327THY    HP554248   4.000   6.250   4.253 -2.2087 -1.2094  0.3719
18327THY    HP654249   3.967   6.145   4.394  0.4199  0.0942 -2.3449
18327THY    HP754250   3.891   6.104   4.245 -0.0035  1.3525 -0.1066
18327THY    CA354251   4.070   6.099   4.000 -0.2067  0.4218 -0.1984
18327THY    HA354252   3.962   6.110   4.007  0.1041  3.1985  2.3085
18327THY    CA454253   4.127   6.112   3.875  0.3808 -0.4769 -0.4079
18327THY    HA454254   4.075   6.166   3.797  1.6576 -0.2552  1.2506
18327THY    CA554255   4.265   6.090   3.850  0.2401  0.7979  0.2886
18327THY    CM154256   4.332   6.134   3.722 -0.2244 -0.2463  0.3743
18327THY    HM154257   4.321   6.061   3.641  1.0635  1.9417 -2.4232
18327THY    HM254258   4.435   6.160   3.747 -0.9751  1.5469  1.8206
18327THY    HM354259   4.294   6.232   3.688  1.4357 -0.3980  1.0038
18327THY    CA654260   4.335   6.025   3.949  0.4580 -0.6581 -0.0149
18327THY    HA654261   4.440   6.007   3.926  1.2816  0.7122  2.5570
18328THY      O54262   9.350   2.190   4.783 -0.7286  0.3204  0.2565
18328THY     HO54263   9.357   2.121   4.851 -1.5060 -0.6586 -0.8499
18328THY    CA154264   9.271   2.290   4.828 -0.1890 -0.0004 -0.0633
18328THY    CA254265   9.206   2.376   4.736 -0.3280 -0.3283  0.8926
18328THY    CP154266   9.203   2.342   4.592  0.2895 -0.7905  1.0932
18328THY    HP154267   9.198   2.233   4.578 -0.9117  0.3860  0.9693
18328THY    CP254268   9.333   2.373   4.535  0.3518  0.4145 -0.4451
18328THY    HP254269   9.349   2.481   4.550 -0.2594  0.8353 -0.4062
18328THY    HP354270   9.333   2.349   4.428  0.7903  0.0443  1.0894
18328THY    HP454271   9.422   2.320   4.569  2.2492 -1.9318  1.0615
18328THY    CP354272   9.077   2.397   4.521  0.4131  0.1626  0.0442
18328THY    HP554273   9.046   2.335   4.436  0.6506  0.1926 -0.1148
18328THY    HP654274   9.087   2.503   4.495 -0.2986 -2.4061 -0.4654
18328THY    HP754275   8.991   2.387   4.589  1.7217  2.1648  1.5002
18328THY    CA354276   9.130   2.476   4.784  1.0077 -0.2051  0.1953
18328THY    HA354277   9.078   2.549   4.723 -0.5382  2.1816  1.2289
18328THY    CA454278   9.112   2.492   4.928 -0.4986 -0.5063  0.2665
18328THY    HA454279   9.055   2.572   4.975 -0.3601  0.3096 -0.0958
18328THY    CA554280   9.183   2.417   5.020 -0.1064  0.6071  1.0656
18328THY    CM154281   9.185   2.446   5.164  0.1975  0.6651 -0.4617
18328THY    HM154282   9.255   2.381   5.219 -0.1639 -0.1126 -1.5324
18328THY    HM254283   9.085   2.436   5.207  0.1622  0.6471 -0.1916
18328THY    HM354284   9.216   2.549   5.188  1.3392  0.1226 -0.6648
18328THY    CA654285   9.264   2.318   4.968  0.9824 -0.3306 -0.5663
18328THY    HA654286   9.322   2.251   5.031 -1.2913 -0.1416 -2.5014
18329THY      O54287   4.872   3.483   4.014 -0.2555  0.1886 -0.2007
18329THY     HO54288   4.852   3.567   4.059  0.8137 -0.9413  0.7039
18329THY    CA154289   4.875   3.375   4.096  0.1843  0.2531 -0.8776
18329THY    CA254290   4.860   3.245   4.049 -0.0271 -0.0765 -0.3674
18329THY    CP154291   4.874   3.221   3.902  0.2659  0.6877  0.1366
18329THY    HP154292   4.892   3.311   3.842  2.7774  1.7578  0.4343
18329THY    CP254293   4.747   3.162   3.844 -0.2609  0.1806 -0.1263
18329THY    HP254294   4.734   3.057   3.874 -0.5168  0.0466 -0.1342
18329THY    HP354295   4.757   3.160   3.735 -0.0916  0.1777  0.6607
18329THY    HP454296   4.652   3.209   3.873 -0.0336  0.0405  0.4149
18329THY    CP354297   4.993   3.125   3.870 -0.6695 -0.2678 -0.8136
18329THY    HP554298   5.005   3.110   3.762 -0.1275 -0.3304 -0.0274
18329THY    HP654299   4.972   3.023   3.904  1.2257 -1.6050 -1.7232
18329THY    HP754300   5.087   3.156   3.918  0.1221 -1.6232 -1.0283
18329THY    CA354301   4.839   3.144   4.143  0.2795  0.1854  0.5500
18329THY    HA354302   4.821   3.041   4.113  0.0481  2.5324 -0.1492
18329THY    CA454303   4.844   3.169   4.281  0.0527  0.0923 -0.6448
18329THY    HA454304   4.822   3.095   4.357  1.4446  0.0717 -1.1113
18329THY    CA554305   4.875   3.299   4.329 -0.0454  0.2054  0.6118
18329THY    CM154306   4.875   3.327   4.478 -0.0243 -0.4921  0.2142
18329THY    HM154307   4.961   3.385   4.513  1.1550 -0.5817 -1.3918
18329THY    HM254308   4.881   3.236   4.540  2.2812  0.9628  1.2560
18329THY    HM354309   4.789   3.382   4.516  1.5625  2.3347  0.9718
18329THY    CA654310   4.888   3.402   4.234  0.7020 -0.2476 -0.2986
18329THY    HA654311   4.905   3.506   4.258  1.0418 -1.7280  0.0080
18330THY      O54312   7.194   3.830   4.032  0.1120 -0.4299  0.1094
18330THY     HO54313   7.192   3.896   4.104  1.9216 -0.2919  0.0706
18330THY    CA154314   7.212   3.899   3.919 -0.4281  0.4262 -0.4670
18330THY    CA254315   7.239   3.834   3.801  0.1222 -0.5692 -0.2467
18330THY    CP154316   7.236   3.681   3.793 -0.0302 -0.0037  0.1158
18330THY    HP154317   7.260   3.637   3.891 -2.0479  0.7084  0.5039
18330THY    CP254318   7.338   3.630   3.688  0.4680 -0.2845 -0.1265
18330THY    HP254319   7.431   3.688   3.681 -0.6017  1.4794  1.9851
18330THY    HP354320   7.288   3.633   3.590  0.8653 -0.4640  2.0854
18330THY    HP454321   7.354   3.524   3.712 -0.9470  1.4579  0.0126
18330THY    CP354322   7.087   3.644   3.764  0.7108 -0.6173  0.2926
18330THY    HP554323   7.069   3.666   3.659  2.0759 -0.9305  0.0057
18330THY    HP654324   7.008   3.696   3.820  0.8072  0.4803 -0.6877
18330THY    HP754325   7.067   3.538   3.782 -2.4984  1.7045  1.1284
18330THY    CA354326   7.263   3.912   3.686  0.7874  0.2211  0.2861
18330THY    HA354327   7.272   3.863   3.589 -2.3833  0.0100 -0.0911
18330THY    CA454328   7.273   4.050   3.691 -1.1389  0.5838  0.5403
18330THY    HA454329   7.303   4.111   3.606  0.2983  1.0396  0.5125
18330THY    CA554330   7.260   4.116   3.811  0.4331 -0.1330  0.3014
18330THY    CM154331   7.276   4.267   3.827 -0.0902  0.7809 -0.3005
18330THY    HM154332   7.240   4.292   3.927  1.7418  1.2739  0.5846
18330THY    HM254333   7.224   4.318   3.745 -1.8974  0.2874 -2.7768
18330THY    HM354334   7.384   4.288   3.825 -0.0247 -0.2300 -0.7184
18330THY    CA654335   7.238   4.037   3.928  0.9720  0.0734  0.1445
18330THY    HA654336   7.240   4.086   4.025 -0.6877 -0.3751  1.1756
18331THY      O54337   2.429   1.674   5.645  0.1380 -0.3069  0.2424
18331THY     HO54338   2.357   1.695   5.583 -0.0856 -0.0329  0.2914
18331THY    CA154339   2.522   1.766   5.652  0.8124  0.3567  0.5855
18331THY    CA254340   2.619   1.764   5.764  0.4662 -0.3344 -0.1722
18331THY    CP154341   2.631   1.659   5.871 -0.0999  0.1369  0.4507
18331THY    HP154342   2.558   1.580   5.851  1.5943 -0.4647 -1.0153
18331THY    CP254343   2.604   1.714   6.008  0.4777 -0.6667  0.3803
18331THY    HP254344   2.671   1.794   6.043 -0.4350  2.1451  0.0529
18331THY    HP354345   2.595   1.635   6.084  0.1080 -0.7502  0.3417
18331THY    HP454346   2.508   1.766   6.011  1.1756 -0.3156  1.7163
18331THY    CP354347   2.771   1.594   5.867 -0.2698 -0.0673  0.4550
18331THY    HP554348   2.773   1.507   5.800  0.4323  0.1940  0.2642
18331THY    HP654349   2.787   1.548   5.965  2.6127 -1.3629 -1.5690
18331THY    HP754350   2.847   1.669   5.844  1.7108  1.0065 -1.1266
18331THY    CA354351   2.707   1.871   5.764  0.2123 -0.3253  0.1884
18331THY    HA354352   2.779   1.874   5.845  0.1509 -0.0351 -2.7578
18331THY    CA454353   2.694   1.978   5.675 -0.1847  0.0904 -0.5991
18331THY    HA454354   2.758   2.064   5.688  0.3468 -0.5733 -0.8847
18331THY    CA554355   2.603   1.969   5.567 -0.0767  0.8267 -0.5153
18331THY    CM154356   2.608   2.077   5.463 -0.3395 -1.2503 -1.1230
18331THY    HM154357   2.569   2.170   5.506  0.2824 -3.1021  0.0476
18331THY    HM254358   2.551   2.049   5.374  0.9881 -2.6368  0.3919
18331THY    HM354359   2.715   2.087   5.438 -0.3645 -0.7284  0.8721
18331THY    CA654360   2.511   1.864   5.559 -0.9326  0.2484 -0.4167
18331THY    HA654361   2.429   1.860   5.487 -0.1687 -0.5911 -1.6833
18332THY      O54362   7.064   1.434   2.587  0.7246 -0.2176 -1.0360
18332THY     HO54363   7.041   1.342   2.562  0.3522 -1.6502 -0.5817
18332THY    CA154364   7.005   1.499   2.487  0.2019  1.3027 -0.2608
18332THY    CA254365   6.983   1.639   2.483 -0.3839 -0.6132  0.0382
18332THY    CP154366   7.014   1.721   2.611  0.1295  0.1265  0.3538
18332THY    HP154367   7.049   1.654   2.690 -1.8165  1.9633  1.3821
18332THY    CP254368   6.882   1.776   2.670  0.4327  0.2433  0.1513
18332THY    HP254369   6.912   1.848   2.747  2.6249 -1.0012  0.6593
18332THY    HP354370   6.824   1.695   2.715 -1.5304 -0.8011  0.9009
18332THY    HP454371   6.826   1.836   2.597  1.2081 -0.8245 -0.3914
18332THY    CP354372   7.105   1.835   2.576 -0.8161  0.1430  0.6174
18332THY    HP554373   7.047   1.906   2.515  1.0675 -2.5946 -0.0242
18332THY    HP654374   7.185   1.795   2.513 -0.2517  1.3682 -0.2416
18332THY    HP754375   7.161   1.874   2.661  0.3942  1.2442 -3.0471
18332THY    CA354376   6.928   1.693   2.366  0.6121  0.9783 -0.0747
18332THY    HA354377   6.885   1.793   2.364 -0.3708 -0.4517 -0.4964
18332THY    CA454378   6.900   1.611   2.254 -0.0144 -0.0391 -0.2437
18332THY    HA454379   6.834   1.650   2.178 -1.6410  0.6523 -1.5511
18332THY    CA554380   6.936   1.476   2.258 -0.3649  0.7463  0.4620
18332THY    CM154381   6.888   1.391   2.145  0.1674  0.2362  0.0873
18332THY    HM154382   6.875   1.285   2.171  1.0940  0.2058 -0.0453
18332THY    HM254383   6.962   1.407   2.066  2.3569  2.0946 -0.2437
18332THY    HM354384   6.786   1.411   2.111 -0.9324  1.5721 -2.7136
18332THY    CA654385   6.994   1.420   2.371  0.7922  0.1021 -0.8972
18332THY    HA654386   6.997   1.312   2.371  1.7688  1.6165 -0.8922
18333THY      O54387   8.688   2.947   5.874  0.0290  0.4392  0.0349
18333THY     HO54388   8.597   2.971   5.900 -0.5408 -1.5547  0.1881
18333THY    CA154389   8.686   2.819   5.836  0.3889 -1.0210 -0.8911
18333THY    CA254390   8.800   2.742   5.804 -0.6960  0.5226  0.2469
18333THY    CP154391   8.938   2.804   5.801  0.1903 -0.0141 -0.6658
18333THY    HP154392   8.942   2.910   5.830  1.0258  2.1633 -1.2541
18333THY    CP254393   9.002   2.797   5.671  0.4050  1.5087 -0.5504
18333THY    HP254394   9.022   2.696   5.632  0.9187  0.2378  0.0278
18333THY    HP354395   9.093   2.858   5.674  0.8233  0.0798 -1.0715
18333THY    HP454396   8.943   2.855   5.600  2.4792 -0.1725 -0.3606
18333THY    CP354397   9.026   2.731   5.903  0.6635 -0.1268 -0.3970
18333THY    HP554398   9.045   2.626   5.878 -1.2715 -1.5521 -0.4620
18333THY    HP654399   8.978   2.748   6.000 -0.3867 -0.4676 -1.2854
18333THY    HP754400   9.122   2.782   5.909  0.8172 -1.0371 -0.5676
18333THY    CA354401   8.782   2.614   5.748 -0.3914  0.1919 -0.0878
18333THY    HA354402   8.863   2.553   5.710 -1.9594  0.5581 -2.5428
18333THY    CA454403   8.651   2.561   5.754  0.1388  0.0178 -0.2529
18333THY    HA454404   8.640   2.456   5.729  1.2960  1.8680 -0.8652
18333THY    CA554405   8.544   2.626   5.807  0.2351 -0.3173 -0.4252
18333THY    CM154406   8.412   2.553   5.826  0.1409  0.7899 -0.5536
18333THY    HM154407   8.340   2.605   5.763  0.9383 -0.3963 -0.8373
18333THY    HM254408   8.371   2.547   5.927 -0.7605  0.4395 -0.4839
18333THY    HM354409   8.422   2.450   5.791  0.0643 -1.1976  0.0692
18333THY    CA654410   8.560   2.757   5.851  0.3615  0.0308 -0.3331
18333THY    HA654411   8.478   2.816   5.890  0.1709  0.8232 -1.1099
18334THY      O54412   5.697   4.270   7.040  0.3056  0.4091  0.0253
18334THY     HO54413   5.645   4.188   7.043 -2.0870  1.0970  1.4769
18334THY    CA154414   5.598   4.364   7.020 -0.3568 -0.3386 -0.0569
18334THY    CA254415   5.623   4.493   6.965 -0.4899  0.7660 -0.9067
18334THY    CP154416   5.768   4.522   6.914 -0.3208 -0.1812  0.3384
18334THY    HP154417   5.817   4.433   6.873  2.0172 -2.7939  2.6343
18334THY    CP254418   5.857   4.587   7.024 -0.0060 -1.1968 -0.1014
18334THY    HP254419   5.868   4.520   7.110 -2.4362 -0.0670  0.8321
18334THY    HP354420   5.811   4.679   7.062 -2.0403  0.6251 -1.7446
18334THY    HP454421   5.955   4.616   6.984  0.3174 -0.1876  0.2359
18334THY    CP354422   5.771   4.620   6.789  0.1465  0.0838  0.2846
18334THY    HP554423   5.722   4.575   6.702 -1.4568 -0.0054  2.0873
18334THY    HP654424   5.869   4.640   6.744 -0.8863 -2.1855  0.5371
18334THY    HP754425   5.738   4.724   6.802 -1.7092 -1.0886 -0.1041
18334THY    CA354426   5.530   4.597   6.987  0.9189  0.6395 -0.1834
18334THY    HA354427   5.543   4.695   6.942  0.5303 -0.0799 -0.4509
18334THY    CA454428   5.401   4.562   7.028 -0.6069 -0.2464 -0.5414
18334THY    HA454429   5.328   4.642   7.017  0.4527 -1.0604  0.3465
18334THY    CA554430   5.376   4.430   7.074 -0.1116 -0.3517  1.1122
18334THY    CM154431   5.239   4.397   7.118  0.3893 -0.5660  0.4445
18334THY    HM154432   5.178   4.372   7.031  1.4720 -1.4229  0.7293
18334THY    HM254433   5.200   4.482   7.175  0.8949 -1.5507  1.3501
18334THY    HM354434   5.223   4.313   7.187 -2.4475 -1.7379 -0.0822
18334THY    CA654435   5.475   4.335   7.073 -0.4979 -1.0480  0.5013
18334THY    HA654436   5.453   4.241   7.122 -0.3203  1.9768  1.9405
18335THY      O54437   2.553   9.182   3.095 -0.6947 -0.1731 -0.0429
18335THY     HO54438   2.576   9.250   3.029 -1.3054 -1.2678 -0.8595
18335THY    CA154439   2.580   9.233   3.220  0.6247 -0.2977 -0.4850
18335THY    CA254440   2.483   9.237   3.323  0.3651 -0.3261 -0.1681
18335THY    CP154441   2.342   9.189   3.299  0.3754  0.0560  0.1473
18335THY    HP154442   2.333   9.159   3.194  1.3935  0.0233 -0.0598
18335THY    CP254443   2.262   9.313   3.332  0.3823  0.0699  0.4237
18335THY    HP254444   2.161   9.292   3.293  0.2001  0.7323  0.0391
18335THY    HP354445   2.298   9.406   3.288 -0.7980 -0.6024  0.5898
18335THY    HP454446   2.265   9.329   3.440  1.4985  0.0736  0.2436
18335THY    CP354447   2.318   9.068   3.389  0.1308  0.0456  1.3363
18335THY    HP554448   2.210   9.053   3.397  0.1386 -0.4330  1.0148
18335THY    HP654449   2.353   9.087   3.491  0.0262  0.6247 -1.2528
18335THY    HP754450   2.363   8.975   3.352  0.7448 -0.7670  1.9451
18335THY    CA354451   2.531   9.289   3.447 -0.4056 -0.1333  0.3837
18335THY    HA354452   2.457   9.289   3.527 -0.8717 -0.5382  1.4626
18335THY    CA454453   2.662   9.337   3.465 -0.2158  0.1217  0.0941
18335THY    HA454454   2.697   9.381   3.558  0.2561 -0.7848  1.7009
18335THY    CA554455   2.747   9.338   3.356 -0.2369 -0.2345  1.1725
18335THY    CM154456   2.886   9.380   3.370  0.1796 -0.0835 -1.0539
18335THY    HM154457   2.903   9.486   3.347  1.9465 -1.0713 -1.5204
18335THY    HM254458   2.949   9.321   3.304  4.0086  2.1398  0.1910
18335THY    HM354459   2.905   9.376   3.478 -1.4239  0.5619  3.0824
18335THY    CA654460   2.707   9.287   3.236  0.4966  0.9011  0.1064
18335THY    HA654461   2.771   9.282   3.148  0.5040  0.8599  0.8159
18336THY      O54462   8.350   0.839   4.397  0.3081 -0.3385  0.0725
18336THY     HO54463   8.392   0.814   4.313 -2.2562 -0.9844 -2.6204
18336THY    CA154464   8.426   0.936   4.450  0.2312  0.0566 -0.0422
18336THY    CA254465   8.423   0.968   4.588  0.0754  0.1500 -0.2255
18336THY    CP154466   8.347   0.880   4.688 -1.0044  0.5220  0.4008
18336THY    HP154467   8.318   0.783   4.646 -1.9401  3.6088 -0.7793
18336THY    CP254468   8.206   0.935   4.723 -0.6617 -0.0339 -0.4836
18336THY    HP254469   8.143   0.864   4.777 -0.7472  0.6350  0.0908
18336THY    HP354470   8.153   0.950   4.628  1.1261 -1.1601 -1.0086
18336THY    HP454471   8.207   1.027   4.783  1.4505 -0.1542 -0.3723
18336THY    CP354472   8.424   0.847   4.813  0.0916  0.0253  0.5634
18336THY    HP554473   8.520   0.809   4.776  0.0751 -1.2504  1.6849
18336THY    HP654474   8.384   0.771   4.881  2.1530 -0.7030 -1.2674
18336THY    HP754475   8.433   0.934   4.879 -2.0054 -0.1167  0.9581
18336THY    CA354476   8.499   1.087   4.626 -0.1675 -0.1588  0.4082
18336THY    HA354477   8.497   1.121   4.729 -0.4172  0.2154 -0.7310
18336THY    CA454478   8.570   1.160   4.532  0.8410 -0.5095  0.0745
18336THY    HA454479   8.643   1.235   4.561 -1.2044  2.1906  1.1949
18336THY    CA554480   8.557   1.129   4.399 -0.2319  0.3967 -0.4539
18336THY    CM154481   8.638   1.196   4.295 -0.9370 -0.1954 -0.3991
18336THY    HM154482   8.724   1.136   4.262 -0.6639  0.1731 -0.2128
18336THY    HM254483   8.680   1.282   4.349 -0.0090 -0.4305 -0.6932
18336THY    HM354484   8.574   1.235   4.215  1.2890 -0.8094  2.3222
18336THY    CA654485   8.491   1.017   4.361  0.2244  0.0098  0.1957
18336THY    HA654486   8.498   0.991   4.256 -2.3605 -0.7414  2.1491
18337THY      O54487   8.481   8.737   3.280 -0.0224 -0.6926 -0.0833
18337THY     HO54488   8.520   8.753   3.368 -3.4847  1.0011  0.2422
18337THY    CA154489   8.446   8.862   3.239 -1.2835 -0.6531 -0.5044
18337THY    CA254490   8.343   8.894   3.152  0.1855 -0.3330 -0.1075
18337THY    CP154491   8.241   8.796   3.108 -0.0891  0.3170  0.0445
18337THY    HP154492   8.272   8.691   3.110 -1.7206  1.5482 -0.4600
18337THY    CP254493   8.224   8.820   2.955  0.0850  0.0856  0.3111
18337THY    HP254494   8.320   8.839   2.905  0.5757  0.4044 -1.2035
18337THY    HP354495   8.157   8.907   2.946  0.4119 -0.1401  0.5409
18337THY    HP454496   8.171   8.735   2.911 -1.7374  1.0778  0.8746
18337THY    CP354497   8.106   8.810   3.183  0.4615 -0.7261  0.1615
18337THY    HP554498   8.062   8.908   3.164 -2.1186  0.0488 -0.7726
18337THY    HP654499   8.120   8.792   3.290 -0.2432 -0.7048 -0.2695
18337THY    HP754500   8.038   8.737   3.139 -0.7829  3.3792 -1.4697
18337THY    CA354501   8.333   9.031   3.112 -0.0919  0.2910  0.3355
18337THY    HA354502   8.255   9.054   3.040 -0.8301  0.7760 -0.5486
18337THY    CA454503   8.402   9.129   3.178 -0.3098  0.2531 -0.1690
18337THY    HA454504   8.374   9.231   3.157  0.8870  2.0490  0.5791
18337THY    CA554505   8.511   9.089   3.264 -0.3934 -0.1673 -0.5358
18337THY    CM154506   8.585   9.198   3.336  0.1779  0.4528 -0.2032
18337THY    HM154507   8.559   9.297   3.298  0.0915 -2.3265 -1.1934
18337THY    HM254508   8.693   9.194   3.318  0.0326 -0.5147 -0.0969
18337THY    HM354509   8.577   9.192   3.445 -0.5006  0.3600 -1.5629
18337THY    CA654510   8.534   8.959   3.289  0.3642  0.3887  0.2427
18337THY    HA654511   8.613   8.943   3.362  0.4010  0.0362 -1.2525
18338THY      O54512   8.136   4.709   4.984 -0.0110 -0.0503 -0.5663
18338THY     HO54513   8.056   4.659   4.962 -1.0844  0.4029  0.8938
18338THY    CA154514   8.110   4.831   4.926  0.0022  0.0477 -0.1038
18338THY    CA254515   8.064   4.934   5.006  0.2889 -0.0434  0.1392
18338THY    CP154516   8.040   4.912   5.157  0.0467 -0.0437  0.7965
18338THY    HP154517   8.073   4.814   5.194  3.0758  0.4162  1.8929
18338THY    CP254518   7.894   4.910   5.190 -0.3651  0.0352  0.4609
18338THY    HP254519   7.843   5.001   5.156  1.6313 -0.8006  1.3173
18338THY    HP354520   7.878   4.885   5.296 -0.9306 -0.1658 -0.0614
18338THY    HP454521   7.862   4.823   5.132 -1.2092  1.0653  0.0566
18338THY    CP354522   8.104   5.029   5.239 -0.2201 -0.0897  0.0722
18338THY    HP554523   8.091   5.012   5.347 -0.4585  0.1316  1.4658
18338THY    HP654524   8.068   5.132   5.228 -0.4962  2.0394  0.2687
18338THY    HP754525   8.212   5.025   5.225 -0.4444 -1.8733 -0.4821
18338THY    CA354526   8.045   5.057   4.947  0.0503 -0.2152 -0.0789
18338THY    HA354527   8.023   5.145   5.007  2.4792  2.0118 -0.8630
18338THY    CA454528   8.057   5.071   4.809 -0.5512 -0.0899 -0.1745
18338THY    HA454529   8.033   5.170   4.769 -4.2501  1.9127 -0.0914
18338THY    CA554530   8.106   4.965   4.731 -1.1535  0.1929 -0.6543
18338THY    CM154531   8.137   5.002   4.585 -0.3427  0.6999 -0.5713
18338THY    HM154532   8.195   5.095   4.586  0.2993 -2.7788 -0.7876
18338THY    HM254533   8.049   5.032   4.527  1.2088 -2.4883 -1.6418
18338THY    HM354534   8.195   4.922   4.536  1.0943  2.9198 -0.9594
18338THY    CA654535   8.139   4.847   4.793 -0.5979 -0.4124 -0.3240
18338THY    HA654536   8.192   4.771   4.736 -0.6585  1.6888 -2.0515
18339THY      O54537   6.067   7.183   5.079  0.0917  0.0332  0.5678
18339THY     HO54538   6.076   7.257   5.016 -0.1353  2.7549  3.1200
18339THY    CA154539   6.053   7.236   5.208  0.7259 -0.1710  0.0611
18339THY    CA254540   6.010   7.164   5.320  0.0434  0.1528 -0.1420
18339THY    CP154541   5.964   7.018   5.309 -0.1896  0.0574  0.2045
18339THY    HP154542   5.924   6.990   5.210  0.9030  0.1608 -1.9768
18339THY    CP254543   5.868   6.964   5.422 -0.1111  0.7770 -0.5555
18339THY    HP254544   5.817   6.872   5.392  0.4476  1.6331 -1.1603
18339THY    HP354545   5.789   7.039   5.435 -1.0696 -0.2285 -1.3518
18339THY    HP454546   5.924   6.935   5.512 -0.6473  0.5262 -2.5413
18339THY    CP354547   6.100   6.930   5.329  0.7101 -0.9391  0.4273
18339THY    HP554548   6.145   6.963   5.424 -0.1079 -0.3898  0.0054
18339THY    HP654549   6.169   6.951   5.247 -0.3757 -2.2545 -0.9283
18339THY    HP754550   6.080   6.823   5.343 -0.5710 -0.6543  0.6817
18339THY    CA354551   6.005   7.235   5.440 -0.3003 -0.4724 -0.2966
18339THY    HA354552   5.979   7.189   5.536  0.4196  0.3401  0.9395
18339THY    CA454553   6.025   7.373   5.446  0.1036 -0.3225 -0.0075
18339THY    HA454554   6.003   7.422   5.541  2.3908  0.8155 -0.9891
18339THY    CA554555   6.075   7.441   5.338  0.1797 -0.3463  0.6857
18339THY    CM154556   6.112   7.583   5.343 -0.1442  0.5096  0.3340
18339THY    HM154557   6.125   7.606   5.237 -0.3022  0.3824 -0.1628
18339THY    HM254558   6.209   7.601   5.390 -1.0697  2.0137  1.6682
18339THY    HM354559   6.029   7.646   5.380 -1.4183 -1.7663  0.0900
18339THY    CA654560   6.091   7.367   5.218 -0.0523  0.7140 -0.5971
18339THY    HA654561   6.134   7.423   5.136 -1.7592 -0.1308 -0.4591
18340THY      O54562   7.175   3.991   4.316  0.1861  0.1784 -0.2250
18340THY     HO54563   7.234   3.998   4.393 -0.1432  0.3915  0.2645
18340THY    CA154564   7.131   4.118   4.287  0.2730  0.0822 -0.2143
18340THY    CA254565   7.006   4.142   4.220  0.1931 -0.1197  0.5786
18340THY    CP154566   6.924   4.024   4.174 -0.4467  0.5324  0.3927
18340THY    HP154567   6.981   3.933   4.192  0.4745 -0.6907  0.6926
18340THY    CP254568   6.883   4.028   4.025 -0.3284 -0.7407 -0.0228
18340THY    HP254569   6.837   3.934   3.993 -0.5541  1.3666 -0.6834
18340THY    HP354570   6.975   4.031   3.964 -0.2762 -0.6669 -0.1299
18340THY    HP454571   6.824   4.117   4.000 -1.3826  3.9904  0.8600
18340THY    CP354572   6.792   4.030   4.264 -0.1301 -0.0152 -0.2826
18340THY    HP554573   6.728   3.942   4.262 -0.5476  1.1178 -0.0257
18340THY    HP654574   6.726   4.106   4.221 -0.8122  1.3579 -0.0577
18340THY    HP754575   6.820   4.059   4.366  2.4456 -0.5283 -0.6623
18340THY    CA354576   6.966   4.277   4.194 -0.5262 -0.0603  0.1026
18340THY    HA354577   6.887   4.305   4.126  2.0762 -3.1509  0.5771
18340THY    CA454578   7.059   4.380   4.231  0.3705  0.0665  0.5754
18340THY    HA454579   7.039   4.486   4.220 -0.0636 -1.8153  0.3310
18340THY    CA554580   7.178   4.349   4.295 -0.4027 -1.0707  1.0002
18340THY    CM154581   7.261   4.453   4.347  0.7913 -0.1433  0.1559
18340THY    HM154582   7.365   4.433   4.320  0.5564 -0.5242 -0.5976
18340THY    HM254583   7.246   4.471   4.454 -0.6960 -0.3020  0.0454
18340THY    HM354584   7.238   4.546   4.292 -2.7198  0.1728 -0.3843
18340THY    CA654585   7.214   4.216   4.327  0.1034  0.4806 -0.4700
18340THY    HA654586   7.313   4.191   4.365 -0.0480  1.4369  0.3155
18341THY      O54587   4.157   6.274   6.270 -0.1428  0.4197  0.1821
18341THY     HO54588   4.073   6.231   6.294  0.5030  0.0484 -1.3493
18341THY    CA154589   4.138   6.331   6.150  0.0118  0.0226  0.1786
18341THY    CA254590   4.243   6.387   6.072 -0.3027  0.2538 -0.2473
18341THY    CP154591   4.388   6.369   6.119  0.3190  0.7599 -0.5164
18341THY    HP154592   4.394   6.316   6.215  1.6961  0.6699 -0.5566
18341THY    CP254593   4.457   6.510   6.138 -0.4007 -0.5031 -0.1274
18341THY    HP254594   4.429   6.569   6.226 -0.5001 -0.3874 -0.3486
18341THY    HP354595   4.461   6.572   6.047 -1.0981 -0.6454 -0.2743
18341THY    HP454596   4.561   6.485   6.159 -1.2141  1.5876 -2.1363
18341THY    CP354597   4.459   6.298   6.011  0.1302  0.9503  0.0428
18341THY    HP554598   4.408   6.203   5.994  1.0902  2.2600 -0.7369
18341THY    HP654599   4.563   6.270   6.031  0.1356 -1.1015 -1.7377
18341THY    HP754600   4.457   6.359   5.919  0.3547 -0.0582 -1.4291
18341THY    CA354601   4.213   6.452   5.954 -0.2041 -0.1083  0.1405
18341THY    HA354602   4.292   6.490   5.891 -0.5864 -1.2312 -0.8580
18341THY    CA454603   4.081   6.463   5.912 -0.4862 -0.3047  0.0839
18341THY    HA454604   4.049   6.503   5.816 -1.6189  0.2321  0.5151
18341THY    CA554605   3.978   6.417   5.990 -0.3412 -0.4022 -0.1139
18341THY    CM154606   3.839   6.405   5.934 -0.4974  0.4848  0.2427
18341THY    HM154607   3.819   6.488   5.864 -0.2211  1.1875  0.9210
18341THY    HM254608   3.762   6.419   6.011 -1.8081 -0.8448  0.6501
18341THY    HM354609   3.821   6.308   5.887 -0.6964 -1.6704  1.2664
18341THY    CA654610   4.004   6.342   6.109  0.1826  0.0607 -0.2329
18341THY    HA654611   3.921   6.301   6.166 -1.7128 -1.9514  0.6119
18342THY      O54612   5.496   4.314   7.834 -0.2789 -0.2216 -0.0993
18342THY     HO54613   5.563   4.314   7.904  1.6456 -1.9662  0.8706
18342THY    CA154614   5.547   4.268   7.715  0.3313 -0.2922  0.4398
18342THY    CA254615   5.684   4.282   7.676  0.0087  0.4880  0.6295
18342THY    CP154616   5.791   4.322   7.778  0.0214 -0.3380 -0.8474
18342THY    HP154617   5.749   4.380   7.861 -1.2159  0.0001 -2.1703
18342THY    CP254618   5.913   4.395   7.724  0.0067 -0.1493 -0.1190
18342THY    HP254619   5.892   4.492   7.678 -0.1441 -0.4992 -0.3145
18342THY    HP354620   5.964   4.339   7.644 -0.6317 -1.6385  1.3397
18342THY    HP454621   5.990   4.417   7.799  1.3381 -1.7961  1.1493
18342THY    CP354622   5.836   4.191   7.843  0.5714  0.1956  0.8805
18342THY    HP554623   5.874   4.124   7.765 -1.8931 -1.2055  1.0188
18342THY    HP654624   5.755   4.131   7.885 -0.5744 -1.4742  1.1821
18342THY    HP754625   5.912   4.212   7.919 -1.6560  3.0588 -0.7341
18342THY    CA354626   5.710   4.248   7.537  0.6191 -0.0636 -0.2304
18342THY    HA354627   5.808   4.259   7.493  0.8797  0.5101 -0.2249
18342THY    CA454628   5.604   4.209   7.450 -0.7220  0.0649  0.1752
18342THY    HA454629   5.628   4.199   7.344  1.2588  0.5813 -0.9814
18342THY    CA554630   5.479   4.179   7.498  0.1844  0.4943  0.1397
18342THY    CM154631   5.364   4.143   7.408 -0.0323  0.2469  0.4695
18342THY    HM154632   5.395   4.145   7.303  0.5719  0.3908 -0.4889
18342THY    HM254633   5.273   4.200   7.429 -2.0536  0.4340 -2.5477
18342THY    HM354634   5.328   4.040   7.421  0.9132 -0.0867  0.0837
18342THY    CA654635   5.452   4.216   7.632  0.6346 -0.3884 -0.2678
18342THY    HA654636   5.349   4.213   7.665  0.9201  0.5759  0.0964
18343THY      O54637   7.945   3.425   7.225 -0.2370 -0.4743  0.0862
18343THY     HO54638   7.868   3.477   7.254 -0.5976 -0.5800 -0.3825
18343THY    CA154639   8.004   3.387   7.340 -0.5665  0.0294  1.1592
18343THY    CA254640   8.131   3.319   7.349 -1.0183  0.7982  0.2140
18343THY    CP154641   8.201   3.262   7.220  0.0483 -0.1784 -0.2514
18343THY    HP154642   8.140   3.274   7.130  0.1319 -0.1182  0.7097
18343THY    CP254643   8.253   3.112   7.230 -0.1454 -0.6155 -0.4856
18343THY    HP254644   8.324   3.085   7.152  2.0750  1.4847 -1.0044
18343THY    HP354645   8.172   3.038   7.234  0.0750 -0.6511 -0.7264
18343THY    HP454646   8.310   3.099   7.323 -2.4838  2.0069  4.7516
18343THY    CP354647   8.330   3.345   7.194  0.3546 -0.1033 -0.1387
18343THY    HP554648   8.363   3.324   7.092  2.5753  0.4833  0.2576
18343THY    HP654649   8.410   3.315   7.262  0.4534 -0.1185  0.0881
18343THY    HP754650   8.307   3.452   7.201 -0.2836  3.3450 -0.3848
18343THY    CA354651   8.179   3.276   7.472 -0.5319 -0.3998  0.4344
18343THY    HA354652   8.266   3.213   7.485 -0.3788 -0.2997  0.6635
18343THY    CA454653   8.117   3.322   7.585 -0.2774 -0.8617  0.2081
18343THY    HA454654   8.165   3.297   7.679  1.8665 -1.2664  2.4004
18343THY    CA554655   7.994   3.391   7.582 -0.5281 -0.2603 -0.4836
18343THY    CM154656   7.926   3.425   7.713  0.1096  0.5714  0.5660
18343THY    HM154657   7.984   3.395   7.801  0.4710 -0.6784 -2.8807
18343THY    HM254658   7.836   3.362   7.723 -0.9810 -0.5485  1.8817
18343THY    HM354659   7.879   3.523   7.715 -0.6016 -0.1668  0.2546
18343THY    CA654660   7.937   3.415   7.459 -0.1031 -0.4784 -0.4360
18343THY    HA654661   7.835   3.454   7.459 -0.1322 -1.6965 -0.4726
18344THY      O54662   8.485   7.327   6.077 -0.1309  0.0583  0.9369
18344THY     HO54663   8.580   7.328   6.058 -0.2090 -0.3493  1.0429
18344THY    CA154664   8.467   7.359   6.204  0.3727  0.6620 -0.0099
18344THY    CA254665   8.358   7.307   6.270  0.6163 -0.3566  0.4871
18344THY    CP154666   8.250   7.229   6.191 -0.1467 -0.2105 -0.0607
18344THY    HP154667   8.300   7.180   6.107 -1.1878  0.2515 -2.0204
18344THY    CP254668   8.147   7.329   6.148  0.2878 -0.4090 -0.1123
18344THY    HP254669   8.066   7.272   6.102  0.6204 -1.3053  0.1154
18344THY    HP354670   8.182   7.392   6.065 -0.5696 -1.6545 -1.2150
18344THY    HP454671   8.111   7.387   6.234 -0.2933 -2.0123  2.0505
18344THY    CP354672   8.186   7.110   6.270  0.1248  0.4848 -0.8668
18344THY    HP554673   8.139   7.035   6.206  0.1362 -0.1963 -0.3022
18344THY    HP654674   8.104   7.149   6.332 -1.0712 -1.7253  0.3201
18344THY    HP754675   8.265   7.077   6.339  1.1442 -0.6711 -0.9148
18344THY    CA354676   8.339   7.345   6.406 -0.3129  0.4697 -0.0203
18344THY    HA354677   8.260   7.306   6.470 -0.1150  0.3627 -0.5983
18344THY    CA454678   8.434   7.419   6.475  0.3368  0.8324 -0.2863
18344THY    HA454679   8.416   7.437   6.580 -0.2700  0.7140 -0.1770
18344THY    CA554680   8.549   7.457   6.404  0.3550  0.6537 -0.1223
18344THY    CM154681   8.658   7.532   6.469 -0.6496 -0.3732  0.0052
18344THY    HM154682   8.624   7.634   6.491 -0.3069 -1.7796  0.4462
18344THY    HM254683   8.749   7.519   6.410  1.0010  1.8096  0.8761
18344THY    HM354684   8.682   7.485   6.565 -0.0930 -0.5413 -0.0609
18344THY    CA654685   8.559   7.440   6.266  0.4711 -0.0917  0.2221
18344THY    HA654686   8.647   7.475   6.213 -0.1135 -2.4100 -1.5694
18345THY      O54687   8.291   7.188   6.710  0.2636  0.0191 -0.1292
18345THY     HO54688   8.354   7.239   6.763 -1.6018  2.7602 -0.4622
18345THY    CA154689   8.322   7.067   6.762  0.3492 -0.4220  0.0551
18345THY    CA254690   8.245   6.954   6.724 -0.1833  0.1653 -0.1972
18345THY    CP154691   8.124   6.959   6.628  0.3314 -0.5320  0.3533
18345THY    HP154692   8.113   7.050   6.569 -1.3286  0.8364  1.1062
18345THY    CP254693   7.996   6.966   6.712  0.1871 -0.2114 -0.4029
18345THY    HP254694   7.911   6.909   6.674  0.1293 -0.1491 -0.3580
18345THY    HP354695   7.959   7.070   6.709  1.6267 -0.1840  0.1337
18345THY    HP454696   8.012   6.924   6.812 -1.7777 -0.0528 -0.8475
18345THY    CP354697   8.110   6.839   6.533 -0.1954  0.4022  0.5071
18345THY    HP554698   8.202   6.788   6.504  0.0360  0.4842  0.8762
18345THY    HP654699   8.073   6.879   6.438  1.4824  0.2963  1.8871
18345THY    HP754700   8.037   6.766   6.571 -0.6437 -2.6650 -0.7910
18345THY    CA354701   8.292   6.828   6.770 -0.5451 -0.3867 -0.6998
18345THY    HA354702   8.241   6.737   6.739  0.8846 -0.2211 -1.5898
18345THY    CA454703   8.403   6.829   6.847 -1.5209 -0.1808 -0.0010
18345THY    HA454704   8.449   6.735   6.875 -0.6911  0.5302  0.5938
18345THY    CA554705   8.474   6.938   6.888  0.2853  0.2419 -0.3550
18345THY    CM154706   8.589   6.929   6.994 -0.0975  0.1691  0.0423
18345THY    HM154707   8.663   7.010   6.994 -1.0044  0.4030  0.8742
18345THY    HM254708   8.652   6.840   6.979 -1.0266 -1.9074 -0.3310
18345THY    HM354709   8.548   6.917   7.094  0.6510  0.5687  0.6914
18345THY    CA654710   8.432   7.059   6.844  0.0355 -0.3528 -0.1171
18345THY    HA654711   8.491   7.147   6.869  0.3346  2.6966 -1.0642
18346THY      O54712   2.355   5.752   3.349  0.2621 -0.2289  0.0289
18346THY     HO54713   2.356   5.690   3.274  0.9360 -0.2717  0.0811
18346THY    CA154714   2.273   5.696   3.440  0.2112 -0.9461 -0.4193
18346THY    CA254715   2.234   5.768   3.557 -0.1654 -0.2200 -0.4988
18346THY    CP154716   2.291   5.908   3.578 -0.7647 -0.3437 -0.6634
18346THY    HP154717   2.379   5.922   3.515  1.7654  3.0340 -0.0864
18346THY    CP254718   2.355   5.927   3.720  0.2572  0.0604  0.6622
18346THY    HP254719   2.291   5.899   3.804  0.9627  0.4149  0.0798
18346THY    HP354720   2.372   6.035   3.728  0.1778 -3.2752  1.0096
18346THY    HP454721   2.457   5.889   3.737  0.1685  0.1587  0.4656
18346THY    CP354722   2.193   6.025   3.557 -0.1599 -0.3036  0.0878
18346THY    HP554723   2.133   6.017   3.465 -0.2206 -0.2251 -0.3860
18346THY    HP654724   2.261   6.110   3.557 -0.1459  0.9899  0.0831
18346THY    HP754725   2.131   6.029   3.647  0.4482  0.4084 -3.4356
18346THY    CA354726   2.144   5.707   3.646 -0.6548  0.3978 -0.1414
18346THY    HA354727   2.106   5.749   3.738 -0.2097  2.1972 -3.3528
18346THY    CA454728   2.103   5.579   3.628  0.2059 -0.0154 -0.1776
18346THY    HA454729   2.032   5.533   3.696 -0.3353 -0.5898 -0.2062
18346THY    CA554730   2.142   5.511   3.519 -0.4428  0.5594  0.0889
18346THY    CM154731   2.116   5.364   3.500 -0.5810  0.3813  0.0864
18346THY    HM154732   2.184   5.313   3.431 -1.2293  0.4300 -0.8734
18346THY    HM254733   2.025   5.344   3.441  0.1783 -0.0769 -2.2238
18346THY    HM354734   2.101   5.318   3.598  0.6884 -0.0372 -1.2671
18346THY    CA654735   2.227   5.566   3.417  0.6275  0.1886  0.0347
18346THY    HA654736   2.248   5.510   3.326  1.5042  1.0288 -1.0476
18347THY      O54737   8.964   5.984   6.768  0.0719 -0.0191  0.2386
18347THY     HO54738   9.015   5.999   6.849  0.4815  0.0192 -1.2327
18347THY    CA154739   8.916   5.857   6.780 -0.4343  0.4736  0.5154
18347THY    CA254740   8.820   5.803   6.692  0.1329  0.1570 -0.8745
18347THY    CP154741   8.753   5.898   6.592  0.2883 -0.5061 -0.1669
18347THY    HP154742   8.746   5.997   6.638  2.2552 -0.4431 -0.0173
18347THY    CP254743   8.602   5.858   6.569 -0.4239  0.2770 -0.8002
18347THY    HP254744   8.555   5.922   6.494 -0.1866  0.5734 -0.2591
18347THY    HP354745   8.552   5.866   6.666 -0.2867  0.2968 -0.0493
18347THY    HP454746   8.586   5.765   6.514 -1.5667 -0.8906  0.0555
18347THY    CP354747   8.821   5.915   6.459  0.7454  0.2329  0.0955
18347THY    HP554748   8.927   5.941   6.464  0.8754  1.6764 -0.6292
18347THY    HP654749   8.768   5.990   6.399  1.2446 -1.2420 -0.6900
18347THY    HP754750   8.813   5.819   6.407 -0.2548 -2.1192  1.3486
18347THY    CA354751   8.796   5.665   6.699  0.5362  0.1772  0.1982
18347THY    HA354752   8.734   5.617   6.624 -1.1300  1.0990  0.8348
18347THY    CA454753   8.853   5.588   6.805  0.4142  0.3781  0.2084
18347THY    HA454754   8.827   5.482   6.808  0.4880  1.6644  0.2124
18347THY    CA554755   8.938   5.649   6.900 -0.3003  0.0425  0.6191
18347THY    CM154756   8.999   5.553   6.998  0.3506 -0.1745  0.0677
18347THY    HM154757   9.100   5.589   7.020  0.0850 -0.3463  0.9450
18347THY    HM254758   9.009   5.451   6.959 -0.1545  2.2080 -0.9580
18347THY    HM354759   8.932   5.538   7.083 -0.0957 -0.5027  0.1880
18347THY    CA654760   8.972   5.781   6.890 -0.1430  0.4079 -0.5686
18347THY    HA654761   9.029   5.833   6.966 -2.5214  0.9047  1.5335
18348THY      O54762   4.273   3.713   7.376 -0.8568  0.4493 -0.3630
18348THY     HO54763   4.290   3.808   7.382  2.5763  0.3210 -0.8176
18348THY    CA154764   4.201   3.669   7.279  0.5329  0.0302  0.5574
18348THY    CA254765   4.213   3.537   7.236 -0.8630 -0.1355  0.1826
18348THY    CP154766   4.288   3.434   7.320  0.3146 -0.5342 -0.5789
18348THY    HP154767   4.307   3.479   7.418  1.5330 -1.2135  0.4336
18348THY    CP254768   4.431   3.404   7.269 -0.5733 -0.3733 -0.2599
18348THY    HP254769   4.489   3.379   7.359 -0.2287 -0.5350 -0.0538
18348THY    HP354770   4.482   3.497   7.240 -0.5476 -0.5471 -0.3286
18348THY    HP454771   4.438   3.334   7.185  3.3526 -0.2931 -0.2097
18348THY    CP354772   4.208   3.308   7.348 -0.4386  0.1636  0.1889
18348THY    HP554773   4.174   3.257   7.257  1.0598 -1.0267  1.2296
18348THY    HP654774   4.125   3.328   7.417 -0.6681  0.4842 -1.7094
18348THY    HP754775   4.265   3.234   7.405  0.2518 -1.9195 -0.9553
18348THY    CA354776   4.148   3.496   7.122  0.3327 -0.0695  0.0360
18348THY    HA354777   4.164   3.396   7.082  0.2936  0.7932 -0.3223
18348THY    CA454778   4.058   3.585   7.054  0.3446  0.1834  0.1110
18348THY    HA454779   3.999   3.535   6.978  0.9814  0.0062 -0.3862
18348THY    CA554780   4.039   3.713   7.103  0.2705 -1.0692  0.2471
18348THY    CM154781   3.916   3.797   7.053 -1.0755 -0.0250 -0.3287
18348THY    HM154782   3.947   3.897   7.021  1.2697 -0.1408 -1.0348
18348THY    HM254783   3.854   3.816   7.141 -1.8218 -0.9311  1.7565
18348THY    HM354784   3.855   3.749   6.976 -1.4941  1.4330 -2.2730
18348THY    CA654785   4.118   3.758   7.210 -0.2417 -0.1534 -0.0740
18348THY    HA654786   4.119   3.864   7.235 -0.1082 -1.5789  0.2830
18349THY      O54787   9.362   8.689   4.055  0.7289 -0.1496 -0.0941
18349THY     HO54788   9.382   8.603   4.096 -1.3711 -0.0136 -0.5583
18349THY    CA154789   9.226   8.676   4.051 -0.2075  0.8534  0.7513
18349THY    CA254790   9.148   8.701   3.939 -0.4358 -0.2449 -0.5874
18349THY    CP154791   9.209   8.727   3.803 -0.1498 -0.1206  0.1658
18349THY    HP154792   9.316   8.708   3.816 -0.1527 -0.6172 -0.2299
18349THY    CP254793   9.189   8.871   3.754 -0.7263 -0.4522 -0.6567
18349THY    HP254794   9.256   8.887   3.669  0.9132  1.0874  1.2489
18349THY    HP354795   9.219   8.940   3.834  0.2119  0.5191 -2.1508
18349THY    HP454796   9.084   8.895   3.735 -0.9555 -0.6591 -1.7965
18349THY    CP354797   9.157   8.627   3.696 -0.5133 -0.3924  0.0900
18349THY    HP554798   9.196   8.660   3.599 -1.3268  0.0005  2.3891
18349THY    HP654799   9.049   8.643   3.689 -0.8132 -1.7965 -2.0981
18349THY    HP754800   9.180   8.521   3.713  3.2986  0.5219  0.9317
18349THY    CA354801   9.007   8.707   3.954  0.5139 -0.2507 -0.3055
18349THY    HA354802   8.934   8.728   3.877 -2.0839  2.2511  0.4408
18349THY    CA454803   8.946   8.680   4.077 -0.8283 -0.5569 -0.7967
18349THY    HA454804   8.839   8.694   4.077 -0.9694 -1.1857 -1.7648
18349THY    CA554805   9.025   8.646   4.186 -0.4441 -0.0412  0.3127
18349THY    CM154806   8.968   8.606   4.323  0.1054  0.2844  0.0685
18349THY    HM154807   8.978   8.689   4.394 -0.9190  0.2960  0.1939
18349THY    HM254808   9.032   8.531   4.371  1.0147  2.1613  1.9403
18349THY    HM354809   8.864   8.572   4.324  0.1140  0.6239  0.0506
18349THY    CA654810   9.162   8.641   4.170  0.3642 -0.0536 -0.4006
18349THY    HA654811   9.230   8.630   4.254  2.2152 -1.2850  1.0683
18350THY      O54812   4.599   2.542   6.583  0.2789  0.7520 -0.3878
18350THY     HO54813   4.550   2.505   6.658 -0.7817  0.4992  0.4489
18350THY    CA154814   4.681   2.642   6.620  0.1499  0.4632 -0.1493
18350THY    CA254815   4.800   2.679   6.541  0.1444  0.0523  0.0332
18350THY    CP154816   4.822   2.615   6.407 -0.6007 -0.3519  0.3566
18350THY    HP154817   4.793   2.510   6.425  1.7501 -1.9259 -0.6456
18350THY    CP254818   4.971   2.605   6.368  0.0146  0.4603  0.1975
18350THY    HP254819   4.999   2.513   6.314  2.0638  0.3323  0.8402
18350THY    HP354820   5.032   2.617   6.459  1.9235 -0.4650 -1.6977
18350THY    HP454821   4.997   2.683   6.296  0.4215 -0.3458 -0.6515
18350THY    CP354822   4.744   2.678   6.297  0.3402  0.3321  0.3715
18350THY    HP554823   4.637   2.669   6.319  0.5477  0.5481 -2.2830
18350THY    HP654824   4.757   2.624   6.203 -1.5291  0.0285  0.3963
18350THY    HP754825   4.770   2.785   6.292  1.5031  3.0590  0.3019
18350THY    CA354826   4.876   2.789   6.584  0.3815 -0.3937 -0.0105
18350THY    HA354827   4.959   2.836   6.533 -1.6707 -2.4496  1.6558
18350THY    CA454828   4.842   2.844   6.712  0.1924 -0.2367  0.2734
18350THY    HA454829   4.899   2.924   6.756 -0.7072 -0.0987  0.8513
18350THY    CA554830   4.725   2.803   6.786  0.8378 -0.4231 -0.2718
18350THY    CM154831   4.686   2.872   6.913  0.2681  0.0220  0.1311
18350THY    HM154832   4.609   2.807   6.956 -1.0905 -0.9061  1.0705
18350THY    HM254833   4.649   2.972   6.887 -0.8442 -3.2780 -1.0223
18350THY    HM354834   4.763   2.886   6.990  1.9391 -1.2652 -1.4713
18350THY    CA654835   4.644   2.700   6.741 -0.0297  0.0886  1.1587
18350THY    HA654836   4.557   2.662   6.794  0.7134 -1.7723 -3.9675
18351THY      O54837   4.325   2.981   6.235 -0.5294 -0.4522 -0.6006
18351THY     HO54838   4.338   3.028   6.151  0.7509 -0.3065 -0.6585
18351THY    CA154839   4.328   3.081   6.327 -0.4930 -0.9265 -0.2784
18351THY    CA254840   4.322   3.066   6.470  0.1732  1.0402  0.1959
18351THY    CP154841   4.304   2.935   6.541 -0.1420  0.2212 -0.0335
18351THY    HP154842   4.275   2.863   6.464  0.5756 -0.5295  0.4623
18351THY    CP254843   4.195   2.934   6.649  0.6323 -0.3083  0.4074
18351THY    HP254844   4.171   2.829   6.670  1.2673 -0.3991  0.2382
18351THY    HP354845   4.101   2.974   6.610 -1.0317  0.2578 -2.6316
18351THY    HP454846   4.224   2.993   6.737  2.5083 -0.5200 -0.1325
18351THY    CP354847   4.429   2.894   6.604  0.0414 -0.5134 -0.0852
18351THY    HP554848   4.430   2.787   6.628 -1.2192  1.6883  0.3337
18351THY    HP654849   4.459   2.952   6.692  1.6225 -1.3753  0.4893
18351THY    HP754850   4.520   2.907   6.544  1.0417  1.3224  1.9727
18351THY    CA354851   4.342   3.185   6.543  0.2373  0.7661  0.4017
18351THY    HA354852   4.343   3.179   6.652 -0.6721  0.7778  0.2088
18351THY    CA454853   4.352   3.307   6.478 -0.8693  0.2437 -0.6214
18351THY    HA454854   4.343   3.396   6.541 -0.1845  2.0483 -1.7746
18351THY    CA554855   4.346   3.316   6.340  0.3652  0.5018 -0.3227
18351THY    CM154856   4.362   3.450   6.272  0.3496 -0.5125 -0.3676
18351THY    HM154857   4.279   3.516   6.300 -1.6373 -1.1127 -2.4773
18351THY    HM254858   4.359   3.446   6.162  0.8091 -0.4905 -2.4621
18351THY    HM354859   4.456   3.499   6.300 -0.1677  0.0343  0.3262
18351THY    CA654860   4.335   3.207   6.263 -0.5813 -0.2685  0.2073
18351THY    HA654861   4.326   3.213   6.155  1.9953 -0.5911 -0.6138
18352THY      O54862   7.693   1.905   3.084 -0.4828  0.1601 -0.4281
18352THY     HO54863   7.762   1.874   3.023 -0.1262  0.9774 -1.3286
18352THY    CA154864   7.590   1.951   3.027  0.6334  0.4783 -0.2385
18352THY    CA254865   7.500   2.022   3.102  0.5514 -0.9239 -0.5197
18352THY    CP154866   7.533   2.042   3.252  0.8636 -0.0692  0.1079
18352THY    HP154867   7.579   1.953   3.295  0.4148  1.8568  0.7452
18352THY    CP254868   7.417   2.062   3.340  0.1360 -0.4100 -0.3273
18352THY    HP254869   7.345   1.980   3.334 -1.2691  1.3790  0.6844
18352THY    HP354870   7.361   2.150   3.304 -1.6045 -0.3678 -1.3602
18352THY    HP454871   7.434   2.076   3.447 -3.2291  0.2332 -0.1203
18352THY    CP354872   7.641   2.148   3.277 -0.4915 -0.5411 -0.0898
18352THY    HP554873   7.584   2.241   3.264  0.0845  0.2335  0.3790
18352THY    HP654874   7.719   2.133   3.201 -0.2581 -0.0510 -1.5099
18352THY    HP754875   7.676   2.142   3.381  2.5802 -1.5263 -0.8554
18352THY    CA354876   7.393   2.093   3.036  0.7269 -0.1725  0.6669
18352THY    HA354877   7.322   2.151   3.094  1.2027  0.3204  0.7581
18352THY    CA454878   7.377   2.074   2.900  0.3405 -0.0176 -0.3790
18352THY    HA454879   7.282   2.103   2.855 -0.3054  1.0688 -0.7594
18352THY    CA554880   7.467   2.004   2.824 -0.2708  0.6031 -0.5988
18352THY    CM154881   7.446   1.988   2.677 -0.5079 -0.0315 -0.7180
18352THY    HM154882   7.535   2.009   2.617 -0.9483 -0.5655 -0.3362
18352THY    HM254883   7.383   2.067   2.634  0.7553 -3.6336 -1.5056
18352THY    HM354884   7.404   1.889   2.659  0.6177 -2.5437 -0.7969
18352THY    CA654885   7.580   1.947   2.881  0.0596 -0.6425 -0.4072
18352THY    HA654886   7.650   1.901   2.812 -0.7272 -1.5743 -0.2402
18353THY      O54887   5.853   6.018   5.565 -0.0009 -0.0884  0.4508
18353THY     HO54888   5.795   6.060   5.631 -0.5703 -0.7248  0.6745
18353THY    CA154889   5.926   5.944   5.645  0.2377 -0.3814  0.7552
18353THY    CA254890   6.008   5.841   5.598  0.5521 -0.0268 -0.7235
18353THY    CP154891   6.034   5.822   5.450  0.3355 -0.1389  0.0929
18353THY    HP154892   6.027   5.921   5.402  0.9650  0.7035  0.5591
18353THY    CP254893   5.928   5.730   5.390  0.3099  0.5206  0.4670
18353THY    HP254894   5.952   5.718   5.283  1.1924  0.6572  0.9291
18353THY    HP354895   5.828   5.774   5.395  0.8307  1.3513  1.6000
18353THY    HP454896   5.933   5.638   5.449  1.5334  2.0892  1.4771
18353THY    CP354897   6.180   5.770   5.411 -0.2513 -0.3484  0.1160
18353THY    HP554898   6.192   5.662   5.420 -0.7181 -2.8496 -0.1947
18353THY    HP654899   6.252   5.818   5.479 -0.6106  0.0883  0.0467
18353THY    HP754900   6.200   5.782   5.304  0.2299 -0.3438 -0.6179
18353THY    CA354901   6.080   5.759   5.688  0.2620 -0.4860 -0.1160
18353THY    HA354902   6.125   5.665   5.656  2.7558 -2.1846  1.4935
18353THY    CA454903   6.076   5.794   5.824 -0.3157 -0.0365 -0.0088
18353THY    HA454904   6.115   5.725   5.899 -1.9921 -1.2503 -2.4313
18353THY    CA554905   6.004   5.905   5.868  0.0354 -0.7585  0.0105
18353THY    CM154906   5.991   5.939   6.010 -0.5384  0.5670  0.1900
18353THY    HM154907   6.060   5.884   6.075 -0.9546  0.4536 -0.4805
18353THY    HM254908   5.895   5.911   6.056 -0.1271  1.0072 -0.5650
18353THY    HM354909   6.017   6.045   6.014 -0.3777 -0.9327  0.2295
18353THY    CA654910   5.927   5.984   5.779 -0.0977 -0.7708  0.0322
18353THY    HA654911   5.865   6.064   5.818  0.1279 -0.0725 -0.1237
18354THY      O54912   7.960   1.067   8.120  0.1742 -0.1435  0.2670
18354THY     HO54913   8.021   0.992   8.132 -1.4627  1.5523 -0.8608
18354THY    CA154914   7.911   1.063   7.996 -0.0805 -0.0253 -0.5699
18354THY    CA254915   7.805   1.146   7.953 -0.1828 -0.1156 -0.4920
18354THY    CP154916   7.736   1.234   8.050 -0.7956  0.1417  0.3418
18354THY    HP154917   7.781   1.229   8.150 -1.4643  0.4064 -0.8469
18354THY    CP254918   7.581   1.198   8.056 -0.1864 -0.8346 -0.4468
18354THY    HP254919   7.540   1.193   7.954 -0.0934 -0.8037 -2.2874
18354THY    HP354920   7.526   1.280   8.104  0.1870 -1.4575  0.1902
18354THY    HP454921   7.563   1.109   8.117  1.8084 -0.5387 -0.6959
18354THY    CP354922   7.758   1.374   8.001 -0.0292 -0.2102 -0.0125
18354THY    HP554923   7.719   1.445   8.074  0.3492 -0.8182  0.8400
18354THY    HP654924   7.715   1.397   7.902  0.6556 -0.6323 -0.5100
18354THY    HP754925   7.866   1.389   8.000  0.1521 -0.6860 -1.2228
18354THY    CA354926   7.759   1.143   7.816 -0.2933 -0.6464  0.2876
18354THY    HA354927   7.675   1.203   7.781  0.1901 -0.3691  1.1358
18354THY    CA454928   7.828   1.057   7.724  0.7363  0.1415  0.0718
18354THY    HA454929   7.811   1.049   7.617 -0.0835  0.3834 -1.8021
18354THY    CA554930   7.931   0.973   7.770  0.0714  0.4717 -0.0696
18354THY    CM154931   8.014   0.885   7.676 -0.0091  0.0801 -0.6190
18354THY    HM154932   8.063   0.809   7.738 -0.0346  0.2013 -0.5379
18354THY    HM254933   8.092   0.943   7.626 -1.4584 -2.0601 -0.3826
18354THY    HM354934   7.964   0.852   7.584 -2.8109  1.7329 -1.3125
18354THY    CA654935   7.979   0.987   7.903 -0.3933 -0.3465  0.4719
18354THY    HA654936   8.068   0.934   7.934  0.0141  0.9401  1.8413
18355THY      O54937   2.948   3.646   2.433  0.0255  0.4229 -0.3801
18355THY     HO54938   2.944   3.580   2.505  0.3153  0.3329 -0.4948
18355THY    CA154939   2.903   3.765   2.468 -0.4506  0.2427 -0.6731
18355THY    CA254940   2.949   3.874   2.392 -0.0802  0.4580  0.4188
18355THY    CP154941   3.051   3.857   2.279  0.2794 -0.5073 -0.0268
18355THY    HP154942   3.048   3.754   2.240 -1.3824  2.1251 -1.0558
18355THY    CP254943   3.191   3.885   2.327  0.6894 -0.2344  0.7053
18355THY    HP254944   3.195   3.991   2.357 -0.5624 -0.9421  0.9743
18355THY    HP354945   3.261   3.875   2.244  1.5825  0.7107 -1.4912
18355THY    HP454946   3.226   3.821   2.410  2.6811 -3.1423 -2.3161
18355THY    CP354947   3.000   3.933   2.158 -1.1379  0.8605  0.1428
18355THY    HP554948   2.898   3.898   2.135 -1.3974  2.2007 -0.0295
18355THY    HP654949   3.071   3.930   2.074  1.5768  3.0215 -0.3575
18355THY    HP754950   2.983   4.038   2.185 -1.0033  1.4667  0.0118
18355THY    CA354951   2.910   4.005   2.445 -0.3531  0.6016 -0.2987
18355THY    HA354952   2.926   4.097   2.388 -1.8364  0.0383 -0.3563
18355THY    CA454953   2.838   4.020   2.564 -0.1729 -0.2249 -0.1460
18355THY    HA454954   2.805   4.119   2.593  1.9139 -0.4462  0.6617
18355THY    CA554955   2.784   3.906   2.624 -0.3957  0.1733 -0.7563
18355THY    CM154956   2.701   3.915   2.740 -0.4425 -0.2547 -0.3153
18355THY    HM154957   2.665   4.016   2.761  2.7501  0.6472  0.7353
18355THY    HM254958   2.737   3.889   2.840 -0.5583 -0.0649  0.2364
18355THY    HM354959   2.617   3.845   2.731  0.5694  0.1230 -1.6139
18355THY    CA654960   2.829   3.777   2.588 -0.2273  0.1479  0.6022
18355THY    HA654961   2.787   3.692   2.641  0.3274 -1.3407 -0.6556
18356THY      O54962   6.755   5.875   7.258  0.2251  0.7235  0.6468
18356THY     HO54963   6.762   5.957   7.310  0.8665 -1.0391  1.7630
18356THY    CA154964   6.758   5.914   7.123 -0.6016 -0.4764  0.5546
18356THY    CA254965   6.817   5.835   7.027  0.3090  0.1049  1.2522
18356THY    CP154966   6.896   5.713   7.072 -0.0612 -0.6298 -0.7468
18356THY    HP154967   6.871   5.685   7.175  0.6435  0.0520  1.0057
18356THY    CP254968   7.043   5.753   7.079 -0.2956 -0.1492  0.0611
18356THY    HP254969   7.064   5.827   7.157 -0.9486  0.5284 -0.4517
18356THY    HP354970   7.083   5.796   6.986  0.7862 -0.7469 -2.0780
18356THY    HP454971   7.099   5.659   7.088 -0.7905 -2.1205 -0.4848
18356THY    CP354972   6.870   5.593   6.989  0.7036 -0.4883  0.0321
18356THY    HP554973   6.895   5.506   7.051  0.1338 -0.1596  0.0962
18356THY    HP654974   6.929   5.588   6.896  1.5632 -0.0017  0.9184
18356THY    HP754975   6.764   5.586   6.962 -0.1631  2.0409  1.9923
18356THY    CA354976   6.820   5.869   6.891  0.4474  0.1370 -0.2359
18356THY    HA354977   6.876   5.811   6.818  1.5902 -0.7844  1.8907
18356THY    CA454978   6.766   5.989   6.856 -0.5081  0.5473 -0.1967
18356THY    HA454979   6.774   6.014   6.751  1.0734 -0.0197 -2.7233
18356THY    CA554980   6.698   6.075   6.948  0.4806  0.1105 -0.1861
18356THY    CM154981   6.615   6.193   6.908  0.3309 -1.0218  0.3415
18356THY    HM154982   6.664   6.281   6.866 -0.6701 -2.6276  0.1839
18356THY    HM254983   6.564   6.220   7.001 -0.0371 -0.7735 -1.1198
18356THY    HM354984   6.540   6.159   6.835 -0.9658  1.6008 -2.9849
18356THY    CA654985   6.694   6.027   7.081  0.0945 -0.3184  0.0327
18356THY    HA654986   6.654   6.091   7.159  1.5017  0.0236  0.5352
18357THY      O54987   7.462   5.861   3.351 -0.1221 -0.1370 -0.5191
18357THY     HO54988   7.472   5.863   3.254 -2.0538 -0.3724  1.1366
18357THY    CA154989   7.505   5.984   3.398 -0.0367 -0.6245 -0.0883
18357THY    CA254990   7.449   6.032   3.522  0.2888 -0.4729  0.1163
18357THY    CP154991   7.353   5.943   3.600 -0.1917  0.0529 -0.2509
18357THY    HP154992   7.335   5.852   3.543  2.0530 -1.9241  0.4491
18357THY    CP254993   7.221   6.025   3.626  0.4247  0.4019 -0.5605
18357THY    HP254994   7.193   6.097   3.548 -3.2006 -1.8951 -4.0969
18357THY    HP354995   7.220   6.087   3.716 -1.1195  0.8459 -1.1958
18357THY    HP454996   7.139   5.953   3.624 -2.5978  0.1551  2.6070
18357THY    CP354997   7.414   5.890   3.735  0.7615  0.6717 -0.4237
18357THY    HP554998   7.424   5.968   3.811 -0.8780  1.4024 -0.8847
18357THY    HP654999   7.514   5.856   3.705 -0.5319 -3.9017 -0.8440
18357THY    HP755000   7.360   5.799   3.763  0.8234 -1.3579 -1.1354
18357THY    CA355001   7.492   6.158   3.562  0.1549 -0.0325  0.7573
18357THY    HA355002   7.455   6.214   3.647  2.8693 -0.4328  3.3918
18357THY    CA455003   7.576   6.224   3.479 -0.2098  0.0425 -0.0228
18357THY    HA455004   7.615   6.321   3.508 -3.5370 -0.9924  1.7878
18357THY    CA555005   7.626   6.181   3.356  0.5362 -0.0088 -0.7634
18357THY    CM155006   7.727   6.250   3.278 -0.5251 -0.0284  0.2340
18357THY    HM155007   7.685   6.348   3.250 -0.5519  0.9598  0.5213
18357THY    HM255008   7.757   6.202   3.185  0.5423  0.3312  0.1857
18357THY    HM355009   7.809   6.270   3.348 -1.3575  0.5883  1.6636
18357THY    CA655010   7.586   6.055   3.315  0.2309  0.9150 -0.1794
18357THY    HA655011   7.617   6.012   3.220 -0.4284  1.5368 -2.1724
18358THY      O55012   5.859   0.777   6.052  0.1405  0.2129  0.1639
18358THY     HO55013   5.801   0.725   5.994 -0.1912 -0.2139  0.9932
18358THY    CA155014   5.884   0.894   5.992  0.7100  0.2975  0.3829
18358THY    CA255015   5.972   0.989   6.042  0.7539 -0.1743 -0.2805
18358THY    CP155016   6.078   0.938   6.140 -0.8844  0.2136  0.9937
18358THY    HP155017   6.053   0.845   6.193  0.7146 -1.8919 -0.7590
18358THY    CP255018   6.109   1.038   6.252  0.2432  0.7114  0.5594
18358THY    HP255019   6.019   1.066   6.306  0.6262  2.1889 -0.8705
18358THY    HP355020   6.160   1.129   6.219 -1.4994  3.0606  2.4973
18358THY    HP455021   6.176   0.995   6.328  0.2247  1.9446  2.5916
18358THY    CP355022   6.210   0.909   6.063 -0.3674 -0.2984 -0.4610
18358THY    HP555023   6.196   0.838   5.981  0.3782 -1.1831  0.3807
18358THY    HP655024   6.294   0.882   6.128 -0.7337 -0.1877 -1.3541
18358THY    HP755025   6.232   1.005   6.014 -2.6174 -1.5979 -0.5283
18358THY    CA355026   5.962   1.122   5.998 -0.4690  0.3904 -0.1204
18358THY    HA355027   6.029   1.205   6.018  0.4609  1.0654 -1.0105
18358THY    CA455028   5.855   1.164   5.910 -0.3513  0.0332 -0.6240
18358THY    HA455029   5.847   1.268   5.880  0.2903  0.1432 -0.5381
18358THY    CA555030   5.772   1.062   5.860  0.3347 -0.2531  0.1647
18358THY    CM155031   5.660   1.086   5.758 -0.4843  0.1777  0.4267
18358THY    HM155032   5.690   1.030   5.668 -0.0692  2.2840 -3.0352
18358THY    HM255033   5.646   1.187   5.719 -0.1242 -1.6275 -0.1670
18358THY    HM355034   5.566   1.038   5.787  1.3590  3.5906 -1.4730
18358THY    CA655035   5.786   0.926   5.903 -0.3085 -0.7773 -0.5642
18358THY    HA655036   5.721   0.846   5.869  0.9207  0.8406 -2.3132
18359THY      O55037   4.011   2.759   7.336  0.4716 -0.4551 -0.3305
18359THY     HO55038   4.040   2.683   7.282  2.4894  0.8840 -0.5963
18359THY    CA155039   4.008   2.716   7.462  0.1694  0.9620  0.0118
18359THY    CA255040   4.002   2.800   7.570 -0.5824 -0.5495  0.4989
18359THY    CP155041   3.981   2.949   7.541 -0.2184  0.0595  0.5560
18359THY    HP155042   3.964   2.971   7.435 -1.4395  0.1952  0.3297
18359THY    CP255043   4.105   3.035   7.581 -0.8934 -0.1329  0.2279
18359THY    HP255044   4.085   3.140   7.555  0.7253 -2.9762 -0.0524
18359THY    HP355045   4.192   3.013   7.518 -1.0292 -0.6921  1.2112
18359THY    HP455046   4.122   3.029   7.689  1.1311 -0.4386 -0.1882
18359THY    CP355047   3.855   3.008   7.613  0.3129  0.0412 -0.1901
18359THY    HP555048   3.763   2.953   7.591 -0.3068 -2.2846  1.6246
18359THY    HP655049   3.849   3.115   7.591  0.9361  0.2890 -0.0988
18359THY    HP755050   3.869   3.001   7.721  1.1194  0.0426  1.0799
18359THY    CA355051   4.002   2.747   7.700 -0.4254 -0.3590  0.4784
18359THY    HA355052   3.995   2.815   7.785 -0.5714 -0.0633  0.1011
18359THY    CA455053   3.998   2.606   7.715  0.1691 -0.4738 -0.3709
18359THY    HA455054   3.993   2.566   7.816 -1.6806 -0.4019 -0.0742
18359THY    CA555055   4.001   2.522   7.611  0.6906  0.7058  0.1881
18359THY    CM155056   4.009   2.369   7.618 -0.1495  0.4809 -0.3293
18359THY    HM155057   3.984   2.332   7.718 -1.0018  1.4454  2.5565
18359THY    HM255058   4.107   2.333   7.587 -0.2528  2.0057 -2.0486
18359THY    HM355059   3.937   2.322   7.550  3.0373 -0.8774 -3.6921
18359THY    CA655060   3.999   2.576   7.484  0.4225 -0.2084  0.2045
18359THY    HA655061   3.995   2.511   7.396  1.9531  0.0666 -0.3063
18360THY      O55062   5.879   2.954   1.942 -0.4744 -0.2526 -1.0299
18360THY     HO55063   5.867   3.050   1.944 -0.7058  0.5363 -1.0717
18360THY    CA155064   5.786   2.896   1.862 -0.5537 -0.6305 -0.1398
18360THY    CA255065   5.793   2.755   1.830 -0.6318 -0.3156 -0.1055
18360THY    CP155066   5.893   2.660   1.897 -0.1510 -0.2352 -0.3581
18360THY    HP155067   5.924   2.697   1.995 -0.0759  0.4083 -2.0324
18360THY    CP255068   6.016   2.626   1.816  0.0800  0.3166 -0.3830
18360THY    HP255069   6.086   2.574   1.883 -1.0022 -0.4621 -3.0271
18360THY    HP355070   6.066   2.718   1.787  0.3340 -1.4219 -1.0322
18360THY    HP455071   6.008   2.565   1.725  2.3881 -1.7701  2.1980
18360THY    CP355072   5.820   2.529   1.930 -0.4446  0.0523  0.1635
18360THY    HP555073   5.739   2.544   2.002  1.2819  2.2213 -0.4146
18360THY    HP655074   5.895   2.462   1.974 -1.1617  3.2123  1.2979
18360THY    HP755075   5.786   2.484   1.835 -1.0086 -0.3340  1.3576
18360THY    CA355076   5.709   2.707   1.721 -0.7002  0.0159 -0.5052
18360THY    HA355077   5.716   2.604   1.686  1.6597  1.1673 -0.8020
18360THY    CA455078   5.610   2.798   1.680 -0.2016 -0.0467  0.2747
18360THY    HA455079   5.539   2.764   1.605 -0.4649  0.1830  0.3146
18360THY    CA555080   5.594   2.926   1.734  0.5376  0.4176  0.2156
18360THY    CM155081   5.481   3.017   1.695 -0.1424 -0.3962  0.5027
18360THY    HM155082   5.437   2.979   1.603 -1.7847  0.4885  0.1499
18360THY    HM255083   5.529   3.109   1.662 -2.1914 -2.1530  1.0232
18360THY    HM355084   5.404   3.029   1.772 -0.5067 -0.8044  0.8022
18360THY    CA655085   5.689   2.980   1.815 -0.7321 -0.0692  0.8031
18360THY    HA655086   5.684   3.082   1.851 -1.0046  1.5483  0.2513
18361THY      O55087   0.535   8.872   6.387 -0.4219 -0.4807  0.3086
18361THY     HO55088   0.591   8.893   6.464 -0.1419 -0.9491  1.3807
18361THY    CA155089   0.609   8.788   6.306  0.0295 -0.2411 -0.2623
18361THY    CA255090   0.561   8.748   6.179  0.7272 -0.1567  0.1698
18361THY    CP155091   0.421   8.798   6.133 -0.1856  0.3074 -0.0840
18361THY    HP155092   0.392   8.889   6.186 -1.8100  0.5421 -0.7155
18361THY    CP255093   0.322   8.677   6.153  0.2062  0.1979 -0.0423
18361THY    HP255094   0.341   8.633   6.252  0.3246  0.0264 -0.3779
18361THY    HP355095   0.331   8.597   6.079  0.4405 -0.5455  0.6557
18361THY    HP455096   0.218   8.712   6.148  0.2274  0.8538  0.1447
18361THY    CP355097   0.427   8.830   5.976  0.2478 -0.0742  0.6160
18361THY    HP555098   0.483   8.923   5.967  0.3747 -0.3385  0.5144
18361THY    HP655099   0.326   8.857   5.943 -0.1554 -0.4103 -1.1737
18361THY    HP755100   0.467   8.746   5.919  2.1775  2.3046 -0.1930
18361THY    CA355101   0.634   8.654   6.105 -0.3070 -0.2965 -0.3742
18361THY    HA355102   0.585   8.608   6.020 -2.5943  0.7715 -0.0882
18361THY    CA455103   0.754   8.610   6.155  0.0301 -0.5189  0.0037
18361THY    HA455104   0.800   8.528   6.101  0.6391  2.8545 -2.0494
18361THY    CA555105   0.800   8.647   6.283 -0.5116 -0.0074  0.4043
18361THY    CM155106   0.938   8.612   6.315  0.0129  0.6901 -0.2459
18361THY    HM155107   0.979   8.653   6.408  0.2680  0.7218 -0.5721
18361THY    HM255108   1.011   8.634   6.236 -1.0114 -0.0797  0.4808
18361THY    HM355109   0.942   8.504   6.329  3.2755 -1.0626 -0.4866
18361THY    CA655110   0.732   8.741   6.357  0.6628 -0.8699 -0.1633
18361THY    HA655111   0.774   8.790   6.444 -0.4363 -1.5167  2.0323
18362THY      O55112   8.915   0.471   4.435  0.3545  0.0254  0.2908
18362THY     HO55113   8.927   0.403   4.504  0.8508 -2.4168 -2.2537
18362THY    CA155114   8.863   0.576   4.497 -0.2467  0.4429 -0.6761
18362THY    CA255115   8.842   0.700   4.429  0.3636 -1.0442  0.3360
18362THY    CP155116   8.874   0.716   4.283  0.4477  0.5571 -0.8252
18362THY    HP155117   8.830   0.633   4.225  1.2375 -0.6283 -0.4485
18362THY    CP255118   9.030   0.721   4.264 -0.2572  0.0437  0.5663
18362THY    HP255119   9.065   0.721   4.160 -0.6660 -0.0959  0.2691
18362THY    HP355120   9.079   0.632   4.305 -1.4648 -1.4759 -0.8538
18362THY    HP455121   9.067   0.808   4.321 -0.0097  1.8776 -0.6847
18362THY    CP355122   8.827   0.845   4.216  0.9875 -0.0220 -0.3101
18362THY    HP555123   8.729   0.873   4.257  2.0275  1.7875  0.8780
18362THY    HP655124   8.817   0.828   4.108  0.1299  0.0081 -0.0412
18362THY    HP755125   8.887   0.935   4.231  0.8537 -0.2909 -0.1762
18362THY    CA355126   8.805   0.812   4.506  1.5672 -0.2463  0.0307
18362THY    HA355127   8.806   0.909   4.459 -0.0487  1.2283  0.8242
18362THY    CA455128   8.773   0.792   4.642 -0.1955 -0.3621 -0.2950
18362THY    HA455129   8.732   0.875   4.698  0.1885 -0.7356  0.1542
18362THY    CA555130   8.801   0.674   4.714 -0.2127  0.0684  0.3043
18362THY    CM155131   8.786   0.658   4.864 -0.1382 -0.4542  0.0388
18362THY    HM155132   8.852   0.579   4.900  1.0196  0.7183  1.4773
18362THY    HM255133   8.687   0.631   4.902  0.8845  2.7051  0.3456
18362THY    HM355134   8.817   0.755   4.905 -0.5557 -1.2418  0.5267
18362THY    CA655135   8.842   0.566   4.639  0.6443 -0.2904 -0.3409
18362THY    HA655136   8.879   0.477   4.689  1.3918 -3.9814 -2.2877
18363THY      O55137   4.858   5.198   5.998  0.3820 -0.2404 -0.1037
18363THY     HO55138   4.855   5.152   6.084  2.3267 -0.7452 -1.2831
18363THY    CA155139   4.874   5.330   6.033  0.4660 -0.2839  1.2285
18363THY    CA255140   4.881   5.418   5.928  0.2996  0.0983 -0.0350
18363THY    CP155141   4.869   5.359   5.779  0.0102  0.8883 -0.1570
18363THY    HP155142   4.921   5.263   5.779 -0.8711  1.6745 -0.6558
18363THY    CP255143   4.940   5.448   5.679  0.2148  0.2518  0.5644
18363THY    HP255144   5.036   5.480   5.721 -0.0806  0.5827  1.0292
18363THY    HP355145   4.884   5.541   5.661  0.5945 -0.0629  0.7363
18363THY    HP455146   4.969   5.405   5.582 -1.5171 -0.6089  1.2290
18363THY    CP355147   4.722   5.323   5.739 -0.1212 -0.3246 -0.6796
18363THY    HP555148   4.717   5.264   5.647  0.9735  0.3245 -1.8333
18363THY    HP655149   4.650   5.405   5.737 -0.1618 -0.3881 -0.7164
18363THY    HP755150   4.674   5.260   5.814  0.2335  1.4855  1.0762
18363THY    CA355151   4.898   5.555   5.951 -0.3525 -0.0094  0.6113
18363THY    HA355152   4.891   5.626   5.869 -0.8601 -1.2051 -0.7628
18363THY    CA455153   4.905   5.599   6.083 -0.0028 -0.4992  0.0008
18363THY    HA455154   4.906   5.706   6.105  0.1179 -2.2885  0.3968
18363THY    CA555155   4.881   5.507   6.196 -0.4881  0.3037 -0.3505
18363THY    CM155156   4.873   5.560   6.344 -0.1358  0.2141 -0.0291
18363THY    HM155157   4.963   5.540   6.403  0.0167  0.2779  0.7835
18363THY    HM255158   4.782   5.519   6.389 -0.5143 -0.4452  0.0709
18363THY    HM355159   4.871   5.670   6.335  1.2332  1.0225  0.0937
18363THY    CA655160   4.862   5.371   6.169  0.0751 -0.2914 -0.8884
18363THY    HA655161   4.829   5.297   6.241  1.4641  0.2666 -1.0032
18364THY      O55162   2.821   7.527   4.835  0.1196 -0.0273 -0.2208
18364THY     HO55163   2.895   7.576   4.796  0.9344 -0.0593 -1.4264
18364THY    CA155164   2.812   7.560   4.965 -0.4573 -0.3136 -0.1180
18364THY    CA255165   2.771   7.469   5.067  0.6217  0.7306  0.2304
18364THY    CP155166   2.727   7.333   5.027  0.2397 -0.0041 -0.4137
18364THY    HP155167   2.742   7.331   4.919 -0.1908 -0.0658 -0.3570
18364THY    CP255168   2.578   7.298   5.058 -0.1282  0.1180 -0.0021
18364THY    HP255169   2.508   7.368   5.010 -1.9892  1.0476 -1.1469
18364THY    HP355170   2.554   7.293   5.165  0.2769  0.1910 -0.4850
18364THY    HP455171   2.552   7.205   5.007  0.5819  1.3768 -0.9212
18364THY    CP355172   2.815   7.228   5.103  0.4410 -0.2251  0.3674
18364THY    HP555173   2.795   7.232   5.211 -1.9749 -0.5369 -1.3028
18364THY    HP655174   2.921   7.252   5.100  0.2846  2.3040  1.7338
18364THY    HP755175   2.784   7.132   5.060 -3.1448  0.6390  0.9928
18364THY    CA355176   2.769   7.511   5.206 -0.2947 -0.2410 -0.4473
18364THY    HA355177   2.737   7.447   5.287 -1.1537  0.1714  0.4852
18364THY    CA455178   2.810   7.643   5.231  0.1298 -0.6792  0.2827
18364THY    HA455179   2.812   7.677   5.334  0.3503 -0.0417 -1.5632
18364THY    CA555180   2.837   7.735   5.133 -0.1482  0.1411  0.8079
18364THY    CM155181   2.874   7.874   5.160 -0.0750  0.3355  0.1602
18364THY    HM155182   2.983   7.868   5.168 -0.1395  1.6362  0.3169
18364THY    HM255183   2.827   7.915   5.251  0.0878  0.9046 -0.8946
18364THY    HM355184   2.852   7.937   5.073  1.3186  0.6195  1.0816
18364THY    CA655185   2.841   7.690   4.997  0.1589  0.3182 -0.0750
18364THY    HA655186   2.863   7.760   4.917 -0.3699  0.4274  0.2243
18365THY      O55187   0.912   3.895   5.299  0.1250 -0.2969 -0.0800
18365THY     HO55188   0.823   3.897   5.260  0.0556 -0.1152  1.0869
18365THY    CA155189   0.973   3.780   5.267 -0.0756  0.1107 -0.5974
18365THY    CA255190   1.097   3.744   5.321 -0.1118  0.2244  0.4950
18365THY    CP155191   1.163   3.842   5.417 -0.6003 -0.1322 -0.1736
18365THY    HP155192   1.123   3.943   5.401 -0.4976 -1.6887 -0.3545
18365THY    CP255193   1.316   3.852   5.387 -0.1373  0.1279 -0.0701
18365THY    HP255194   1.351   3.825   5.287  0.3398  1.1017 -3.6563
18365THY    HP355195   1.364   3.776   5.451  1.0304 -1.6976 -0.9300
18365THY    HP455196   1.357   3.949   5.417  0.5524 -0.2168 -0.2462
18365THY    CP355197   1.138   3.810   5.563  0.3451 -0.0756  0.2591
18365THY    HP555198   1.042   3.857   5.589  0.0596 -2.6537  1.2163
18365THY    HP655199   1.228   3.840   5.619  0.8028 -1.3340  1.3272
18365THY    HP755200   1.125   3.703   5.581  0.3579  0.9422  0.4124
18365THY    CA355201   1.147   3.613   5.296  0.8714  0.1826  0.0681
18365THY    HA355202   1.240   3.581   5.342  1.2023  0.0278  0.7795
18365THY    CA455203   1.068   3.524   5.219 -0.1293  0.5251 -0.4319
18365THY    HA455204   1.101   3.421   5.207 -2.7754 -3.0369 -1.0787
18365THY    CA555205   0.953   3.568   5.155 -0.0014 -0.3136  0.2904
18365THY    CM155206   0.875   3.474   5.070  0.1273 -0.4212  0.6767
18365THY    HM155207   0.853   3.538   4.984 -1.2512 -0.2776  0.4206
18365THY    HM255208   0.786   3.430   5.116  3.0967  4.3156 -1.2493
18365THY    HM355209   0.944   3.399   5.030  1.7425  1.6803  0.9262
18365THY    CA655210   0.902   3.700   5.178  0.1131 -0.7163  0.3549
18365THY    HA655211   0.807   3.737   5.141  1.0564 -2.0610  1.5601
18366THY      O55212   8.474   3.368   5.027  0.3840 -0.7799 -0.2626
18366THY     HO55213   8.478   3.303   5.099  0.7095  0.8638  1.4812
18366THY    CA155214   8.601   3.407   5.001 -0.9492  0.2382  0.8740
18366THY    CA255215   8.639   3.536   4.960  0.6006  0.4234 -0.2759
18366THY    CP155216   8.535   3.655   4.944 -0.1118  1.2444  0.0730
18366THY    HP155217   8.440   3.615   4.983  1.1406  3.3088 -1.1083
18366THY    CP255218   8.516   3.695   4.796 -0.7815  0.0235  0.0180
18366THY    HP255219   8.614   3.685   4.749 -0.4051  0.6895  0.4915
18366THY    HP355220   8.489   3.798   4.767 -1.2728 -1.2496 -0.4417
18366THY    HP455221   8.452   3.626   4.739 -0.1099 -1.4354  0.5567
18366THY    CP355222   8.587   3.778   5.021  0.1007  0.3355 -0.1600
18366THY    HP555223   8.600   3.747   5.125  3.5873 -0.2064 -0.8779
18366THY    HP655224   8.503   3.849   5.017  1.0529 -0.1234  0.9848
18366THY    HP755225   8.676   3.824   4.977  0.2452  0.8518  0.0537
18366THY    CA355226   8.770   3.554   4.919 -0.1105 -0.3743 -0.1930
18366THY    HA355227   8.816   3.642   4.874  1.5678  0.4606 -0.5956
18366THY    CA455228   8.860   3.444   4.915  0.1488  0.2578  0.4478
18366THY    HA455229   8.962   3.461   4.881 -0.0121  0.1664  1.3049
18366THY    CA555230   8.822   3.321   4.965  0.2377  0.0138  0.0633
18366THY    CM155231   8.917   3.214   4.992 -0.2036  0.2200 -0.0894
18366THY    HM155232   8.876   3.139   5.061 -0.5812  0.8915  0.7206
18366THY    HM255233   9.011   3.233   5.043  1.3717 -1.1597 -3.3330
18366THY    HM355234   8.947   3.170   4.896  1.4021  0.0195  1.3696
18366THY    CA655235   8.692   3.301   5.003  0.3401  0.3208 -0.2485
18366THY    HA655236   8.661   3.202   5.034 -2.0485 -0.9116  0.0311
18367THY      O55237   2.899   7.854   3.715  0.1226 -0.4510  0.3739
18367THY     HO55238   2.928   7.825   3.627  0.4598 -0.4349  0.6634
18367THY    CA155239   2.945   7.978   3.741  0.1673  0.6561 -0.0046
18367THY    CA255240   2.930   8.040   3.862 -0.4702  0.2674  0.1370
18367THY    CP155241   2.855   7.974   3.977 -0.2249  0.1780  0.0885
18367THY    HP155242   2.766   7.925   3.938 -1.8389  0.8113  2.3640
18367THY    CP255243   2.799   8.077   4.076  0.5824 -0.9318  0.4386
18367THY    HP255244   2.868   8.108   4.156 -2.4902  2.0405  0.2539
18367THY    HP355245   2.715   8.041   4.137  0.3714  0.2209  2.6890
18367THY    HP455246   2.763   8.170   4.030  0.2966  2.3769  2.1311
18367THY    CP355247   2.943   7.874   4.051 -0.7362  0.1800  0.5512
18367THY    HP555248   2.899   7.835   4.144  0.1595  0.0183 -0.9672
18367THY    HP655249   3.045   7.908   4.071 -0.8938 -0.4673  1.4264
18367THY    HP755250   2.965   7.782   3.995  0.6414  0.2038  0.8455
18367THY    CA355251   3.003   8.160   3.883 -0.2856 -0.2915 -0.6419
18367THY    HA355252   3.007   8.215   3.977 -1.1329 -0.3212 -0.5201
18367THY    CA455253   3.069   8.218   3.778 -0.8560  0.0353 -0.2246
18367THY    HA455254   3.121   8.311   3.799 -0.6654 -0.1035 -0.3003
18367THY    CA555255   3.062   8.158   3.656  0.2489 -0.4740 -0.6467
18367THY    CM155256   3.113   8.241   3.546  0.4159  0.1720 -0.5418
18367THY    HM155257   3.139   8.183   3.456  0.9086  1.1983 -1.9881
18367THY    HM255258   3.209   8.289   3.569  1.5300 -3.2912 -0.8641
18367THY    HM355259   3.038   8.313   3.513 -0.8756  1.6407 -1.1535
18367THY    CA655260   3.010   8.036   3.640 -0.3017 -0.4311 -0.3864
18367THY    HA655261   3.007   7.991   3.541  0.3018 -1.2070  1.2194
18368THY      O55262   9.067   7.373   6.430 -0.3236 -0.2192 -0.2863
18368THY     HO55263   9.024   7.446   6.383  0.0704  2.5661  1.9356
18368THY    CA155264   9.086   7.424   6.556 -0.0198  0.3309 -0.4505
18368THY    CA255265   9.155   7.355   6.662 -0.1406  0.4664 -0.4482
18368THY    CP155266   9.224   7.218   6.636  0.6157  0.7574  0.0717
18368THY    HP155267   9.217   7.189   6.531  1.7796  0.5954  0.3087
18368THY    CP255268   9.151   7.113   6.717  0.0157 -0.0225 -0.4497
18368THY    HP255269   9.160   7.130   6.825 -1.6811  0.0385  0.2052
18368THY    HP355270   9.180   7.015   6.677  1.5704 -2.9019  1.0611
18368THY    HP455271   9.044   7.123   6.697 -0.2838  1.6997  0.1790
18368THY    CP355272   9.374   7.221   6.671  0.2835  0.1562 -0.0009
18368THY    HP555273   9.417   7.121   6.658  0.1157 -0.2165 -0.0255
18368THY    HP655274   9.390   7.246   6.777  2.1034  0.0559 -0.6252
18368THY    HP755275   9.431   7.285   6.604  0.0618 -1.4872 -1.4546
18368THY    CA355276   9.163   7.408   6.791  0.1276 -0.1071  0.2741
18368THY    HA355277   9.214   7.358   6.873 -0.8267  2.4492  3.1414
18368THY    CA455278   9.102   7.529   6.810  0.0487  0.0497  0.8662
18368THY    HA455279   9.104   7.568   6.911 -0.2688  0.4419 -0.1247
18368THY    CA555280   9.042   7.601   6.705  0.1260  0.9337  0.0821
18368THY    CM155281   8.970   7.736   6.737 -0.6833  0.4239 -0.2261
18368THY    HM155282   8.964   7.758   6.845  1.9137  0.5562  0.1843
18368THY    HM255283   8.868   7.738   6.699  0.1350 -1.9015  0.6215
18368THY    HM355284   9.036   7.812   6.695  2.0761  2.5426 -1.2594
18368THY    CA655285   9.041   7.556   6.580 -0.0282  0.3371  0.3728
18368THY    HA655286   9.001   7.625   6.506  0.0157 -0.4642 -0.4474
18369THY      O55287   1.386   1.594   5.016  0.9354  0.2108  0.3809
18369THY     HO55288   1.464   1.540   5.040 -0.4480  1.1987 -1.2643
18369THY    CA155289   1.286   1.561   5.101 -0.1462  0.5817  0.1121
18369THY    CA255290   1.220   1.441   5.096 -0.0855  0.2296 -0.5005
18369THY    CP155291   1.245   1.340   4.984  0.8617 -0.1712 -0.5041
18369THY    HP155292   1.354   1.339   4.971  0.7841 -1.0256  0.6257
18369THY    CP255293   1.191   1.377   4.849 -0.2651 -0.1860 -0.6048
18369THY    HP255294   1.260   1.346   4.770  0.6479  0.7620 -1.0540
18369THY    HP355295   1.185   1.486   4.841  0.8290 -0.8814 -0.5851
18369THY    HP455296   1.089   1.340   4.830 -1.7069 -0.7633  3.2182
18369THY    CP355297   1.209   1.197   5.032 -0.3485  0.2357 -0.2990
18369THY    HP555298   1.118   1.190   5.093 -0.7838 -0.1035  1.6513
18369THY    HP655299   1.291   1.168   5.098  2.0148 -2.6295 -0.6134
18369THY    HP755300   1.216   1.128   4.947  0.3362  1.1142 -1.3504
18369THY    CA355301   1.115   1.422   5.196  0.0340 -0.0306 -0.9928
18369THY    HA355302   1.047   1.337   5.195  1.4016  0.4712 -2.1431
18369THY    CA455303   1.091   1.525   5.290  0.1478  0.5498  0.5602
18369THY    HA455304   1.010   1.515   5.362 -1.3955 -1.0900  0.9032
18369THY    CA555305   1.173   1.636   5.294  0.9140 -0.2230 -0.1814
18369THY    CM155306   1.153   1.738   5.399  0.5604 -0.2937 -0.2118
18369THY    HM155307   1.148   1.707   5.504 -2.5693  0.5830  2.7550
18369THY    HM255308   1.057   1.787   5.381 -0.4189 -0.0776 -1.9507
18369THY    HM355309   1.233   1.813   5.399 -0.7787  0.8454  1.2836
18369THY    CA655310   1.267   1.656   5.197 -0.2634  0.9478  0.0976
18369THY    HA655311   1.319   1.751   5.194  0.5966 -0.7025 -0.3877
18370THY      O55312   5.677   6.415   4.048  0.2952 -0.0209  0.0891
18370THY     HO55313   5.614   6.426   3.975 -0.2569  0.4255 -0.1081
18370THY    CA155314   5.621   6.474   4.159  0.1395  0.1569 -0.6049
18370THY    CA255315   5.697   6.543   4.258  0.9478  0.2593  0.1803
18370THY    CP155316   5.849   6.541   4.246 -0.1007 -0.0691 -0.2101
18370THY    HP155317   5.882   6.473   4.167 -0.2879 -2.4263  2.2719
18370THY    CP255318   5.906   6.488   4.373 -0.9797  0.5430 -0.9860
18370THY    HP255319   5.925   6.574   4.439  0.6865 -0.5395 -0.4772
18370THY    HP355320   6.000   6.435   4.359  0.5016  0.6296  1.4467
18370THY    HP455321   5.838   6.412   4.413 -0.8814 -3.5487 -3.5351
18370THY    CP355322   5.920   6.674   4.200  0.3052 -0.0667  0.1492
18370THY    HP555323   5.903   6.759   4.268  0.3774  0.8520 -0.5528
18370THY    HP655324   5.893   6.697   4.096 -0.3786  0.5044  2.1529
18370THY    HP755325   6.029   6.665   4.205  0.1951  1.6214 -0.6056
18370THY    CA355326   5.627   6.596   4.369  0.2989  0.0929 -1.0234
18370THY    HA355327   5.673   6.637   4.458 -0.4543  1.2070 -2.5163
18370THY    CA455328   5.489   6.595   4.371  1.5002  0.4571 -0.5102
18370THY    HA455329   5.434   6.630   4.458 -1.3618 -1.7138  0.8097
18370THY    CA555330   5.414   6.533   4.268  0.1483 -0.3453 -0.2470
18370THY    CM155331   5.263   6.522   4.293 -0.6777 -0.3820  0.5205
18370THY    HM155332   5.206   6.490   4.205 -0.0716  0.2688 -2.6057
18370THY    HM255333   5.226   6.617   4.334  1.1381 -0.4173  1.2786
18370THY    HM355334   5.254   6.455   4.379 -0.6425 -0.2340  0.7055
18370THY    CA655335   5.478   6.473   4.162  0.1911 -0.2272 -0.4063
18370THY    HA655336   5.425   6.419   4.084  1.5921 -1.0043 -0.7149
18371THY      O55337   0.426   7.408   2.909 -0.2822  0.9699 -0.2306
18371THY     HO55338   0.443   7.504   2.911 -1.1150 -3.0901  0.1951
18371THY    CA155339   0.351   7.397   2.796 -0.2046  0.0545  0.1611
18371THY    CA255340   0.284   7.277   2.771 -0.1125  0.0965 -0.5046
18371THY    CP155341   0.306   7.158   2.866  0.2058  0.0340 -0.0651
18371THY    HP155342   0.386   7.180   2.938 -0.9845  1.0418  1.1316
18371THY    CP255343   0.339   7.022   2.795 -0.2172  0.9621  0.2728
18371THY    HP255344   0.370   6.954   2.875 -1.0564  1.9785  1.0634
18371THY    HP355345   0.422   7.035   2.723 -0.5429  0.6028  0.3776
18371THY    HP455346   0.262   6.975   2.733  2.3833 -3.5126  1.2272
18371THY    CP355347   0.176   7.129   2.960 -0.8984  0.0637 -0.3099
18371THY    HP555348   0.087   7.098   2.904 -0.6643 -2.0917  2.5385
18371THY    HP655349   0.146   7.220   3.015 -0.4383 -0.9224  0.4548
18371THY    HP755350   0.200   7.055   3.037  1.8602 -1.8449 -1.5517
18371THY    CA355351   0.210   7.266   2.651 -1.1278 -0.1246 -0.3685
18371THY    HA355352   0.163   7.170   2.629  1.6365 -1.2698 -1.5813
18371THY    CA455353   0.194   7.378   2.570 -0.3145 -0.2796  0.1500
18371THY    HA455354   0.143   7.368   2.474  1.7835 -1.2975 -2.0691
18371THY    CA555355   0.257   7.498   2.603  0.1818 -0.1056  0.1220
18371THY    CM155356   0.251   7.612   2.507  0.3889  0.1823 -0.5735
18371THY    HM155357   0.269   7.707   2.558  0.0413 -0.4266 -0.1758
18371THY    HM255358   0.156   7.622   2.454  0.0114  0.9224 -0.2316
18371THY    HM355359   0.333   7.592   2.436 -0.5390 -1.7949  2.1104
18371THY    CA655360   0.343   7.502   2.708 -0.1202 -0.5619 -0.3888
18371THY    HA655361   0.397   7.593   2.732  0.5840 -2.0222 -0.4047
18372THY      O55362   8.419   6.067   3.263  0.4685  0.2807 -0.1655
18372THY     HO55363   8.494   6.006   3.263  0.6520  0.5006  0.0558
18372THY    CA155364   8.437   6.152   3.160 -0.0744 -0.2070 -0.2605
18372THY    CA255365   8.328   6.221   3.110 -0.3318  0.8692 -0.4412
18372THY    CP155366   8.188   6.210   3.178  0.5942 -0.4234  0.0214
18372THY    HP155367   8.175   6.119   3.238 -1.9556  0.6785  1.0185
18372THY    CP255368   8.065   6.228   3.089 -0.1908 -0.3617  0.3763
18372THY    HP255369   7.984   6.194   3.155  0.6783  0.7312  0.3616
18372THY    HP355370   8.067   6.164   3.000 -0.9942  1.0468 -1.7262
18372THY    HP455371   8.045   6.336   3.082  3.7885  1.4336  1.4443
18372THY    CP355372   8.191   6.317   3.290  0.1580 -0.2440  0.2574
18372THY    HP555373   8.270   6.298   3.363  0.3419 -0.3103  0.7633
18372THY    HP655374   8.100   6.309   3.352 -0.0944 -0.6949 -0.4527
18372THY    HP755375   8.198   6.417   3.247  2.2132 -2.2686 -0.6811
18372THY    CA355376   8.347   6.311   2.994 -0.7353 -0.5204 -0.4423
18372THY    HA355377   8.267   6.366   2.945 -0.4114 -0.5702 -0.0121
18372THY    CA455378   8.481   6.315   2.940  0.1867 -0.0814 -0.3094
18372THY    HA455379   8.490   6.387   2.859 -0.8086 -0.6275 -0.7755
18372THY    CA555380   8.580   6.229   2.982  1.0041 -0.3920 -0.0362
18372THY    CM155381   8.713   6.250   2.913  0.9266 -0.5079  0.6028
18372THY    HM155382   8.792   6.186   2.954  0.8191  1.6621  1.7568
18372THY    HM255383   8.746   6.352   2.940 -1.8229  0.3937  1.3456
18372THY    HM355384   8.702   6.232   2.806  2.2778 -0.1630 -2.9524
18372THY    CA655385   8.558   6.147   3.097 -0.8976  0.0025 -0.3084
18372THY    HA655386   8.640   6.086   3.133  0.6989  0.5783  2.0377
18373THY      O55387   4.093   3.989   5.044  0.0583 -0.6224 -0.2130
18373THY     HO55388   4.088   3.961   5.137  0.0044 -0.6714 -0.3622
18373THY    CA155389   4.079   3.879   4.968 -0.0710  0.2507  0.2426
18373THY    CA255390   4.084   3.871   4.829  0.6697  0.0312 -0.2792
18373THY    CP155391   4.101   3.992   4.748  0.1453 -0.1757 -0.0064
18373THY    HP155392   4.105   4.077   4.818 -1.0677 -1.7769  1.4239
18373THY    CP255393   3.978   4.027   4.664 -0.5018  0.3603 -0.4478
18373THY    HP255394   4.009   4.110   4.600  0.5851  1.2383 -0.1495
18373THY    HP355395   3.896   4.062   4.727 -0.7942 -0.5076  0.4791
18373THY    HP455396   3.945   3.936   4.612 -0.2947  0.3246 -0.5036
18373THY    CP355397   4.220   3.973   4.662  0.3107  0.1691  0.3467
18373THY    HP555398   4.268   4.058   4.614  0.2852  0.2873  0.4282
18373THY    HP655399   4.195   3.900   4.584  0.2849  1.3040 -0.8912
18373THY    HP755400   4.302   3.925   4.717  1.0858 -1.3038 -0.0892
18373THY    CA355401   4.075   3.737   4.772 -0.2468  0.3252  0.4211
18373THY    HA355402   4.087   3.725   4.665  1.5982  0.1380  2.9569
18373THY    CA455403   4.075   3.619   4.849 -0.0827  0.7521  0.4465
18373THY    HA455404   4.074   3.523   4.799 -1.4598  0.0503  0.7930
18373THY    CA555405   4.070   3.630   4.982 -0.0670  0.1034  1.2978
18373THY    CM155406   4.079   3.499   5.066 -0.0283  0.4544 -0.2310
18373THY    HM155407   4.175   3.504   5.118  0.0559  0.3600 -0.8229
18373THY    HM255408   4.086   3.405   5.011  3.2924  0.2227  0.0311
18373THY    HM355409   3.995   3.481   5.133 -0.2755  0.5144  1.0455
18373THY    CA655410   4.072   3.760   5.040  0.0175 -0.0500  0.5333
18373THY    HA655411   4.087   3.754   5.147 -0.1774 -0.0943 -1.2021
18374THY      O55412   8.213   3.131   5.022  0.3605 -1.0311  1.0302
18374THY     HO55413   8.240   3.080   4.943  2.0859  1.2697 -1.9069
18374THY    CA155414   8.107   3.210   4.996 -0.3365  0.3921 -0.2210
18374THY    CA255415   8.045   3.285   5.098 -0.3430  0.0867 -0.0366
18374THY    CP155416   8.086   3.254   5.245  0.0850  0.3123 -0.2316
18374THY    HP155417   8.193   3.236   5.255  0.4583 -1.2127  0.9309
18374THY    CP255418   8.008   3.131   5.301 -0.3665  0.3392 -0.7116
18374THY    HP255419   7.900   3.149   5.295 -0.6518 -1.2907 -2.6209
18374THY    HP355420   8.020   3.107   5.407 -1.9209  0.6558 -0.1709
18374THY    HP455421   8.040   3.042   5.245  2.8397 -1.4641  1.3894
18374THY    CP355422   8.051   3.376   5.337 -0.7426 -0.6683 -0.1120
18374THY    HP555423   8.121   3.371   5.422 -1.4986 -0.0771 -1.1876
18374THY    HP655424   7.952   3.374   5.383 -0.6195 -0.4249 -1.6597
18374THY    HP755425   8.066   3.474   5.291 -0.0566  2.5281  1.4090
18374THY    CA355426   7.949   3.383   5.064 -0.4922 -0.1511 -0.0054
18374THY    HA355427   7.897   3.436   5.143  0.5301  1.0573 -0.7474
18374THY    CA455428   7.918   3.407   4.929 -0.3662  0.0630 -1.1122
18374THY    HA455429   7.848   3.488   4.912 -0.5183  1.0742 -1.0189
18374THY    CA555430   7.971   3.329   4.826  0.1473 -0.2292 -0.3761
18374THY    CM155431   7.936   3.336   4.672  0.4793 -0.2706  0.5014
18374THY    HM155432   7.837   3.375   4.648  0.7528  0.5827  1.8125
18374THY    HM255433   7.951   3.244   4.616  0.8013  0.4809  0.0836
18374THY    HM355434   8.006   3.402   4.619  0.7043 -0.9268 -0.2420
18374THY    CA655435   8.065   3.222   4.862 -0.5976  0.7673  0.4527
18374THY    HA655436   8.118   3.166   4.786  0.0018 -0.6655  2.8111
18375THY      O55437   8.371   8.694   4.518  0.1636 -0.0257 -1.0601
18375THY     HO55438   8.363   8.635   4.595  0.1928  0.0726 -0.9375
18375THY    CA155439   8.502   8.733   4.506 -0.0335 -0.1036 -0.1693
18375THY    CA255440   8.555   8.784   4.390 -0.6575 -0.0804 -0.5585
18375THY    CP155441   8.479   8.792   4.263  0.1895  0.3914  0.0647
18375THY    HP155442   8.385   8.737   4.279  1.0786  0.9047 -1.3622
18375THY    CP255443   8.553   8.724   4.152 -0.7383  0.2432 -0.1677
18375THY    HP255444   8.483   8.709   4.070  1.2449 -0.9474 -4.6444
18375THY    HP355445   8.582   8.621   4.177  2.3419 -0.5976  0.3960
18375THY    HP455446   8.645   8.777   4.124  0.4535  1.2163 -1.5958
18375THY    CP355447   8.456   8.938   4.226 -0.1540 -0.4990  0.0729
18375THY    HP555448   8.540   8.988   4.177  1.5602 -1.6472 -3.6316
18375THY    HP655449   8.435   8.994   4.318 -0.8266 -0.9775  0.6340
18375THY    HP755450   8.374   8.946   4.153 -0.5868  0.0604  0.8390
18375THY    CA355451   8.696   8.823   4.397 -0.1448  0.4844  0.7951
18375THY    HA355452   8.737   8.883   4.316 -0.0767  0.5029  0.7720
18375THY    CA455453   8.772   8.811   4.509 -0.0672 -0.3149 -0.5502
18375THY    HA455454   8.877   8.838   4.503 -0.3161 -1.0186  0.2789
18375THY    CA555455   8.716   8.747   4.621  0.1538  0.4768  0.2144
18375THY    CM155456   8.813   8.720   4.736 -0.3594 -0.1936 -0.2988
18375THY    HM155457   8.822   8.803   4.807  0.4985  0.2928 -0.7900
18375THY    HM255458   8.916   8.714   4.699 -0.6118 -1.0592  0.5451
18375THY    HM355459   8.783   8.629   4.790  1.4992  4.7057  1.6217
18375THY    CA655460   8.584   8.703   4.616 -0.5389  0.8812 -0.9086
18375THY    HA655461   8.543   8.656   4.705 -2.6754 -1.5225 -4.0443
18376THY      O55462   0.585   8.223   5.621 -0.2081 -0.4479 -0.3608
18376THY     HO55463   0.677   8.245   5.600 -0.4725 -0.3476  0.8793
18376THY    CA155464   0.515   8.316   5.546  0.4545 -0.2678 -0.3407
18376THY    CA255465   0.401   8.376   5.596  1.1019 -0.0253 -0.3644
18376THY    CP155466   0.348   8.341   5.733  0.1464  0.1458  0.2472
18376THY    HP155467   0.390   8.245   5.764 -2.4411 -1.0400 -1.3842
18376THY    CP255468   0.199   8.310   5.726  0.3441 -0.6405 -0.1356
18376THY    HP255469   0.179   8.222   5.663 -4.3669  0.8655 -0.4051
18376THY    HP355470   0.140   8.396   5.693  0.6223  1.2840  0.8505
18376THY    HP455471   0.168   8.300   5.831  1.9502 -0.1394 -0.0942
18376THY    CP355472   0.386   8.443   5.839 -0.6849 -0.4483 -0.4721
18376THY    HP555473   0.335   8.539   5.824  1.2395  0.1713  0.6879
18376THY    HP655474   0.492   8.468   5.840 -0.7270  0.7526 -0.2460
18376THY    HP755475   0.350   8.407   5.936 -0.8249  0.0598  0.9797
18376THY    CA355476   0.348   8.480   5.513 -0.2228  0.2352  0.4110
18376THY    HA355477   0.261   8.541   5.537 -1.1119  0.6329 -0.9662
18376THY    CA455478   0.387   8.496   5.384 -0.7483  0.0526  0.1821
18376THY    HA455479   0.333   8.565   5.320  2.8662 -3.7993 -0.1729
18376THY    CA555480   0.505   8.429   5.331  0.8886  0.3401  1.0023
18376THY    CM155481   0.557   8.450   5.195  0.6125  0.0510  0.8725
18376THY    HM155482   0.526   8.378   5.119  0.6310  0.2392  0.6641
18376THY    HM255483   0.667   8.454   5.200  0.7748  1.4383 -2.1686
18376THY    HM355484   0.525   8.550   5.167  0.1448  2.0536  1.3173
18376THY    CA655485   0.572   8.347   5.422 -0.3688  0.1384 -0.2900
18376THY    HA655486   0.669   8.305   5.398 -0.5517  0.2270 -0.7647
18377THY      O55487   6.430   2.947   5.756 -0.7303 -0.1047  0.1120
18377THY     HO55488   6.415   2.939   5.661 -2.0071 -0.2548  2.8912
18377THY    CA155489   6.534   2.863   5.798 -0.0036  0.7406 -0.1539
18377THY    CA255490   6.595   2.882   5.923  0.2180  0.1948  0.0324
18377THY    CP155491   6.552   2.989   6.014 -0.7594  0.5275  0.1412
18377THY    HP155492   6.513   3.073   5.955  3.9499 -1.9298  0.9375
18377THY    CP255493   6.666   3.058   6.093 -0.2052 -0.7156  0.0833
18377THY    HP255494   6.657   3.166   6.110 -0.9890 -1.1786  0.0992
18377THY    HP355495   6.762   3.048   6.040  0.1057  0.1606 -2.0618
18377THY    HP455496   6.693   2.995   6.178  2.6367 -0.9092  0.8693
18377THY    CP355497   6.436   2.955   6.104 -0.2996 -0.4411  0.2305
18377THY    HP555498   6.470   2.867   6.160  0.5191 -0.5088  0.5012
18377THY    HP655499   6.359   2.926   6.032  0.1912 -0.8268 -0.1309
18377THY    HP755500   6.408   3.037   6.172 -0.1729 -0.5351  0.3508
18377THY    CA355501   6.683   2.784   5.967  0.1886 -0.5988 -0.3249
18377THY    HA355502   6.732   2.784   6.064  0.7357 -0.7996 -2.8125
18377THY    CA455503   6.722   2.685   5.873  0.0875 -0.2284  0.2120
18377THY    HA455504   6.793   2.611   5.906  0.1208 -1.3379 -0.2684
18377THY    CA555505   6.668   2.684   5.738  0.6038  0.7003 -0.2221
18377THY    CM155506   6.702   2.577   5.643 -0.4110  0.5020  0.2037
18377THY    HM155507   6.624   2.501   5.637  0.7599  1.4805 -1.1264
18377THY    HM255508   6.785   2.507   5.663 -2.2063  0.7234 -1.9876
18377THY    HM355509   6.719   2.635   5.552  2.3997 -0.3388 -1.7210
18377THY    CA655510   6.573   2.772   5.704  0.5578  0.1354 -0.4830
18377THY    HA655511   6.531   2.781   5.604 -0.0758  0.3984 -0.4864
18378THY      O55512   7.257   8.243   5.022  0.1493 -0.2063  0.0048
18378THY     HO55513   7.244   8.178   5.093 -2.8470 -0.1746  0.5153
18378THY    CA155514   7.175   8.351   5.061  0.0076 -0.2558  0.1219
18378THY    CA255515   7.186   8.477   5.003  0.6535  0.0430  0.7932
18378THY    CP155516   7.279   8.503   4.880 -0.0288  0.4600  0.1015
18378THY    HP155517   7.293   8.416   4.814  2.7433 -2.2325  2.3901
18378THY    CP255518   7.419   8.555   4.930 -0.0520 -0.5216 -0.6629
18378THY    HP255519   7.452   8.485   5.007  1.9581 -0.7488 -0.0324
18378THY    HP355520   7.412   8.653   4.979  7.5321  1.7834 -0.6214
18378THY    HP455521   7.497   8.562   4.852 -1.7389 -2.3682 -1.3726
18378THY    CP355522   7.217   8.606   4.784  0.7478 -0.3681 -0.8905
18378THY    HP555523   7.225   8.710   4.818 -0.7662  0.4458 -1.0113
18378THY    HP655524   7.112   8.581   4.762  0.7652 -0.3886 -0.9428
18378THY    HP755525   7.272   8.605   4.689  1.2844 -0.0816  0.1278
18378THY    CA355526   7.118   8.584   5.065 -0.4846  0.0853 -0.5483
18378THY    HA355527   7.117   8.683   5.019 -0.9330  1.2496  0.0026
18378THY    CA455528   7.048   8.561   5.187  0.1192  0.2306 -0.0368
18378THY    HA455529   6.990   8.644   5.227  0.5043 -0.0454  0.3641
18378THY    CA555530   7.039   8.430   5.234 -0.0085 -0.4300  0.4584
18378THY    CM155531   6.964   8.394   5.356 -0.2746  0.4807  0.3341
18378THY    HM155532   6.906   8.301   5.346  0.0410 -0.3916  0.2152
18378THY    HM255533   6.893   8.475   5.376  0.3994 -1.5556  1.5031
18378THY    HM355534   7.021   8.382   5.448  0.0592  0.3025  0.5303
18378THY    CA655535   7.109   8.324   5.177 -0.6399  0.2961  0.1385
18378THY    HA655536   7.103   8.228   5.226  0.6889 -2.5272 -1.5106
18379THY      O55537   3.609   0.690   3.263  0.7682  0.0709 -0.5852
18379THY     HO55538   3.547   0.746   3.313  1.2056  0.1069 -0.1309
18379THY    CA155539   3.686   0.628   3.350  0.0939  0.2616  0.2195
18379THY    CA255540   3.792   0.545   3.307 -0.4634 -0.5455 -0.4011
18379THY    CP155541   3.830   0.534   3.160 -0.1709  0.1221  0.0217
18379THY    HP155542   3.785   0.615   3.102 -0.8646 -0.2352 -0.6030
18379THY    CP255543   3.777   0.413   3.096  0.6191  0.5582 -0.0256
18379THY    HP255544   3.668   0.411   3.103  0.6519  1.8664  1.2373
18379THY    HP355545   3.804   0.315   3.136 -1.1096  4.9857  1.0717
18379THY    HP455546   3.807   0.412   2.990 -1.2146  0.0096  0.0052
18379THY    CP355547   3.980   0.553   3.146 -0.2689 -0.0793  0.3213
18379THY    HP555548   4.025   0.459   3.180 -1.9773  1.5586  0.0483
18379THY    HP655549   4.017   0.643   3.195  0.0854 -1.7521  1.1348
18379THY    HP755550   4.006   0.571   3.040 -2.7087 -1.1412 -1.8467
18379THY    CA355551   3.856   0.460   3.407 -0.0339 -0.0094  0.4312
18379THY    HA355552   3.937   0.393   3.379  1.3210 -1.0597  2.4212
18379THY    CA455553   3.814   0.472   3.541 -0.3626  0.0522 -0.2114
18379THY    HA455554   3.863   0.409   3.615 -0.2681  1.4332  1.4267
18379THY    CA555555   3.720   0.567   3.584 -0.6107  0.0775  0.1612
18379THY    CM155556   3.677   0.570   3.724  0.3900  1.1181  0.1529
18379THY    HM155557   3.646   0.672   3.748  0.1762  2.5382 -0.2222
18379THY    HM255558   3.757   0.549   3.796  0.1544  1.4496  0.3882
18379THY    HM355559   3.589   0.507   3.741 -0.7932 -0.7333  1.2288
18379THY    CA655560   3.651   0.638   3.483  0.2256 -0.2819  0.5346
18379THY    HA655561   3.580   0.714   3.515  0.2043 -0.1281  0.4493
18380THY      O55562   5.419   4.178   6.339  0.4442 -0.5700 -0.2291
18380THY     HO55563   5.345   4.130   6.299  1.1898 -1.9471 -0.2948
18380THY    CA155564   5.500   4.074   6.377 -0.1018 -0.3044 -0.0767
18380THY    CA255565   5.635   4.111   6.404  0.2667  0.6235 -0.0953
18380THY    CP155566   5.677   4.256   6.413 -0.0146 -0.1901  0.3141
18380THY    HP155567   5.615   4.325   6.355  1.1307  0.8436  2.3149
18380THY    CP255568   5.822   4.275   6.367  0.0737  0.0133  0.6972
18380THY    HP255569   5.839   4.382   6.349  0.5961  0.6045  0.7169
18380THY    HP355570   5.841   4.230   6.268 -0.4800 -0.1391  0.7984
18380THY    HP455571   5.898   4.251   6.442  0.5253  0.0237  2.0908
18380THY    CP355572   5.673   4.301   6.560  0.0706  0.5373  0.4044
18380THY    HP555573   5.707   4.406   6.568  1.2545 -0.7207  0.1412
18380THY    HP655574   5.742   4.242   6.622 -1.0481 -0.7739 -2.4445
18380THY    HP755575   5.575   4.298   6.608 -0.3738 -0.2572  1.5401
18380THY    CA355576   5.723   4.005   6.453  0.3161 -0.0947 -0.2104
18380THY    HA355577   5.822   4.023   6.493  0.9354 -2.2572  1.5630
18380THY    CA455578   5.677   3.873   6.437  0.2774  0.9268  1.1495
18380THY    HA455579   5.738   3.788   6.465 -2.4658 -1.3716 -1.8136
18380THY    CA555580   5.548   3.845   6.389 -0.4388  0.3922 -0.5038
18380THY    CM155581   5.506   3.701   6.372 -0.0262  0.5251  0.3803
18380THY    HM155582   5.420   3.677   6.436  0.8990  1.9417  0.7056
18380THY    HM255583   5.589   3.637   6.405  0.5965  1.3936  1.5832
18380THY    HM355584   5.477   3.685   6.268  0.3510  0.2128  1.5892
18380THY    CA655585   5.458   3.942   6.364  0.6420  0.6980 -0.4778
18380THY    HA655586   5.356   3.923   6.330  0.0918  0.6911  2.1903
18381THY      O55587   3.561   8.103   2.633 -0.7154 -0.2705 -0.7021
18381THY     HO55588   3.562   8.197   2.658 -1.7630 -2.3351 -0.0832
18381THY    CA155589   3.645   8.040   2.720 -0.1155  0.1022  0.6908
18381THY    CA255590   3.658   7.898   2.724  0.1328  0.1771  0.5329
18381THY    CP155591   3.573   7.813   2.623  0.0358  0.0294  0.0749
18381THY    HP155592   3.497   7.881   2.585  0.6307 -2.1405 -0.4025
18381THY    CP255593   3.506   7.691   2.687 -0.0774  0.2728 -0.4610
18381THY    HP255594   3.425   7.728   2.751  1.3858  1.9733 -0.1090
18381THY    HP355595   3.585   7.631   2.733  1.7248  1.1751  2.3912
18381THY    HP455596   3.467   7.636   2.600  0.1462  0.9824 -1.7753
18381THY    CP355597   3.657   7.773   2.512  0.2516  0.4739  0.2802
18381THY    HP555598   3.725   7.697   2.553  3.1061 -0.7054  2.0694
18381THY    HP655599   3.716   7.852   2.464  0.2374 -0.7645 -0.4332
18381THY    HP755600   3.605   7.726   2.427 -2.7882  0.4524  3.2636
18381THY    CA355601   3.750   7.842   2.812  0.4933  0.2545  0.5235
18381THY    HA355602   3.770   7.735   2.821 -1.3555  0.9512  0.2057
18381THY    CA455603   3.835   7.929   2.884 -0.5764 -0.2843  0.4440
18381THY    HA455604   3.924   7.890   2.933 -0.4359  0.7756  2.0162
18381THY    CA555605   3.832   8.065   2.861  0.1415  0.5832 -0.1313
18381THY    CM155606   3.936   8.149   2.933  0.1872  0.4024 -0.1096
18381THY    HM155607   3.910   8.255   2.934  1.1735 -1.5696  0.1812
18381THY    HM255608   4.038   8.149   2.895 -0.2466 -0.7984  0.7556
18381THY    HM355609   3.940   8.119   3.039  3.2141  1.1300  2.3775
18381THY    CA655610   3.738   8.122   2.777  0.5906  0.7487  0.2503
18381THY    HA655611   3.739   8.228   2.755  0.0724 -0.8579 -0.0418
18382THY      O55612   6.151   8.822   7.737 -0.2638  0.0057  0.0544
18382THY     HO55613   6.117   8.733   7.753 -1.1065 -2.5098 -0.1642
18382THY    CA155614   6.052   8.891   7.672 -0.1039 -0.1332 -0.4038
18382THY    CA255615   6.079   8.999   7.583  0.6877  0.2654  0.1642
18382THY    CP155616   6.225   9.044   7.559  0.1546  0.2288  0.1139
18382THY    HP155617   6.285   9.028   7.650 -1.4420  1.5387  1.2891
18382THY    CP255618   6.249   9.189   7.511 -0.3538 -0.5569  0.1473
18382THY    HP255619   6.354   9.216   7.522 -0.1121 -1.2880 -0.4660
18382THY    HP355620   6.195   9.258   7.576 -0.3981 -0.9044  0.4453
18382THY    HP455621   6.221   9.217   7.409  0.4167 -0.4705  1.3062
18382THY    CP355622   6.281   8.938   7.460 -0.4018 -0.7533  0.3746
18382THY    HP555623   6.242   8.836   7.466 -1.6074 -1.1457  0.8019
18382THY    HP655624   6.391   8.943   7.467 -0.3726 -1.5611  1.3020
18382THY    HP755625   6.252   8.971   7.359 -1.8272 -0.1969  0.8948
18382THY    CA355626   5.976   9.052   7.505  0.5069  0.1293  0.0679
18382THY    HA355627   5.984   9.130   7.431  0.2276 -0.0553 -0.0782
18382THY    CA455628   5.850   9.008   7.530 -0.3639 -0.2696 -0.1930
18382THY    HA455629   5.779   9.065   7.471 -0.1335 -0.8447 -0.4956
18382THY    CA555630   5.815   8.904   7.625  0.1594 -1.0292  0.4390
18382THY    CM155631   5.673   8.869   7.656  0.1850 -0.4886 -0.5072
18382THY    HM155632   5.603   8.919   7.588  0.2406 -2.7702 -3.2692
18382THY    HM255633   5.649   8.895   7.760 -1.9440 -1.6013  2.6805
18382THY    HM355634   5.664   8.760   7.657  0.7069 -0.6900 -0.5538
18382THY    CA655635   5.918   8.846   7.692 -0.6069 -0.6075  0.3122
18382THY    HA655636   5.901   8.768   7.766  0.6860 -1.8491 -1.2158
18383THY      O55637   0.601   2.505   4.122  0.0193  0.2477 -0.5006
18383THY     HO55638   0.540   2.479   4.052  0.3112 -1.4073  2.7798
18383THY    CA155639   0.569   2.433   4.241  0.5001  0.5013 -0.0147
18383THY    CA255640   0.617   2.465   4.368  0.2132 -0.5882 -0.1960
18383THY    CP155641   0.721   2.579   4.380  0.4827  0.7320 -0.7029
18383THY    HP155642   0.705   2.641   4.291  1.3879  0.6235 -0.5983
18383THY    CP255643   0.865   2.524   4.380 -0.0388  0.8644 -0.3004
18383THY    HP255644   0.867   2.471   4.475 -3.6379  0.0739 -2.2380
18383THY    HP355645   0.944   2.598   4.388 -2.0868 -0.0768  2.1374
18383THY    HP455646   0.894   2.458   4.297 -0.0094  2.1456 -1.9524
18383THY    CP355647   0.709   2.664   4.507  0.3745  0.3681 -0.3815
18383THY    HP555648   0.608   2.706   4.512  1.1278 -0.4142  1.6611
18383THY    HP655649   0.781   2.746   4.503 -1.3511  1.2641  1.2665
18383THY    HP755650   0.727   2.605   4.598  1.8429 -0.8102 -1.8443
18383THY    CA355651   0.578   2.387   4.477 -1.1591 -0.1885  0.2151
18383THY    HA355652   0.613   2.410   4.578  0.0667 -0.4418 -0.4340
18383THY    CA455653   0.497   2.279   4.454  0.2349 -0.9163 -0.1627
18383THY    HA455654   0.458   2.223   4.538  0.1652  0.8826  2.3997
18383THY    CA555655   0.447   2.254   4.329  0.1337 -0.1079  0.0762
18383THY    CM155656   0.341   2.143   4.307  0.3423 -0.4194  0.0960
18383THY    HM155657   0.392   2.054   4.267 -1.5255 -1.3572 -0.6127
18383THY    HM255658   0.271   2.192   4.239  1.6192 -0.3379  2.1643
18383THY    HM355659   0.276   2.124   4.393 -0.9656 -1.7145 -1.5764
18383THY    CA655660   0.492   2.321   4.219  0.3665 -0.1373 -0.5058
18383THY    HA655661   0.457   2.289   4.121 -0.7073 -0.0188  0.2378
18384THY      O55662   3.995   6.748   3.117  0.6732 -0.1104 -0.8184
18384THY     HO55663   3.961   6.673   3.170 -2.5284 -1.0292 -0.1701
18384THY    CA155664   4.131   6.749   3.124  0.9656 -0.6096  0.0594
18384THY    CA255665   4.193   6.857   3.179  0.1903 -0.2527  0.0585
18384THY    CP155666   4.106   6.962   3.248  0.2782  0.3246  0.0170
18384THY    HP155667   4.004   6.963   3.208 -0.6729  2.3613 -2.8285
18384THY    CP255668   4.150   7.100   3.198  0.1558  0.4046 -1.1052
18384THY    HP255669   4.162   7.106   3.089  0.2737  0.4455 -0.5280
18384THY    HP355670   4.243   7.137   3.243 -0.3947  0.3511  0.3995
18384THY    HP455671   4.080   7.178   3.229  0.7204 -1.6333  0.2785
18384THY    CP355672   4.102   6.939   3.397 -0.1073  0.1782  0.0785
18384THY    HP555673   4.038   7.017   3.441  0.5218  0.5003  0.4210
18384THY    HP655674   4.196   6.956   3.451 -2.1444  3.8231  0.8726
18384THY    HP755675   4.060   6.838   3.408  1.7158  1.3155 -0.6052
18384THY    CA355676   4.326   6.849   3.206 -0.1354  0.4393 -0.1134
18384THY    HA355677   4.382   6.921   3.265 -0.5324  1.1732 -0.3962
18384THY    CA455678   4.405   6.744   3.157 -0.5280 -0.4985  0.9688
18384THY    HA455679   4.510   6.735   3.183 -0.4001 -0.1200  3.0995
18384THY    CA555680   4.339   6.630   3.109  0.0202  0.3405 -0.5788
18384THY    CM155681   4.424   6.512   3.075  0.3891  0.1219  0.4368
18384THY    HM155682   4.376   6.422   3.034  0.6778  1.9553 -0.6110
18384THY    HM255683   4.463   6.462   3.165 -1.1973  0.3603 -0.4435
18384THY    HM355684   4.493   6.544   2.996 -1.5592 -1.5686  0.6942
18384THY    CA655685   4.201   6.638   3.089  0.2289 -0.1781  0.9488
18384THY    HA655686   4.142   6.553   3.057  0.6060 -0.0820  0.6433
18385THY      O55687   3.401   3.692   5.744  0.3442  0.4274 -0.4106
18385THY     HO55688   3.345   3.639   5.685  1.3674  0.3654 -1.4402
18385THY    CA155689   3.505   3.617   5.776 -0.2934 -0.1017  0.4803
18385THY    CA255690   3.618   3.676   5.822 -0.4680  0.1977  0.7649
18385THY    CP155691   3.625   3.826   5.826  0.2224  0.3144 -0.3138
18385THY    HP155692   3.577   3.862   5.735  0.2306  0.2161 -0.5485
18385THY    CP255693   3.766   3.887   5.836  0.0520  0.2411  0.1475
18385THY    HP255694   3.821   3.852   5.924  1.9767 -0.9453  0.0152
18385THY    HP355695   3.753   3.996   5.830 -1.3561 -0.2165 -0.0232
18385THY    HP455696   3.818   3.849   5.747  0.4357  0.4172  0.2587
18385THY    CP355697   3.536   3.887   5.934 -0.5209 -0.5355  0.0199
18385THY    HP555698   3.596   3.907   6.024 -1.3615 -0.1712  1.0174
18385THY    HP655699   3.463   3.814   5.971 -0.5576 -0.5628  0.0429
18385THY    HP755700   3.475   3.975   5.910 -3.0547 -0.1571 -1.5276
18385THY    CA355701   3.730   3.585   5.848  0.2137  0.0087  0.2034
18385THY    HA355702   3.830   3.622   5.871  0.0921 -0.7399  1.0408
18385THY    CA455703   3.719   3.446   5.839 -0.0385 -0.7077  0.2299
18385THY    HA455704   3.806   3.385   5.858  0.3106  1.1632  1.2464
18385THY    CA555705   3.594   3.387   5.808 -0.4431  0.2759 -0.4341
18385THY    CM155706   3.575   3.243   5.808  0.4003 -0.7931  0.8235
18385THY    HM155707   3.547   3.202   5.906  0.7300 -0.4324  1.4395
18385THY    HM255708   3.668   3.188   5.787  1.3653  0.9709  1.6888
18385THY    HM355709   3.501   3.220   5.731  0.7862 -1.3834  1.4980
18385THY    CA655710   3.484   3.475   5.779 -0.8057 -0.2444  0.5965
18385THY    HA655711   3.384   3.440   5.756 -0.9784  0.3196  0.6961
18386THY      O55712   1.071   7.228   4.585  0.1483 -0.8938  0.1690
18386THY     HO55713   1.098   7.265   4.499  0.9615 -0.8005 -0.1902
18386THY    CA155714   1.089   7.324   4.683 -0.8675  0.1751 -0.9572
18386THY    CA255715   1.023   7.322   4.806 -0.2329 -0.5129 -0.1236
18386THY    CP155716   0.917   7.212   4.829 -0.2032  0.0267  0.0688
18386THY    HP155717   0.925   7.134   4.752 -1.5032  0.6105 -0.6736
18386THY    CP255718   0.770   7.262   4.839 -0.3417  0.0500 -0.0703
18386THY    HP255719   0.761   7.320   4.932  0.0313 -0.1787  0.3643
18386THY    HP355720   0.704   7.177   4.853 -0.8575 -1.1101  0.1232
18386THY    HP455721   0.744   7.300   4.740 -0.5877  0.5214  1.0411
18386THY    CP355722   0.952   7.129   4.962  0.2005  0.7772  0.1730
18386THY    HP555723   0.918   7.025   4.954  1.1160  0.6735 -0.1280
18386THY    HP655724   0.906   7.181   5.047  2.4436  1.1469  1.6913
18386THY    HP755725   1.060   7.134   4.978  0.5576 -1.3576  0.0393
18386THY    CA355726   1.066   7.407   4.912  0.6764  0.4603  0.7480
18386THY    HA355727   1.017   7.398   5.009 -0.4032 -0.2674 -2.9787
18386THY    CA455728   1.174   7.502   4.889 -0.3796  0.0402  0.0382
18386THY    HA455729   1.206   7.558   4.976 -0.4288  0.0961 -0.0203
18386THY    CA555730   1.222   7.516   4.755 -0.3798  0.2842 -0.5051
18386THY    CM155731   1.323   7.618   4.720  0.5815  0.4233 -0.4198
18386THY    HM155732   1.285   7.683   4.640 -0.3355  0.4951 -0.8591
18386THY    HM255733   1.417   7.581   4.677  0.8689 -0.1737  0.9151
18386THY    HM355734   1.345   7.683   4.805 -1.4978  0.3084  0.5092
18386THY    CA655735   1.187   7.422   4.653 -0.3616  0.1039  0.4129
18386THY    HA655736   1.233   7.421   4.555 -1.7448 -0.6091 -1.6050
18387THY      O55737   9.460   1.188   4.333 -0.2344  0.7412 -0.4082
18387THY     HO55738   9.539   1.143   4.299  0.6217 -0.7308  2.0034
18387THY    CA155739   9.358   1.135   4.264  0.3233  0.2506  0.2897
18387THY    CA255740   9.222   1.173   4.282 -0.0367  0.4664 -0.1180
18387THY    CP155741   9.178   1.305   4.356  0.0437 -0.2277  0.6469
18387THY    HP155742   9.076   1.316   4.319 -0.4708  0.4070 -1.4496
18387THY    CP255743   9.239   1.436   4.309 -0.0478  0.3212  0.5433
18387THY    HP255744   9.195   1.521   4.363  1.2955 -0.3728  1.7345
18387THY    HP355745   9.211   1.447   4.204 -0.8044  0.5861  1.2345
18387THY    HP455746   9.349   1.433   4.308 -0.0345 -1.2594  0.6753
18387THY    CP355747   9.171   1.293   4.511 -0.4207  0.8996  0.8223
18387THY    HP555748   9.262   1.237   4.534 -0.2032 -1.5162  0.0463
18387THY    HP655749   9.086   1.232   4.545 -0.4746 -0.8321 -0.1501
18387THY    HP755750   9.164   1.390   4.562  0.3076  0.0724  1.3223
18387THY    CA355751   9.116   1.104   4.209  0.1662  0.1576  0.1754
18387THY    HA355752   9.014   1.142   4.218 -0.4033  1.5148 -1.5141
18387THY    CA455753   9.150   0.999   4.126 -0.3699 -0.0674 -0.5333
18387THY    HA455754   9.081   0.956   4.053 -0.3874 -0.6637  0.4894
18387THY    CA555755   9.279   0.946   4.128 -0.2070  0.2447 -0.8095
18387THY    CM155756   9.309   0.825   4.043  0.1429  0.1037  0.0402
18387THY    HM155757   9.236   0.809   3.963  0.1440  0.0915  0.0962
18387THY    HM255758   9.305   0.725   4.090  1.1590 -0.2118 -0.1613
18387THY    HM355759   9.407   0.836   3.994  0.3054  0.1444 -1.0262
18387THY    CA655760   9.381   1.017   4.192  0.7707 -0.3674  0.0643
18387THY    HA655761   9.483   0.983   4.186  0.6061 -0.5428 -0.4092
18388THY      O55762   6.307   1.723   5.886  0.1410  0.1274 -0.1019
18388THY     HO55763   6.303   1.717   5.789 -2.4309  0.1308  0.5531
18388THY    CA155764   6.280   1.599   5.928  0.8992  0.2077 -0.4328
18388THY    CA255765   6.204   1.580   6.050 -0.5322 -0.0438  0.2336
18388THY    CP155766   6.145   1.701   6.133 -0.6698 -0.0709 -0.1670
18388THY    HP155767   6.201   1.795   6.129 -0.9561  2.1764  0.1422
18388THY    CP255768   6.135   1.674   6.273  0.5632  0.3646 -0.6709
18388THY    HP255769   6.068   1.594   6.305  0.1665 -1.4059 -1.0813
18388THY    HP355770   6.101   1.767   6.320 -0.4782 -1.0196 -0.3250
18388THY    HP455771   6.237   1.650   6.306  1.0371  0.0876  0.8325
18388THY    CP355772   6.011   1.739   6.071  0.2793 -0.4227  0.3840
18388THY    HP555773   5.930   1.684   6.121 -0.1744 -1.9662 -0.4205
18388THY    HP655774   5.999   1.721   5.963 -0.9418 -0.6028  2.0723
18388THY    HP755775   6.004   1.847   6.087  3.6249  1.9079  0.4209
18388THY    CA355776   6.195   1.443   6.100 -0.6779 -0.4180  0.3553
18388THY    HA355777   6.135   1.417   6.187  0.7260  0.0831 -1.4053
18388THY    CA455778   6.257   1.336   6.022 -0.4655 -0.0213 -0.0950
18388THY    HA455779   6.251   1.232   6.052  0.7808 -0.1648 -0.2294
18388THY    CA555780   6.338   1.364   5.915  0.2283 -0.4594 -0.2477
18388THY    CM155781   6.403   1.248   5.837 -0.2156  0.8058  0.3451
18388THY    HM155782   6.465   1.190   5.906 -1.8358  2.2348  0.2406
18388THY    HM255783   6.468   1.277   5.753 -2.5049 -0.5794  1.7970
18388THY    HM355784   6.326   1.174   5.815 -0.9109  0.7380  1.0708
18388THY    CA655785   6.336   1.493   5.856  0.1329 -0.5910  0.3380
18388THY    HA655786   6.377   1.515   5.759 -0.5763 -1.4606 -1.8794
18389THY      O55787   5.847   9.007   2.875 -0.5532  0.4675  0.5165
18389THY     HO55788   5.787   8.937   2.907  1.2502  0.4642 -1.1188
18389THY    CA155789   5.771   9.119   2.851 -0.0380  0.0333 -0.2003
18389THY    CA255790   5.821   9.245   2.811 -0.5871 -0.3670 -1.0348
18389THY    CP155791   5.968   9.244   2.778 -0.0538  0.0191 -0.4284
18389THY    HP155792   6.000   9.145   2.744 -0.9627  1.9651 -1.4369
18389THY    CP255793   6.048   9.298   2.894 -0.4984  0.0157 -0.2602
18389THY    HP255794   6.013   9.399   2.920 -0.8815  0.1636 -0.4302
18389THY    HP355795   6.154   9.306   2.869 -0.8881 -1.1223  2.2122
18389THY    HP455796   6.053   9.238   2.986  1.0701  0.2025  0.0994
18389THY    CP355797   5.998   9.342   2.658  0.1089  0.5656 -0.5330
18389THY    HP555798   6.104   9.340   2.631 -0.2122 -0.8168 -0.1243
18389THY    HP655799   5.972   9.447   2.675 -0.7639  0.4735 -0.7235
18389THY    HP755800   5.943   9.303   2.571 -1.1203  0.8714  0.4580
18389THY    CA355801   5.735   9.352   2.779  0.3967 -0.0472  0.5197
18389THY    HA355802   5.780   9.441   2.737  1.6692  0.0298 -0.0723
18389THY    CA455803   5.594   9.330   2.797 -0.1027  0.2718  0.4957
18389THY    HA455804   5.528   9.414   2.775 -0.1283  2.1946  1.0201
18389THY    CA555805   5.543   9.206   2.838 -0.2743  0.8222  0.0735
18389THY    CM155806   5.396   9.179   2.828 -0.9037 -0.1743 -0.0886
18389THY    HM155807   5.343   9.261   2.777  2.0484 -0.1104  2.0293
18389THY    HM255808   5.358   9.182   2.930 -1.5751 -0.4137 -0.2334
18389THY    HM355809   5.382   9.074   2.800  1.2137  1.2425 -0.7998
18389THY    CA655810   5.632   9.105   2.868 -0.2148  0.4619 -0.1326
18389THY    HA655811   5.591   9.008   2.897 -0.2718  0.6287 -0.0586
18390THY      O55812   6.450   1.973   4.672 -0.0226  0.2118 -0.6255
18390THY     HO55813   6.353   1.978   4.684  0.0277  0.2488  0.7506
18390THY    CA155814   6.468   2.042   4.554 -0.2330 -0.4025 -0.3842
18390THY    CA255815   6.590   2.032   4.477  0.2622  0.5372  0.2791
18390THY    CP155816   6.706   1.950   4.526 -0.0124  0.2233  0.7467
18390THY    HP155817   6.666   1.872   4.591  1.0787 -0.9692 -0.8625
18390THY    CP255818   6.822   2.019   4.605  0.7889 -0.7503 -0.1021
18390THY    HP255819   6.881   2.097   4.555  0.8826  1.9706  1.6867
18390THY    HP355820   6.895   1.942   4.635 -0.0048  0.4887 -0.3983
18390THY    HP455821   6.777   2.068   4.692  0.2307 -1.5370  0.7960
18390THY    CP355822   6.778   1.893   4.399  0.5737  0.6995 -0.1481
18390THY    HP555823   6.860   1.957   4.364 -1.4175  0.1719  2.2261
18390THY    HP655824   6.716   1.866   4.313  0.5938  0.5888  0.1556
18390THY    HP755825   6.830   1.800   4.428 -1.0469 -0.0043 -1.3128
18390THY    CA355826   6.604   2.119   4.365  0.4224 -0.0687  0.1122
18390THY    HA355827   6.687   2.115   4.295 -1.3751 -2.3528  0.5730
18390THY    CA455828   6.492   2.190   4.325 -0.3564 -0.1204 -0.1108
18390THY    HA455829   6.505   2.257   4.240  1.2603 -0.0412 -0.2765
18390THY    CA555830   6.375   2.200   4.409  0.5579  0.0299  0.0538
18390THY    CM155831   6.262   2.288   4.354 -0.1971 -0.0318  0.4963
18390THY    HM155832   6.188   2.295   4.435  0.3202  0.6952 -1.8472
18390THY    HM255833   6.208   2.241   4.270  0.9939 -0.8916  0.6202
18390THY    HM355834   6.308   2.380   4.315  1.2738 -0.4386 -0.3889
18390THY    CA655835   6.360   2.120   4.520 -0.6390  0.3546 -1.2356
18390THY    HA655836   6.275   2.138   4.585  0.5654  1.3374  1.3543
18391THY      O55837   7.493   5.284   3.528 -0.1487 -0.2415  0.3312
18391THY     HO55838   7.577   5.302   3.572 -0.6276  0.6024  0.5577
18391THY    CA155839   7.413   5.238   3.627  0.5784  0.0873  0.2767
18391THY    CA255840   7.303   5.155   3.594 -0.2313  0.6110 -0.3146
18391THY    CP155841   7.291   5.094   3.457  0.0106  0.5847  1.0220
18391THY    HP155842   7.333   5.149   3.372 -0.4406 -1.1757 -1.1841
18391THY    CP255843   7.145   5.082   3.417 -0.3749  0.0571  0.5546
18391THY    HP255844   7.104   4.989   3.458  2.8303  0.4974 -0.7906
18391THY    HP355845   7.152   5.081   3.308 -0.4738 -0.0437  3.0711
18391THY    HP455846   7.085   5.171   3.443 -2.8959 -3.1739  0.0315
18391THY    CP355847   7.353   4.956   3.450  0.2754 -0.8184  0.3072
18391THY    HP555848   7.330   4.893   3.537  1.9815  0.1227  0.9187
18391THY    HP655849   7.462   4.972   3.452  0.4804  1.8250 -0.8415
18391THY    HP755850   7.322   4.905   3.359 -0.6614 -0.7815  0.7966
18391THY    CA355851   7.218   5.123   3.696 -0.9805  0.3918 -0.2706
18391THY    HA355852   7.126   5.071   3.672 -0.3911 -1.0599 -0.7099
18391THY    CA455853   7.246   5.167   3.826  0.7564 -0.4084  0.0866
18391THY    HA455854   7.179   5.131   3.903 -0.0697 -1.7344 -1.3593
18391THY    CA555855   7.344   5.260   3.854 -0.4227 -0.3499 -0.1161
18391THY    CM155856   7.361   5.323   3.989 -0.2009 -0.5907 -0.0554
18391THY    HM155857   7.459   5.366   4.011 -0.5140 -0.7709  0.7829
18391THY    HM255858   7.335   5.247   4.064 -2.2972  0.4043  1.5399
18391THY    HM355859   7.291   5.407   4.001  0.8388 -0.0537  0.7560
18391THY    CA655860   7.438   5.291   3.753 -0.1174  0.2658 -0.6724
18391THY    HA655861   7.512   5.368   3.769 -1.7173 -2.9880  1.8239
18392THY      O55862   8.144   2.274   2.108  0.2722  0.3044  0.2849
18392THY     HO55863   8.059   2.259   2.063  1.4823 -2.3814  0.8366
18392THY    CA155864   8.130   2.221   2.230 -0.4008  0.0325  0.0455
18392THY    CA255865   8.182   2.284   2.339 -0.5499 -0.0633 -0.1288
18392THY    CP155866   8.274   2.411   2.326 -0.3572 -0.2590 -0.3278
18392THY    HP155867   8.333   2.399   2.234  1.1455  0.8741 -2.3807
18392THY    CP255868   8.391   2.419   2.433  0.4860 -0.4837  0.4476
18392THY    HP255869   8.470   2.487   2.400  0.7328 -0.9780 -0.0747
18392THY    HP355870   8.431   2.318   2.451  1.3897  1.8497  1.1542
18392THY    HP455871   8.350   2.451   2.529  2.0958  1.1729 -2.1088
18392THY    CP355872   8.188   2.533   2.308  0.0644 -0.1077  0.2383
18392THY    HP555873   8.103   2.517   2.242 -0.4195  0.3729  0.7970
18392THY    HP655874   8.255   2.601   2.254  0.6151 -0.7857 -0.8067
18392THY    HP755875   8.151   2.566   2.406  0.4094  1.2315 -2.9696
18392THY    CA355876   8.143   2.239   2.466  0.5157 -0.3057 -0.0171
18392THY    HA355877   8.187   2.288   2.553  1.9154 -0.5589 -0.7652
18392THY    CA455878   8.058   2.125   2.485  0.0541  0.2831 -0.1126
18392THY    HA455879   8.032   2.077   2.578 -0.3542 -0.9527 -2.4119
18392THY    CA555880   8.020   2.057   2.372  0.2271 -0.1544  1.1684
18392THY    CM155881   7.936   1.928   2.398 -0.0315  0.6885 -0.1466
18392THY    HM155882   7.885   1.918   2.495 -0.2794  0.3491 -3.4296
18392THY    HM255883   7.991   1.835   2.379  1.8618 -2.2660  1.4037
18392THY    HM355884   7.847   1.932   2.333  0.3718  0.1896  1.4009
18392THY    CA655885   8.044   2.115   2.248  0.7878  0.0098  0.6823
18392THY    HA655886   8.005   2.067   2.158 -0.4617  0.4733  0.8134
18393THY      O55887   5.767   0.380   6.323 -0.1894  0.1809 -0.1717
18393THY     HO55888   5.745   0.450   6.387 -1.9457 -0.5037 -0.0438
18393THY    CA155889   5.748   0.433   6.198 -0.4811  0.0772 -0.2145
18393THY    CA255890   5.836   0.404   6.086 -0.1658  0.1094  0.4514
18393THY    CP155891   5.976   0.344   6.106 -0.0803  0.1158  0.4755
18393THY    HP155892   5.978   0.303   6.208 -0.4804 -0.1033 -0.1110
18393THY    CP255893   6.078   0.459   6.109  0.4058 -0.0629 -0.7146
18393THY    HP255894   6.074   0.516   6.016 -2.3671  0.9431  0.9551
18393THY    HP355895   6.182   0.430   6.128  1.6530 -2.6387  1.6557
18393THY    HP455896   6.045   0.529   6.187 -1.8715 -0.2926 -1.4804
18393THY    CP355897   6.023   0.245   5.992  0.1631 -0.8401  0.2730
18393THY    HP555898   5.976   0.146   6.002 -0.8823  0.1485  0.8465
18393THY    HP655899   6.131   0.229   6.004  0.4100  2.0042  3.1512
18393THY    HP755900   5.998   0.278   5.891 -0.3860 -1.4476 -1.8453
18393THY    CA355901   5.798   0.463   5.956  0.0882 -0.2202 -0.2045
18393THY    HA355902   5.852   0.453   5.862 -2.0369 -1.6219  0.7605
18393THY    CA455903   5.681   0.535   5.937  0.5172 -0.3362  0.1059
18393THY    HA455904   5.645   0.570   5.840 -1.7911 -0.1358 -1.4634
18393THY    CA555905   5.598   0.565   6.050 -0.0968 -0.6817  0.1530
18393THY    CM155906   5.466   0.638   6.024  0.2602  0.1560  0.5581
18393THY    HM155907   5.447   0.648   5.917  0.4541  0.3253  3.6099
18393THY    HM255908   5.470   0.735   6.074  0.3883  1.4621 -0.0964
18393THY    HM355909   5.377   0.588   6.065  0.4195  1.3886  1.2441
18393THY    CA655910   5.630   0.507   6.170  0.6879  0.8245  0.1190
18393THY    HA655911   5.548   0.504   6.241 -1.4285 -1.5028 -1.4150
18394THY      O55912   3.927   7.609   4.118 -0.7764  0.2262  0.0422
18394THY     HO55913   3.936   7.684   4.057 -2.0732  0.1557  0.1749
18394THY    CA155914   4.036   7.606   4.188  0.0263  0.6498 -0.0802
18394THY    CA255915   4.085   7.483   4.232 -0.3630  0.1845  0.2072
18394THY    CP155916   4.011   7.351   4.225  0.1175 -0.1550  0.3438
18394THY    HP155917   3.904   7.366   4.241  0.3290  1.1241  0.6543
18394THY    CP255918   4.051   7.238   4.319  0.1661 -0.1214  0.4105
18394THY    HP255919   4.052   7.274   4.423  1.3315 -0.2076  0.6904
18394THY    HP355920   4.150   7.200   4.289  0.2655  2.2135 -1.3486
18394THY    HP455921   3.981   7.155   4.304  1.1015 -0.2741 -0.3678
18394THY    CP355922   4.011   7.297   4.086 -0.3960  0.4354 -0.1112
18394THY    HP555923   3.964   7.378   4.029 -1.2064 -0.6345 -1.3000
18394THY    HP655924   3.953   7.204   4.085  0.3901 -0.5081 -0.5997
18394THY    HP755925   4.111   7.282   4.044 -0.7119 -0.6159  0.6101
18394THY    CA355926   4.212   7.493   4.305 -0.1738 -0.0919  0.0946
18394THY    HA355927   4.253   7.402   4.347 -2.7725  2.3960 -0.0775
18394THY    CA455928   4.274   7.622   4.321 -0.5783  0.7702  0.7655
18394THY    HA455929   4.362   7.627   4.385 -0.1743  0.3598 -0.6488
18394THY    CA555930   4.223   7.739   4.258 -0.7702  0.9974  1.0483
18394THY    CM155931   4.288   7.872   4.254 -0.2683 -0.4864 -0.2320
18394THY    HM155932   4.398   7.865   4.260 -0.2520 -1.6668 -1.2895
18394THY    HM255933   4.259   7.925   4.346  2.0229 -0.2827  0.8046
18394THY    HM355934   4.271   7.936   4.167  2.8865 -0.8497  0.3122
18394THY    CA655935   4.100   7.728   4.197  0.1454 -0.0189 -0.0486
18394THY    HA655936   4.058   7.824   4.168 -0.1935  1.0763  0.1375
18395THY      O55937   0.849   6.734   6.705 -0.2247 -0.6272  0.0337
18395THY     HO55938   0.910   6.807   6.721 -0.5455  1.5509 -0.1214
18395THY    CA155939   0.927   6.656   6.631 -0.5238 -0.1708 -0.0151
18395THY    CA255940   0.893   6.567   6.528 -0.5688  0.0270  0.2525
18395THY    CP155941   0.751   6.549   6.482 -0.5042  0.2852  0.4652
18395THY    HP155942   0.687   6.628   6.522  0.7414 -0.6709  2.0012
18395THY    CP255943   0.701   6.416   6.533  0.4603 -0.5291  1.3081
18395THY    HP255944   0.711   6.418   6.642  0.2360 -0.4600 -0.0542
18395THY    HP355945   0.761   6.333   6.494  1.1956  0.6026  1.2906
18395THY    HP455946   0.596   6.401   6.505  0.5879 -0.3038 -0.2100
18395THY    CP355947   0.735   6.566   6.328  0.3070 -0.6124 -0.3258
18395THY    HP555948   0.795   6.495   6.270  0.5526  0.3530 -0.9219
18395THY    HP655949   0.750   6.670   6.294 -1.0578  0.7906  0.3807
18395THY    HP755950   0.630   6.541   6.309 -0.0739 -1.0700  1.4211
18395THY    CA355951   0.994   6.490   6.456 -0.3000  0.3861 -0.7857
18395THY    HA355952   0.961   6.424   6.376 -0.6544 -0.0318 -0.1077
18395THY    CA455953   1.131   6.508   6.489  0.0391  0.8323  0.0772
18395THY    HA455954   1.212   6.458   6.437 -0.7336  0.1150 -0.4719
18395THY    CA555955   1.164   6.593   6.595 -0.7032  0.7469 -0.2666
18395THY    CM155956   1.309   6.624   6.620 -0.2659  0.2841 -0.4031
18395THY    HM155957   1.377   6.605   6.536 -1.3045 -0.1099 -2.6580
18395THY    HM255958   1.345   6.563   6.704 -0.1131  1.8207  1.6831
18395THY    HM355959   1.317   6.727   6.657 -2.1253 -1.5014  0.4572
18395THY    CA655960   1.062   6.663   6.673  0.1589  0.0578  0.6669
18395THY    HA655961   1.090   6.735   6.749  1.3450 -0.1582  0.4566
18396THY      O55962   5.228   5.303   5.277  0.1150  0.3302  0.4622
18396THY     HO55963   5.252   5.374   5.215 -2.9346 -0.4560  0.9473
18396THY    CA155964   5.147   5.222   5.208  0.2309 -0.1077  0.9237
18396THY    CA255965   5.078   5.114   5.268  0.4814  0.7213  0.2617
18396THY    CP155966   5.086   5.081   5.418  0.1235  0.1991  0.2506
18396THY    HP155967   5.172   5.134   5.460 -0.3444  0.9821  0.4086
18396THY    CP255968   5.112   4.923   5.445  0.1916  0.0097 -0.4239
18396THY    HP255969   5.146   4.893   5.544  0.0217 -0.2705 -1.5920
18396THY    HP355970   5.204   4.891   5.396 -0.4928 -0.6145 -1.4947
18396THY    HP455971   5.023   4.864   5.418  0.2937 -0.2502 -0.4594
18396THY    CP355972   4.975   5.124   5.504  0.0875  0.5802  0.4655
18396THY    HP555973   4.927   5.219   5.477 -0.8505 -0.6803 -0.3262
18396THY    HP655974   5.006   5.134   5.608 -0.3363  0.6886  0.6907
18396THY    HP755975   4.901   5.044   5.494  2.0391 -0.6993 -1.2861
18396THY    CA355976   4.987   5.045   5.189 -0.0849  0.0051  1.3113
18396THY    HA355977   4.916   4.976   5.233 -0.5419  1.5497  2.7145
18396THY    CA455978   4.987   5.060   5.052 -0.5194 -0.8592 -0.3445
18396THY    HA455979   4.925   5.001   4.985  1.3881 -1.8369 -1.3495
18396THY    CA555980   5.068   5.166   4.995 -0.3073 -0.2033  1.4257
18396THY    CM155981   5.051   5.183   4.845 -0.4034  0.2634  0.0639
18396THY    HM155982   5.117   5.114   4.791 -1.9686 -2.3738  0.5074
18396THY    HM255983   5.086   5.285   4.826  0.9793  0.5942 -0.3131
18396THY    HM355984   4.951   5.161   4.808 -0.0463  0.9331 -3.1548
18396THY    CA655985   5.142   5.250   5.075  0.1404  0.1398 -0.0194
18396THY    HA655986   5.211   5.318   5.025  0.0928 -1.0104 -0.7832
18397THY      O55987   6.706   8.427   4.486 -0.1878 -0.7798  0.5489
18397THY     HO55988   6.736   8.397   4.398  0.9232 -0.1640 -0.2127
18397THY    CA155989   6.792   8.376   4.581 -0.2543 -0.1030 -0.3291
18397THY    CA255990   6.772   8.392   4.719  0.1222  0.5597  0.5306
18397THY    CP155991   6.660   8.479   4.770 -0.4301 -0.8460 -0.3631
18397THY    HP155992   6.608   8.540   4.695  0.0770  0.2002  1.4050
18397THY    CP255993   6.702   8.589   4.872 -0.5157 -0.8309  0.8880
18397THY    HP255994   6.621   8.663   4.872 -0.2975 -2.7773  1.1722
18397THY    HP355995   6.792   8.635   4.829 -0.4330 -0.2766  1.2617
18397THY    HP455996   6.725   8.539   4.967 -0.1816 -1.0477  0.6282
18397THY    CP355997   6.551   8.394   4.839  0.4011  0.8733  0.0216
18397THY    HP555998   6.484   8.452   4.903  0.8067  0.2706  1.1848
18397THY    HP655999   6.597   8.316   4.901  0.5384 -0.7604 -1.2535
18397THY    HP756000   6.493   8.345   4.760  3.9291 -1.5161 -0.6793
18397THY    CA356001   6.858   8.331   4.809 -0.0151 -0.4593 -0.4849
18397THY    HA356002   6.835   8.346   4.914  2.9917  0.1684  0.2785
18397THY    CA456003   6.969   8.258   4.767 -0.2843 -0.0584 -0.4878
18397THY    HA456004   7.042   8.216   4.837 -2.0583  1.1904 -1.6338
18397THY    CA556005   6.997   8.265   4.629 -0.2041  0.2819  0.5016
18397THY    CM156006   7.131   8.210   4.593 -0.1733 -0.1687  0.3940
18397THY    HM156007   7.148   8.216   4.485 -2.6982 -0.6428  0.1394
18397THY    HM256008   7.158   8.111   4.631 -0.3169  0.3376  0.5462
18397THY    HM356009   7.211   8.277   4.627  0.4291 -1.6964  0.4878
18397THY    CA656010   6.912   8.320   4.538 -0.2463  0.3015 -0.0292
18397THY    HA656011   6.945   8.328   4.435 -1.0538 -0.0094 -0.5748
18398THY      O56012   4.523   1.152   4.966 -0.0941  0.4267 -0.0997
18398THY     HO56013   4.435   1.162   4.926 -0.4044  0.3409 -2.5528
18398THY    CA156014   4.484   1.111   5.092 -0.1066  0.4630  0.9494
18398THY    CA256015   4.573   1.053   5.178  0.1652 -0.6292  0.5863
18398THY    CP156016   4.720   1.025   5.139 -0.7831 -0.4056  0.3328
18398THY    HP156017   4.722   0.965   5.048 -1.6948  0.2840 -0.7860
18398THY    CP256018   4.797   0.935   5.230  0.4924  0.5537 -0.6497
18398THY    HP256019   4.752   0.836   5.240 -0.6663 -2.3859 -0.5263
18398THY    HP356020   4.818   0.970   5.332  0.1941 -0.1932  1.9855
18398THY    HP456021   4.895   0.930   5.181  0.8211  0.8909  1.3051
18398THY    CP356022   4.810   1.154   5.124  0.7951 -1.0591 -0.3382
18398THY    HP556023   4.769   1.237   5.067 -0.9278  2.8291  1.7373
18398THY    HP656024   4.912   1.133   5.088  1.6590  1.5909 -1.1163
18398THY    HP756025   4.826   1.204   5.220 -0.4751 -0.8052 -0.3975
18398THY    CA356026   4.531   1.017   5.307  0.2899  0.4501 -0.0353
18398THY    HA356027   4.598   0.970   5.378  2.5049  0.0791  2.3412
18398THY    CA456028   4.390   1.036   5.339 -0.2082 -0.8538  0.4540
18398THY    HA456029   4.350   1.017   5.437 -1.5207 -1.4287  0.1819
18398THY    CA556030   4.293   1.082   5.240 -0.2755 -0.4808 -0.2341
18398THY    CM156031   4.143   1.094   5.266  0.5832  0.3899  0.2842
18398THY    HM156032   4.096   1.039   5.348 -1.1069  0.1295  1.2719
18398THY    HM256033   4.087   1.065   5.175  0.6977  0.9918 -2.0403
18398THY    HM356034   4.116   1.195   5.299 -0.0629  0.4059  0.1093
18398THY    CA656035   4.337   1.126   5.115 -0.3578 -0.0116  0.0534
18398THY    HA656036   4.265   1.172   5.046  0.9628 -1.0423  0.6534
18399THY      O56037   5.369   2.135   1.970  0.1588  0.0235 -0.1374
18399THY     HO56038   5.459   2.114   1.940  0.4551  2.5949 -3.5047
18399THY    CA156039   5.391   2.173   2.098  0.1893  0.2758  0.4745
18399THY    CA256040   5.315   2.110   2.195  0.2427 -1.2484 -0.0898
18399THY    CP156041   5.199   2.019   2.158 -0.2762 -0.4225  0.4097
18399THY    HP156042   5.162   2.057   2.062  0.2378 -0.0923  1.8517
18399THY    CP256043   5.076   2.034   2.260 -0.7197 -0.5193  0.8289
18399THY    HP256044   4.988   1.996   2.207 -0.6356  1.2756 -2.1077
18399THY    HP356045   5.064   2.141   2.280 -3.4376  0.4241  0.4162
18399THY    HP456046   5.108   1.973   2.345 -0.2162  0.2300  2.0937
18399THY    CP356047   5.245   1.869   2.141  0.1856 -0.6018 -0.6449
18399THY    HP556048   5.257   1.815   2.236  1.9810 -1.2647 -1.4868
18399THY    HP656049   5.343   1.867   2.092  1.0769  1.0143  0.6341
18399THY    HP756050   5.179   1.809   2.077  2.4524 -0.6825 -3.2590
18399THY    CA356051   5.340   2.144   2.334  0.0793  0.2155  0.1265
18399THY    HA356052   5.282   2.094   2.411 -1.2622 -0.6178  0.3676
18399THY    CA456053   5.453   2.229   2.359  0.2686 -0.0256  0.2612
18399THY    HA456054   5.482   2.255   2.460  1.4931 -0.6359  1.3516
18399THY    CA556055   5.514   2.296   2.259  0.3243  0.2918  0.1245
18399THY    CM156056   5.634   2.388   2.289  0.1983  0.0695 -0.5150
18399THY    HM156057   5.665   2.464   2.216  1.7931  0.1364 -1.0695
18399THY    HM256058   5.724   2.337   2.324  1.4177  1.2303  2.1865
18399THY    HM356059   5.608   2.446   2.379  0.4135 -0.7012  0.8311
18399THY    CA656060   5.489   2.262   2.131  0.5271  0.0586  0.9341
18399THY    HA656061   5.545   2.307   2.050  1.1644  0.5788  1.0896
18400THY      O56062   0.874   3.671   3.539 -0.5482 -0.1622 -0.3365
18400THY     HO56063   0.853   3.653   3.445 -1.7715 -0.0891  0.5688
18400THY    CA156064   1.003   3.670   3.564 -0.6759  0.8464 -0.1876
18400THY    CA256065   1.054   3.758   3.654  0.0586  1.1861 -0.1327
18400THY    CP156066   0.969   3.843   3.749  0.7288  0.2333 -0.1004
18400THY    HP156067   0.877   3.874   3.698  0.7299  0.5367  0.4112
18400THY    CP256068   1.024   3.981   3.775  0.5133  0.0639  1.2280
18400THY    HP256069   1.125   3.973   3.816  0.3274  0.1209 -2.0548
18400THY    HP356070   0.959   4.040   3.842 -0.9729  0.0874 -0.3570
18400THY    HP456071   1.024   4.042   3.684  1.1862  0.0928  1.2760
18400THY    CP356072   0.925   3.767   3.875  0.2031 -0.2528 -0.8041
18400THY    HP556073   0.868   3.837   3.937 -1.3378 -1.2608 -1.1036
18400THY    HP656074   1.009   3.728   3.933  2.6307 -1.3444  2.4208
18400THY    HP756075   0.860   3.681   3.853 -0.0525  1.4404 -1.0789
18400THY    CA356076   1.197   3.758   3.672  0.3474  0.5004 -0.2593
18400THY    HA356077   1.242   3.819   3.749  0.8599 -0.2614  0.3291
18400THY    CA456078   1.278   3.686   3.582 -0.1037  0.8061  0.2617
18400THY    HA456079   1.386   3.684   3.592  0.0667 -0.5381  1.3105
18400THY    CA556080   1.221   3.601   3.486 -0.1201  0.7136  0.0883
18400THY    CM156081   1.305   3.533   3.388  0.1966  0.1644  0.7951
18400THY    HM156082   1.349   3.443   3.432 -0.9663 -0.3199 -0.0247
18400THY    HM256083   1.386   3.604   3.364  1.0916 -0.4887 -0.4165
18400THY    HM356084   1.256   3.501   3.296  0.6963  0.6647 -1.6224
18400THY    CA656085   1.078   3.591   3.473  1.0852 -0.9093 -0.0066
18400THY    HA656086   1.026   3.531   3.398 -0.1669 -1.0922  1.2620
18401THY      O56087   4.464   7.350   6.537  0.6164  0.4228  0.2945
18401THY     HO56088   4.454   7.259   6.569 -0.5179  1.7599  0.8666
18401THY    CA156089   4.427   7.351   6.410 -0.0727 -0.2184 -0.0290
18401THY    CA256090   4.474   7.446   6.321  0.6740  0.5920  0.6427
18401THY    CP156091   4.568   7.554   6.357 -0.8632  0.4414 -0.1460
18401THY    HP156092   4.619   7.537   6.452 -0.1597  0.1631  0.3518
18401THY    CP256093   4.488   7.677   6.379  0.5018 -0.0343 -0.2847
18401THY    HP256094   4.541   7.769   6.408 -0.9713 -1.1983  0.9764
18401THY    HP356095   4.417   7.666   6.462 -0.9358 -0.9203  1.6871
18401THY    HP456096   4.431   7.711   6.292 -0.9640 -0.0120 -2.5031
18401THY    CP356097   4.673   7.592   6.252 -0.1535 -0.0471 -0.3712
18401THY    HP556098   4.713   7.498   6.211  3.7940 -0.3968  1.2499
18401THY    HP656099   4.739   7.661   6.306  0.5189 -0.2100 -0.8791
18401THY    HP756100   4.636   7.638   6.160 -1.1538 -1.2163 -3.3268
18401THY    CA356101   4.424   7.430   6.185  0.1462  0.1124  0.3675
18401THY    HA356102   4.446   7.512   6.117 -0.6811  0.3226  0.7748
18401THY    CA456103   4.324   7.334   6.147 -0.4354  0.5226 -0.3699
18401THY    HA456104   4.282   7.341   6.048 -0.4781  0.6079  0.8543
18401THY    CA556105   4.279   7.252   6.238 -0.0533  0.2084  0.5204
18401THY    CM156106   4.174   7.154   6.213  0.6915  0.4465  0.1342
18401THY    HM156107   4.089   7.191   6.272  0.6492  0.4226  0.0740
18401THY    HM256108   4.203   7.055   6.250 -1.7260  1.5083 -0.2459
18401THY    HM356109   4.147   7.147   6.107 -0.5788  0.6641  1.2108
18401THY    CA656110   4.327   7.264   6.368 -0.2415 -0.4831  0.2768
18401THY    HA656111   4.292   7.199   6.447 -0.6264  2.1031  3.3426
18402THY      O56112   0.659   6.702   7.264  0.0592 -0.3888 -0.6841
18402THY     HO56113   0.591   6.710   7.195 -0.7455  0.5575  1.7037
18402THY    CA156114   0.730   6.583   7.241 -0.0737 -0.4192 -0.7161
18402THY    CA256115   0.778   6.495   7.342  0.0519  0.6263  0.0418
18402THY    CP156116   0.719   6.515   7.481 -0.0860  0.4208 -0.9000
18402THY    HP156117   0.690   6.621   7.493  0.5205 -0.8160 -0.5779
18402THY    CP256118   0.816   6.478   7.591 -0.3744  0.2077 -0.0167
18402THY    HP256119   0.912   6.531   7.588  0.3180  0.2748 -1.2177
18402THY    HP356120   0.847   6.372   7.596  1.4437 -0.3391  0.4418
18402THY    HP456121   0.776   6.506   7.690  1.7562  0.6455  1.7972
18402THY    CP356122   0.598   6.433   7.507 -0.0140 -0.0604  0.2403
18402THY    HP556123   0.610   6.325   7.489 -2.7464 -2.5422  0.2245
18402THY    HP656124   0.524   6.474   7.438 -0.1316  0.2003  0.4673
18402THY    HP756125   0.552   6.445   7.606  0.4676  0.1624  0.2639
18402THY    CA356126   0.856   6.377   7.308  0.0870 -0.7765  0.3174
18402THY    HA356127   0.874   6.302   7.385 -1.3625  0.8241  1.5296
18402THY    CA456128   0.882   6.346   7.169  0.0476  0.1401  0.1878
18402THY    HA456129   0.924   6.252   7.137 -1.1451  1.7654 -0.9498
18402THY    CA556130   0.848   6.440   7.067  0.5154  0.1688 -0.3473
18402THY    CM156131   0.860   6.421   6.919 -0.1221  0.8471 -0.1654
18402THY    HM156132   0.876   6.321   6.879 -0.2949 -1.5692  0.7248
18402THY    HM256133   0.938   6.485   6.876  0.4491  1.5120 -0.3987
18402THY    HM356134   0.772   6.464   6.871 -1.0989  2.0411 -0.7662
18402THY    CA656135   0.775   6.556   7.110  0.8066  0.0591  0.1679
18402THY    HA656136   0.749   6.621   7.027  1.0182 -1.7509 -1.9488
18403THY      O56137   1.043   6.374   1.736 -0.4946  0.0810  0.0842
18403THY     HO56138   1.072   6.296   1.785 -2.9165  0.0361 -0.9321
18403THY    CA156139   0.910   6.370   1.761 -0.4701  0.1353  0.1797
18403THY    CA256140   0.819   6.476   1.750  0.1618  0.5476  0.4051
18403THY    CP156141   0.866   6.617   1.704 -0.0172  0.0109  0.1407
18403THY    HP156142   0.969   6.609   1.667  0.8068  0.5314  5.0034
18403THY    CP256143   0.888   6.712   1.823  0.4306 -0.3176  0.5146
18403THY    HP256144   0.953   6.667   1.899 -0.8710 -0.3697 -1.5880
18403THY    HP356145   0.796   6.715   1.883  0.9221  0.7207 -2.3105
18403THY    HP456146   0.937   6.804   1.790 -3.0678 -1.3842  2.1778
18403THY    CP356147   0.798   6.676   1.580  0.5546 -0.0949 -0.0652
18403THY    HP556148   0.858   6.751   1.527  0.6740 -1.4109 -1.0504
18403THY    HP656149   0.709   6.735   1.606  1.4873 -1.6354  2.1631
18403THY    HP756150   0.763   6.607   1.502 -0.0871  0.0149  0.1351
18403THY    CA356151   0.684   6.454   1.779  0.5122 -0.2481  0.3630
18403THY    HA356152   0.607   6.530   1.780  0.7159  2.7507  0.6644
18403THY    CA456153   0.649   6.326   1.813  0.1093 -0.0453 -0.5043
18403THY    HA456154   0.543   6.306   1.829  0.0932 -0.1132 -0.4753
18403THY    CA556155   0.741   6.221   1.818 -0.0113 -0.2658 -0.0997
18403THY    CM156156   0.690   6.081   1.863 -0.3925 -0.1260 -0.1363
18403THY    HM156157   0.776   6.013   1.872 -0.4763 -0.3444 -0.2724
18403THY    HM256158   0.635   6.039   1.778  0.5526 -2.1871  2.4896
18403THY    HM356159   0.643   6.094   1.961  1.1112  0.3197  2.6285
18403THY    CA656160   0.874   6.240   1.803  0.0676  0.3522  1.0836
18403THY    HA656161   0.941   6.155   1.802 -1.3236 -0.7737 -0.0493
18404THY      O56162   4.620   6.991   7.482 -0.3437 -0.4430  0.0172
18404THY     HO56163   4.705   7.031   7.508 -1.0662 -1.6515  2.5622
18404THY    CA156164   4.613   7.028   7.357  0.4507  0.4378 -0.2453
18404THY    CA256165   4.489   7.084   7.310  0.2461 -0.2558  1.5850
18404THY    CP156166   4.370   7.082   7.399  0.2413  0.7194  0.0541
18404THY    HP156167   4.387   7.037   7.498  2.5540 -1.0546 -3.4038
18404THY    CP256168   4.259   6.997   7.318  0.3191 -0.1585 -0.7833
18404THY    HP256169   4.160   6.986   7.363 -0.7937 -2.1902  0.2516
18404THY    HP356170   4.303   6.897   7.324  0.5579  1.2351 -0.6075
18404THY    HP456171   4.238   7.031   7.216  0.5414  0.7626  2.4911
18404THY    CP356172   4.314   7.229   7.402 -0.2464 -0.2545 -0.2111
18404THY    HP556173   4.234   7.240   7.476  0.7524  0.6126  1.7401
18404THY    HP656174   4.280   7.259   7.302  2.0690 -1.0877 -0.1547
18404THY    HP756175   4.389   7.305   7.428 -0.6557  2.1565 -0.5547
18404THY    CA356176   4.482   7.125   7.180 -0.2834 -0.4005  0.8284
18404THY    HA356177   4.386   7.157   7.139 -1.0085 -0.0178 -0.7639
18404THY    CA456178   4.590   7.104   7.095 -0.4319 -0.4075  0.7506
18404THY    HA456179   4.583   7.125   6.988  1.0587 -1.0338 -1.4986
18404THY    CA556180   4.714   7.070   7.144  0.3673  0.1954  0.1510
18404THY    CM156181   4.825   7.058   7.043 -0.4101  0.9440  0.1073
18404THY    HM156182   4.795   7.018   6.945 -1.9362  1.9264 -1.2719
18404THY    HM256183   4.910   7.001   7.081  0.5477  2.3416  2.3301
18404THY    HM356184   4.865   7.158   7.021 -0.9005  1.7171  0.4789
18404THY    CA656185   4.726   7.031   7.275 -0.1909 -0.2091  0.7242
18404THY    HA656186   4.822   7.003   7.318 -0.7544  0.8613  0.3725
18405THY      O56187   3.519   3.833   6.461  0.3063 -0.5802 -0.4352
18405THY     HO56188   3.423   3.843   6.475  0.7291  1.1018  2.0974
18405THY    CA156189   3.545   3.744   6.355  0.8748 -0.3943 -0.5469
18405THY    CA256190   3.671   3.744   6.288  0.5331 -0.3223 -0.1489
18405THY    CP156191   3.788   3.828   6.339  0.1005 -0.3844  0.6765
18405THY    HP156192   3.798   3.810   6.447  3.1849 -0.6702  0.1922
18405THY    CP256193   3.769   3.972   6.306 -0.3392  0.3276 -0.7703
18405THY    HP256194   3.863   4.028   6.313  0.1338 -0.6347 -1.4181
18405THY    HP356195   3.694   4.017   6.372  0.6651 -0.3373  2.1696
18405THY    HP456196   3.741   3.986   6.201 -1.2851  0.6431 -0.2022
18405THY    CP356197   3.924   3.772   6.289  0.2526 -0.4604  0.4707
18405THY    HP556198   4.009   3.810   6.347 -0.9778  2.8099 -1.3394
18405THY    HP656199   3.943   3.794   6.184 -1.2276 -1.4172 -2.3347
18405THY    HP756200   3.938   3.665   6.306  0.8973 -0.3607  0.5693
18405THY    CA356201   3.679   3.662   6.170 -0.3212 -0.6179  0.8236
18405THY    HA356202   3.770   3.662   6.111 -0.5337 -0.9523  0.4060
18405THY    CA456203   3.576   3.571   6.143 -0.0364 -0.1487  0.3194
18405THY    HA456204   3.589   3.505   6.057 -1.7588  1.3811 -2.1431
18405THY    CA556205   3.451   3.582   6.209 -0.2778  0.4937 -0.3631
18405THY    CM156206   3.338   3.499   6.155  0.0612  0.4996 -0.2454
18405THY    HM156207   3.372   3.440   6.070  2.9279  1.4317 -0.1337
18405THY    HM256208   3.255   3.563   6.123  0.7009 -1.1117 -0.1761
18405THY    HM356209   3.295   3.431   6.230 -2.9486 -1.9308 -1.1955
18405THY    CA656210   3.438   3.666   6.312 -0.1306  0.4022 -0.5930
18405THY    HA656211   3.344   3.659   6.367 -1.0012 -0.8246  0.7244
18406THY      O56212   5.053   5.790   7.724  0.0703 -0.4407  0.7202
18406THY     HO56213   5.104   5.795   7.807 -0.5713 -0.0717  1.5052
18406THY    CA156214   5.125   5.857   7.637 -0.3437  0.3850  0.6047
18406THY    CA256215   5.066   5.907   7.517  0.1344 -0.4147 -0.1399
18406THY    CP156216   4.923   5.865   7.480  0.3298 -0.1789 -0.1155
18406THY    HP156217   4.900   5.779   7.543 -1.1470  1.3222  1.2781
18406THY    CP256218   4.898   5.834   7.332  0.5609  0.0528 -0.0487
18406THY    HP256219   4.804   5.779   7.325  0.6919  0.9488 -0.3939
18406THY    HP356220   4.979   5.766   7.304  0.7031 -0.9613  0.5050
18406THY    HP456221   4.896   5.931   7.280  0.9744  0.2943  0.0932
18406THY    CP356222   4.829   5.973   7.540  0.2400 -0.5910  0.7485
18406THY    HP556223   4.729   5.962   7.497  0.3502 -1.2820  2.2542
18406THY    HP656224   4.860   6.075   7.519  1.5240 -0.0841  0.4854
18406THY    HP756225   4.827   5.967   7.650  0.6343 -0.6002  0.4051
18406THY    CA356226   5.140   5.988   7.429  0.0446  0.3863 -0.3895
18406THY    HA356227   5.101   6.011   7.331  1.8071 -0.1191  0.6220
18406THY    CA456228   5.273   6.019   7.460  0.8114 -0.1741 -0.8305
18406THY    HA456229   5.336   6.078   7.394  0.7618  0.9217  0.4814
18406THY    CA556230   5.336   5.966   7.572 -0.4628  0.2394  0.2848
18406THY    CM156231   5.488   5.984   7.588  0.0407 -0.5385 -0.3225
18406THY    HM156232   5.533   5.923   7.667 -0.0395  0.8661  1.3848
18406THY    HM256233   5.518   6.087   7.608  0.4035  0.4660 -0.6140
18406THY    HM356234   5.529   5.948   7.493  0.8806 -0.5403  0.5937
18406THY    CA656235   5.259   5.892   7.662  0.3052  0.4394 -0.4285
18406THY    HA656236   5.313   5.854   7.749 -0.6514  1.8902  1.3866
18407THY      O56237   4.652   2.614   4.044  0.6702 -0.3750 -0.0808
18407THY     HO56238   4.659   2.666   3.962  0.7055 -1.1791 -1.3170
18407THY    CA156239   4.556   2.673   4.120  0.0468 -0.1056  0.5171
18407THY    CA256240   4.460   2.598   4.188 -1.2152  0.2362 -0.3408
18407THY    CP156241   4.476   2.445   4.207 -0.9027 -0.0605  0.4265
18407THY    HP156242   4.583   2.423   4.216 -0.2610  1.8256  3.5993
18407THY    CP256243   4.426   2.350   4.098  0.4611 -0.5040 -0.5174
18407THY    HP256244   4.317   2.355   4.095  0.3458  2.4648  1.0164
18407THY    HP356245   4.444   2.243   4.116 -1.6724 -0.3382 -0.8884
18407THY    HP456246   4.469   2.370   3.999 -0.8128 -1.0587 -0.4624
18407THY    CP356247   4.422   2.393   4.347  0.7750 -0.4713  0.0435
18407THY    HP556248   4.484   2.440   4.425  0.5736  1.4026 -2.6089
18407THY    HP656249   4.426   2.284   4.354 -2.1954 -2.5180 -0.3118
18407THY    HP756250   4.319   2.422   4.367  0.9925 -1.3242  1.5128
18407THY    CA356251   4.347   2.665   4.244  0.1769  0.4165 -0.1922
18407THY    HA356252   4.278   2.618   4.313 -0.1687  1.3815  1.6227
18407THY    CA456253   4.351   2.805   4.235  0.6899  0.4450 -0.0448
18407THY    HA456254   4.271   2.849   4.294  2.2122  3.6668 -1.2671
18407THY    CA556255   4.452   2.876   4.168 -0.7745 -0.0792  0.1568
18407THY    CM156256   4.457   3.026   4.173  0.5122 -0.3826  0.0565
18407THY    HM156257   4.372   3.072   4.224  1.3612  2.6725 -1.4392
18407THY    HM256258   4.469   3.080   4.079 -1.3020  0.7545  2.6586
18407THY    HM356259   4.538   3.057   4.240 -1.4795  0.6752  3.5143
18407THY    CA656260   4.551   2.804   4.103 -0.6243 -0.1173 -0.7222
18407THY    HA656261   4.622   2.858   4.041 -1.1137 -0.3214 -0.3109
18408THY      O56262   3.637   0.457   5.092 -0.3812 -0.0823 -0.3007
18408THY     HO56263   3.599   0.409   5.167 -0.2659  0.8862  1.0685
18408THY    CA156264   3.716   0.560   5.135  0.6750  0.5592 -0.3420
18408THY    CA256265   3.770   0.649   5.041 -0.1082  0.9879 -0.5875
18408THY    CP156266   3.766   0.606   4.887 -0.1668 -0.2882 -0.2347
18408THY    HP156267   3.718   0.509   4.874  2.2292 -1.1124 -1.3738
18408THY    CP256268   3.900   0.592   4.825 -0.4898 -0.0880  0.6654
18408THY    HP256269   3.970   0.553   4.900 -2.3953  0.3754 -2.1544
18408THY    HP356270   3.926   0.695   4.797 -3.0690  0.7966  1.6638
18408THY    HP456271   3.898   0.529   4.735 -0.8926 -0.2506  0.9046
18408THY    CP356272   3.695   0.711   4.799 -0.2536 -0.2093 -0.3880
18408THY    HP556273   3.721   0.812   4.832 -2.2782 -0.4194  0.2483
18408THY    HP656274   3.586   0.718   4.807 -0.2095 -0.0038  0.1121
18408THY    HP756275   3.720   0.702   4.693  0.8209  0.1160 -1.6395
18408THY    CA356276   3.845   0.757   5.080 -0.4463 -0.4337 -0.0120
18408THY    HA356277   3.888   0.832   5.014 -0.2083  0.8974  1.0580
18408THY    CA456278   3.866   0.769   5.219 -0.0946 -0.4987 -0.4578
18408THY    HA456279   3.920   0.853   5.262 -2.0136  1.3325 -0.1093
18408THY    CA556280   3.814   0.684   5.312  0.4778 -0.3191  0.2785
18408THY    CM156281   3.843   0.711   5.458  0.0800 -0.8160  1.3499
18408THY    HM156282   3.758   0.750   5.513 -0.8648 -0.2366 -1.2991
18408THY    HM256283   3.931   0.777   5.463  1.2396  0.0945 -0.1917
18408THY    HM356284   3.871   0.619   5.511 -1.2580 -2.5221 -0.1342
18408THY    CA656285   3.737   0.577   5.269  0.0112  0.2713 -0.1422
18408THY    HA656286   3.705   0.500   5.338  0.7215 -0.2492 -0.9201
18409THY      O56287   1.087   9.391   1.684  0.0361 -0.7293  0.0524
18409THY     HO56288   1.040   9.475   1.673  1.2654 -1.0314  0.7122
18409THY    CA156289   1.025   9.328   1.786 -0.1422  0.0432  0.3592
18409THY    CA256290   1.040   9.192   1.804  0.0440 -0.2007  0.0278
18409THY    CP156291   1.142   9.111   1.725  0.2587  0.5330  0.2643
18409THY    HP156292   1.194   9.173   1.651 -0.2058  0.3593  0.4535
18409THY    CP256293   1.073   9.000   1.648  0.8350 -0.2407 -0.3096
18409THY    HP256294   0.980   9.039   1.606  0.4653 -2.3982 -3.1849
18409THY    HP356295   1.047   8.924   1.723  1.4810  1.4164  1.0520
18409THY    HP456296   1.133   8.967   1.562  1.3935  0.0591 -0.0950
18409THY    CP356297   1.254   9.052   1.821  0.1556 -0.2703  0.2503
18409THY    HP556298   1.351   9.023   1.779  0.9325  2.1943 -1.0419
18409THY    HP656299   1.225   8.958   1.869  1.4355 -0.7307 -0.4010
18409THY    HP756300   1.269   9.130   1.896  1.1208  0.5309 -0.6745
18409THY    CA356301   0.965   9.135   1.896 -0.1041 -0.3803 -0.2843
18409THY    HA356302   0.975   9.029   1.916 -2.5431  0.3703 -0.4291
18409THY    CA456303   0.879   9.206   1.978  0.0917 -0.3414  0.3170
18409THY    HA456304   0.821   9.154   2.053  2.6280  1.6363  0.1177
18409THY    CA556305   0.857   9.341   1.963  0.4408 -0.3035  0.0152
18409THY    CM156306   0.750   9.417   2.045 -0.3583  0.3850 -0.4564
18409THY    HM156307   0.663   9.434   1.980 -0.2677  0.6163  1.0516
18409THY    HM256308   0.789   9.518   2.060 -1.3217 -2.3158  0.4097
18409THY    HM356309   0.726   9.368   2.139  0.2627 -0.9800 -3.6016
18409THY    CA656310   0.928   9.400   1.858 -0.2575 -0.4416  0.0769
18409THY    HA656311   0.913   9.506   1.842  1.6426 -0.6846  0.3534
18410THY      O56312   7.557   0.891   7.076  0.3070 -0.2845  0.2944
18410THY     HO56313   7.550   0.796   7.099 -0.4738  1.6794  0.7702
18410THY    CA156314   7.439   0.937   7.027  0.2915 -0.0402 -0.5830
18410THY    CA256315   7.436   1.060   6.964 -0.7150 -0.1225 -0.6685
18410THY    CP156316   7.569   1.148   6.963 -0.0201 -0.4418  0.6319
18410THY    HP156317   7.656   1.084   6.983  0.0582 -3.5842 -0.4321
18410THY    CP256318   7.562   1.266   7.058 -0.2221  0.6331  0.2736
18410THY    HP256319   7.638   1.344   7.050 -1.2890 -1.3395  1.1990
18410THY    HP356320   7.563   1.234   7.163  0.0042  1.2650  2.2395
18410THY    HP456321   7.462   1.307   7.041 -1.1045 -0.1081 -2.0052
18410THY    CP356322   7.596   1.190   6.828 -0.0291 -0.4807 -0.3312
18410THY    HP556323   7.700   1.223   6.823 -0.1791  1.5382  0.6580
18410THY    HP656324   7.540   1.283   6.815  0.7855  0.0327  0.2496
18410THY    HP756325   7.575   1.119   6.748 -2.3787 -0.6445  0.4432
18410THY    CA356326   7.317   1.116   6.926 -0.3001  0.4813  0.3960
18410THY    HA356327   7.310   1.215   6.881 -1.2046 -0.9754 -0.3078
18410THY    CA456328   7.202   1.047   6.935 -0.1815  0.2353  1.1008
18410THY    HA456329   7.112   1.106   6.920 -1.4296  0.3529 -0.6613
18410THY    CA556330   7.204   0.916   6.990 -0.5905  0.5654  0.1794
18410THY    CM156331   7.078   0.839   6.989 -0.4758 -0.2661 -0.8064
18410THY    HM156332   7.042   0.817   6.888 -2.4668  0.4391 -1.0033
18410THY    HM256333   7.002   0.900   7.040  0.3452 -0.2479  0.2464
18410THY    HM356334   7.070   0.758   7.061  0.4204 -0.1450 -0.7977
18410THY    CA656335   7.321   0.864   7.036 -0.3254 -1.0388  0.3339
18410THY    HA656336   7.317   0.769   7.088  0.3634 -0.1212  0.7957
18411THY      O56337   5.609   3.054   4.099 -0.4584 -0.2148 -0.1479
18411THY     HO56338   5.575   3.092   4.016 -2.0546 -0.2215 -1.4774
18411THY    CA156339   5.654   2.929   4.067  0.3373  0.3772  0.3163
18411THY    CA256340   5.644   2.825   4.152 -0.5762 -1.2429  0.0103
18411THY    CP156341   5.604   2.842   4.298  0.6275 -0.2164  0.6822
18411THY    HP156342   5.562   2.941   4.319 -1.9370 -1.3261 -0.0942
18411THY    CP256343   5.725   2.810   4.391 -0.7330  0.9553  0.5040
18411THY    HP256344   5.708   2.840   4.495 -0.8290  0.9036  0.6341
18411THY    HP356345   5.807   2.876   4.359  1.5764  2.3087 -1.5597
18411THY    HP456346   5.748   2.704   4.379 -1.6456 -0.3216  0.4261
18411THY    CP356347   5.483   2.749   4.332  0.4842  0.4273 -0.3552
18411THY    HP556348   5.468   2.748   4.441 -1.9528  0.1592  0.9814
18411THY    HP656349   5.489   2.651   4.284 -3.0230 -0.9114 -0.0416
18411THY    HP756350   5.400   2.806   4.290  1.0053 -1.5660 -0.9947
18411THY    CA356351   5.681   2.697   4.114 -0.3341  0.5310  0.2310
18411THY    HA356352   5.680   2.612   4.182 -0.4464 -0.0539 -0.2437
18411THY    CA456353   5.698   2.669   3.980 -0.2890 -0.3365  0.2155
18411THY    HA456354   5.697   2.564   3.949 -2.3797 -3.1819  0.9502
18411THY    CA556355   5.712   2.776   3.887  0.3996 -0.0508  0.0392
18411THY    CM156356   5.744   2.761   3.743  0.2901 -0.5655  0.5303
18411THY    HM156357   5.661   2.782   3.675  0.4678 -1.1444 -0.5707
18411THY    HM256358   5.785   2.660   3.730 -0.7472  2.3517 -0.3797
18411THY    HM356359   5.822   2.835   3.720  1.3124  0.4520 -0.1949
18411THY    CA656360   5.682   2.907   3.931 -0.5371  0.7521  0.1015
18411THY    HA656361   5.692   2.989   3.861 -2.7851  1.4425  1.0302
18412THY      O56362   4.876   6.946   4.798  0.0288  0.2290 -0.7766
18412THY     HO56363   4.897   7.038   4.774 -0.5307  0.2289 -0.6487
18412THY    CA156364   4.977   6.918   4.879 -0.0558  0.3645 -0.2316
18412THY    CA256365   4.978   6.798   4.947  0.0209 -1.0591 -0.3276
18412THY    CP156366   4.850   6.705   4.946 -0.6562  0.0676 -0.6981
18412THY    HP156367   4.797   6.733   4.854  1.0518 -0.7431  0.0100
18412THY    CP256368   4.771   6.732   5.075  0.5009  0.6104 -0.1042
18412THY    HP256369   4.724   6.830   5.090  1.7497  1.5536  0.3704
18412THY    HP356370   4.842   6.724   5.158  1.2778  0.2892  2.4956
18412THY    HP456371   4.699   6.650   5.089 -0.7295 -0.3205  0.7865
18412THY    CP356372   4.886   6.558   4.931  0.0866  0.1817 -0.4040
18412THY    HP556373   4.798   6.496   4.914 -0.5524  2.0718 -0.0880
18412THY    HP656374   4.944   6.530   5.020  0.9660 -0.5642 -1.0260
18412THY    HP756375   4.955   6.552   4.846 -1.2148 -0.9050 -0.2496
18412THY    CA356376   5.086   6.765   5.033 -0.1633 -0.5777  0.5406
18412THY    HA356377   5.078   6.677   5.096  2.3421 -0.1910  0.5330
18412THY    CA456378   5.193   6.865   5.058 -0.1051  0.2937 -0.4766
18412THY    HA456379   5.270   6.844   5.131  0.1379 -0.6033 -3.0923
18412THY    CA556380   5.194   6.981   4.980  0.0230  0.0737  0.2114
18412THY    CM156381   5.313   7.070   4.987  0.6155 -0.6427 -0.0747
18412THY    HM156382   5.329   7.138   4.903  0.7454 -1.1619 -0.7276
18412THY    HM256383   5.406   7.016   5.008 -0.9846  2.1272 -2.0938
18412THY    HM356384   5.308   7.129   5.079 -1.0853 -1.1328  0.6087
18412THY    CA656385   5.085   7.009   4.895  0.0010 -0.7633 -0.4308
18412THY    HA656386   5.081   7.103   4.841  1.7259 -0.5736 -0.2145
18413THY      O56387   5.526   1.649   6.564  0.4956  0.4081 -0.0822
18413THY     HO56388   5.591   1.712   6.599  1.8748  0.7212 -1.6187
18413THY    CA156389   5.605   1.579   6.477 -0.3643  0.0263 -0.9844
18413THY    CA256390   5.568   1.563   6.337  0.1921  0.0065  0.1723
18413THY    CP156391   5.443   1.632   6.289 -0.2372 -0.3444 -0.2090
18413THY    HP156392   5.364   1.606   6.360  1.3342  0.4284 -3.2543
18413THY    CP256393   5.383   1.580   6.157 -0.4091  0.3233 -1.2234
18413THY    HP256394   5.303   1.647   6.123  2.2708 -0.9914  1.5688
18413THY    HP356395   5.338   1.482   6.176  1.5642  1.5961 -1.9449
18413THY    HP456396   5.461   1.581   6.079  0.1087  0.7179  2.4030
18413THY    CP356397   5.452   1.781   6.283  0.1593 -0.0785  0.4619
18413THY    HP556398   5.508   1.823   6.368  0.1599  0.8868 -1.3644
18413THY    HP656399   5.349   1.818   6.286  0.1128  0.2123  0.3091
18413THY    HP756400   5.502   1.813   6.191  0.5244 -0.0674 -0.0557
18413THY    CA356401   5.661   1.500   6.256 -0.4493 -0.0552 -0.1550
18413THY    HA356402   5.648   1.491   6.148  1.1896 -0.1971 -1.1327
18413THY    CA456403   5.782   1.446   6.312  0.5936  0.1291  0.2047
18413THY    HA456404   5.848   1.387   6.249 -0.5573 -0.7327 -0.2161
18413THY    CA556405   5.815   1.452   6.444  0.0684 -0.5208 -0.8762
18413THY    CM156406   5.930   1.386   6.513 -0.0885  0.2398 -0.5912
18413THY    HM156407   6.025   1.419   6.471  0.5159  0.2759 -2.1713
18413THY    HM256408   5.934   1.276   6.503  0.4573  2.3432 -0.7995
18413THY    HM356409   5.937   1.409   6.620  0.5103  0.1892 -0.5150
18413THY    CA656410   5.720   1.523   6.529  0.0520  0.4743  0.5492
18413THY    HA656411   5.739   1.525   6.636 -1.2236  0.7138  0.6527
18414THY      O56412   6.417   8.645   3.376  0.2643  0.3119 -0.2947
18414THY     HO56413   6.503   8.690   3.371 -0.1628 -0.0780  0.4878
18414THY    CA156414   6.335   8.702   3.284 -0.0245  1.0646 -1.3514
18414THY    CA256415   6.221   8.645   3.226  0.1449  0.1150 -0.2375
18414THY    CP156416   6.203   8.497   3.249 -0.0383  0.9673  0.3433
18414THY    HP156417   6.261   8.458   3.334  0.6425 -0.2365 -1.3637
18414THY    CP256418   6.244   8.410   3.125  0.1143  0.1503 -0.7354
18414THY    HP256419   6.188   8.425   3.031  1.8445 -0.9640 -1.0181
18414THY    HP356420   6.231   8.304   3.148 -0.5893 -0.4314 -0.7828
18414THY    HP456421   6.348   8.437   3.104 -0.2669  0.5828  1.2527
18414THY    CP356422   6.054   8.456   3.291 -0.4686  0.2735  0.4756
18414THY    HP556423   6.044   8.348   3.306 -1.6920 -1.9178  0.2503
18414THY    HP656424   5.984   8.471   3.209 -2.3717  1.8322  0.5105
18414THY    HP756425   6.015   8.505   3.381 -2.3585  0.1941 -0.7849
18414THY    CA356426   6.128   8.720   3.150 -0.3434  1.3065  0.2641
18414THY    HA356427   6.047   8.679   3.090  1.4231 -1.4814  0.5525
18414THY    CA456428   6.165   8.851   3.129  0.1266  0.4029 -0.0367
18414THY    HA456429   6.103   8.911   3.062 -0.3262 -1.3057 -2.2700
18414THY    CA556430   6.272   8.908   3.192 -0.3544  0.3586 -1.3768
18414THY    CM156431   6.298   9.053   3.171 -0.2944  0.2161  0.3011
18414THY    HM156432   6.202   9.099   3.147 -0.8191 -1.9404 -1.7218
18414THY    HM256433   6.378   9.072   3.098  0.1761  1.1111  1.9395
18414THY    HM356434   6.335   9.093   3.266 -0.1367  0.2172  0.1543
18414THY    CA656435   6.364   8.836   3.262  0.0193 -0.1906  0.0015
18414THY    HA656436   6.450   8.884   3.308  1.0557 -2.1180  0.1112
18415THY      O56437   1.707   0.778   3.773  0.1593 -0.2751 -0.3523
18415THY     HO56438   1.644   0.851   3.758 -0.6114 -0.5297 -1.0617
18415THY    CA156439   1.723   0.713   3.661 -0.5291 -0.3347 -0.5072
18415THY    CA256440   1.749   0.574   3.661  0.2577  0.1911  0.7176
18415THY    CP156441   1.770   0.495   3.792  0.3444  0.3027  0.7212
18415THY    HP156442   1.786   0.571   3.869 -0.6009 -0.2170  1.4723
18415THY    CP256443   1.888   0.399   3.788  0.7352 -0.4117  0.2869
18415THY    HP256444   1.974   0.455   3.749 -0.0594 -0.7005  1.3282
18415THY    HP356445   1.873   0.315   3.719 -0.7036 -0.4590  0.5551
18415THY    HP456446   1.904   0.337   3.877  1.2379 -0.2496  0.6449
18415THY    CP356447   1.646   0.418   3.824 -0.0437 -0.3186  0.4543
18415THY    HP556448   1.621   0.340   3.751 -0.5894  0.2705  0.0616
18415THY    HP656449   1.559   0.485   3.824  1.0892  2.5398  2.0765
18415THY    HP756450   1.652   0.370   3.922 -0.0079 -0.8206 -0.6077
18415THY    CA356451   1.779   0.511   3.540 -0.6264 -0.0603  0.3266
18415THY    HA356452   1.794   0.404   3.530 -1.2546  2.0748  0.0005
18415THY    CA456453   1.765   0.581   3.420  0.0459 -0.3945 -0.5410
18415THY    HA456454   1.790   0.536   3.324  0.3936 -1.3636  1.5903
18415THY    CA556455   1.724   0.711   3.421  0.1631  0.0821 -0.3351
18415THY    CM156456   1.709   0.786   3.294 -0.0241  0.1027 -0.2974
18415THY    HM156457   1.618   0.847   3.302  0.2192 -1.2220  0.2737
18415THY    HM256458   1.700   0.715   3.210 -0.9385  0.8465 -1.0929
18415THY    HM356459   1.795   0.853   3.286  0.4650  1.1824 -0.7734
18415THY    CA656460   1.701   0.780   3.542  0.5256 -0.0608  0.2416
18415THY    HA656461   1.678   0.886   3.540 -0.1855  0.9905  0.1228
18416THY      O56462   6.175   1.178   1.982  0.2913  0.4544  0.2693
18416THY     HO56463   6.085   1.143   1.987  1.4596  1.5242 -3.0028
18416THY    CA156464   6.169   1.294   2.049  0.0780 -0.2585  0.2474
18416THY    CA256465   6.275   1.374   2.089 -0.3750 -0.3623  0.5351
18416THY    CP156466   6.418   1.326   2.067 -1.1220  0.8397  0.1575
18416THY    HP156467   6.418   1.282   1.966  0.8675  1.7417 -2.1230
18416THY    CP256468   6.484   1.225   2.156 -0.2146 -0.1130  0.5921
18416THY    HP256469   6.428   1.131   2.152 -0.2097  1.8145  0.4845
18416THY    HP356470   6.486   1.261   2.259 -0.7358  0.1161 -0.0195
18416THY    HP456471   6.589   1.207   2.130  0.5626  1.4897  2.4905
18416THY    CP356472   6.528   1.442   2.055  0.6266 -0.7214 -0.2525
18416THY    HP556473   6.485   1.528   2.001 -2.9040  0.3303 -1.1684
18416THY    HP656474   6.615   1.407   1.999  1.9767  0.6104  0.8438
18416THY    HP756475   6.555   1.485   2.152  0.0087 -0.9622  0.7116
18416THY    CA356476   6.256   1.496   2.153 -0.2448 -0.4833 -0.3237
18416THY    HA356477   6.333   1.572   2.153  1.0118 -0.3400 -1.5727
18416THY    CA456478   6.122   1.534   2.178  0.0789 -0.3142 -0.4252
18416THY    HA456479   6.108   1.634   2.218  1.3477 -0.2452 -0.2498
18416THY    CA556480   6.012   1.457   2.136 -0.1575 -0.0948 -0.3388
18416THY    CM156481   5.870   1.510   2.148 -0.6845 -0.0594 -0.0108
18416THY    HM156482   5.854   1.577   2.234 -1.0333  1.4472 -1.9618
18416THY    HM256483   5.797   1.428   2.147 -1.5899 -0.4617  0.7700
18416THY    HM356484   5.839   1.561   2.055  2.0039 -2.2083 -1.9630
18416THY    CA656485   6.037   1.333   2.074 -0.1956  0.0101 -0.6813
18416THY    HA656486   5.951   1.268   2.063  1.0702 -1.3858 -2.2071
18417THY      O56487   4.205   5.631   5.863 -0.3927  0.0770 -0.0750
18417THY     HO56488   4.127   5.627   5.805 -1.2913  0.9810  2.6239
18417THY    CA156489   4.260   5.750   5.826 -0.0728 -0.3250  0.1865
18417THY    CA256490   4.372   5.802   5.893 -0.1568  0.3070  0.4349
18417THY    CP156491   4.451   5.713   5.991  0.5886 -0.1478  0.3408
18417THY    HP156492   4.400   5.624   6.027  1.9071  0.5402 -0.1613
18417THY    CP256493   4.456   5.788   6.119 -0.1345 -0.8780  0.4144
18417THY    HP256494   4.354   5.819   6.144  0.4551  2.0632  0.2764
18417THY    HP356495   4.517   5.877   6.102  1.0212 -1.3703 -0.4565
18417THY    HP456496   4.491   5.718   6.197 -2.6073 -0.0064  0.0343
18417THY    CP356497   4.579   5.658   5.929  0.4574 -0.7808  0.1360
18417THY    HP556498   4.632   5.594   6.000  0.5703 -1.8706 -1.0252
18417THY    HP656499   4.647   5.740   5.904 -1.2651 -2.6117  1.0986
18417THY    HP756500   4.563   5.596   5.840 -1.3834 -1.9533  2.1356
18417THY    CA356501   4.422   5.931   5.850  0.2479  0.1944 -0.0508
18417THY    HA356502   4.517   5.974   5.880  0.8754  0.2852 -1.4460
18417THY    CA456503   4.371   5.986   5.731  0.1459  1.0441 -0.7019
18417THY    HA456504   4.415   6.073   5.684  1.1797 -1.5092 -2.4874
18417THY    CA556505   4.260   5.928   5.664  0.2829  0.1631  0.1526
18417THY    CM156506   4.200   5.995   5.546 -0.5897  0.4378  0.1137
18417THY    HM156507   4.148   5.927   5.477 -0.9956  1.7546 -0.9644
18417THY    HM256508   4.279   6.035   5.482 -1.5463 -0.8087  0.0815
18417THY    HM356509   4.138   6.077   5.585  3.7298  3.0489  2.5027
18417THY    CA656510   4.202   5.811   5.720  0.3754 -0.5634  0.5060
18417THY    HA656511   4.117   5.766   5.671  0.2522  1.5663 -1.7596
18418THY      O56512   5.280   8.537   5.390  0.2287 -0.0454 -0.0273
18418THY     HO56513   5.373   8.557   5.410  0.3348 -1.4133  1.0268
18418THY    CA156514   5.262   8.579   5.259  0.3017 -0.6443 -0.3116
18418THY    CA256515   5.144   8.549   5.184 -0.9086  0.1138  0.3271
18418THY    CP156516   5.041   8.457   5.251  0.4648  0.7170  0.0970
18418THY    HP156517   5.035   8.482   5.358  0.2037  0.4326  1.3046
18418THY    CP256518   5.073   8.310   5.218  0.2601 -0.5456 -0.5809
18418THY    HP256519   5.171   8.271   5.250 -0.3552 -0.7995 -2.4217
18418THY    HP356520   5.059   8.301   5.109  3.5530 -1.2119  0.8207
18418THY    HP456521   4.999   8.248   5.269  0.8267 -0.6527 -1.3610
18418THY    CP356522   4.891   8.482   5.214  0.6371 -0.0976 -0.2897
18418THY    HP556523   4.851   8.583   5.230  1.5188  0.4744 -0.0232
18418THY    HP656524   4.825   8.416   5.271 -0.5184  0.4313  1.2466
18418THY    HP756525   4.887   8.452   5.109  1.6303 -0.0699 -0.5405
18418THY    CA356526   5.136   8.614   5.054 -0.1243 -0.2020  0.3545
18418THY    HA356527   5.048   8.595   4.992  1.1275 -2.2017  0.8150
18418THY    CA456528   5.233   8.709   5.014  0.0175 -0.1909 -0.0096
18418THY    HA456529   5.208   8.759   4.921 -0.0620 -0.3841 -0.4046
18418THY    CA556530   5.340   8.744   5.093 -0.2815  0.0413 -0.0049
18418THY    CM156531   5.439   8.860   5.068 -0.0656  0.4297 -0.0109
18418THY    HM156532   5.526   8.827   5.010  0.2278  1.6589 -1.5489
18418THY    HM256533   5.466   8.916   5.159  1.5676  0.0101 -0.0811
18418THY    HM356534   5.380   8.926   5.004 -0.2340 -2.9419 -3.1380
18418THY    CA656535   5.354   8.672   5.213  0.1027  0.2441 -0.6372
18418THY    HA656536   5.433   8.707   5.279  1.2244 -1.7853  0.8070
18419THY      O56537   7.812   2.091   4.773  0.2195 -0.0788  0.4914
18419THY     HO56538   7.817   2.000   4.739 -0.3028 -0.0507  0.4501
18419THY    CA156539   7.870   2.075   4.899  0.3413  0.0730 -0.3932
18419THY    CA256540   7.894   2.182   4.987  0.5675  0.4260 -0.1125
18419THY    CP156541   7.836   2.325   4.960 -0.1222 -0.5086 -0.5429
18419THY    HP156542   7.842   2.352   4.854  3.0844 -0.2029  0.4764
18419THY    CP256543   7.924   2.445   4.994  0.4257  0.7124  0.3093
18419THY    HP256544   8.015   2.446   4.931 -0.7083 -0.9927  0.6367
18419THY    HP356545   7.950   2.458   5.100  0.8399  0.8209 -1.2554
18419THY    HP456546   7.870   2.539   4.977  0.3497 -0.8552  0.0146
18419THY    CP356547   7.704   2.354   5.024 -0.0613  0.7283 -0.0094
18419THY    HP556548   7.657   2.430   4.961  2.9166  0.5813  1.8535
18419THY    HP656549   7.725   2.404   5.119 -0.9935  1.2618 -0.6162
18419THY    HP756550   7.645   2.262   5.033 -1.4210  0.4369  0.8090
18419THY    CA356551   7.966   2.158   5.107  1.1343 -0.6982  0.0340
18419THY    HA356552   7.984   2.237   5.179  1.0488 -0.2102 -0.3818
18419THY    CA456553   8.002   2.023   5.142 -0.2162 -0.0652 -0.3695
18419THY    HA456554   8.064   2.005   5.229 -1.2190  0.6370 -0.4596
18419THY    CA556555   7.979   1.921   5.044 -0.0658 -0.3333 -0.0999
18419THY    CM156556   8.009   1.773   5.073  0.0737  0.1074 -0.6256
18419THY    HM156557   8.085   1.729   5.006 -1.5827 -0.3756 -2.9354
18419THY    HM256558   7.920   1.711   5.057 -1.5421  0.3297  1.5558
18419THY    HM356559   8.037   1.755   5.178 -0.0430  0.2651  0.1073
18419THY    CA656560   7.912   1.945   4.929  0.5154 -0.1938 -0.7164
18419THY    HA656561   7.892   1.868   4.855 -1.8507 -2.6024  1.9851
18420THY      O56562   1.712   8.965   6.578 -0.4051 -0.3911  0.4653
18420THY     HO56563   1.679   9.010   6.658 -1.5712 -0.5130 -0.1311
18420THY    CA156564   1.816   8.880   6.611  0.3138  0.9071  0.1490
18420THY    CA256565   1.857   8.790   6.512 -0.3518  0.0890 -0.4558
18420THY    CP156566   1.789   8.770   6.372 -0.8204 -0.1008  0.6853
18420THY    HP156567   1.712   8.846   6.355  0.6733 -2.0073  1.8766
18420THY    CP256568   1.723   8.639   6.354  0.2104 -0.4846 -0.5130
18420THY    HP256569   1.634   8.636   6.417  0.7433  0.2395 -1.4693
18420THY    HP356570   1.785   8.552   6.378 -0.9999 -2.4474 -2.0041
18420THY    HP456571   1.676   8.640   6.255  2.6810 -1.7444 -0.3278
18420THY    CP356572   1.896   8.784   6.260  0.5069 -0.7649  0.0513
18420THY    HP556573   1.964   8.698   6.253 -0.0662  1.7845 -0.7043
18420THY    HP656574   1.955   8.871   6.288 -2.1484 -0.2474  1.8044
18420THY    HP756575   1.850   8.804   6.163 -1.3242 -0.0927 -0.5768
18420THY    CA356576   1.967   8.713   6.552  0.6389  0.2191 -0.4182
18420THY    HA356577   2.004   8.645   6.477 -0.9047 -1.6959  0.7499
18420THY    CA456578   2.032   8.727   6.671  0.2197  0.2175  0.2593
18420THY    HA456579   2.123   8.672   6.693  0.9200  1.4492  1.8342
18420THY    CA556580   1.984   8.811   6.765 -0.0964  0.0880  0.6388
18420THY    CM156581   2.047   8.823   6.904 -0.5116  0.3653  0.7151
18420THY    HM156582   1.987   8.760   6.970 -0.1531  0.3472  0.3542
18420THY    HM256583   2.057   8.928   6.934  2.3090  0.9204  0.3497
18420THY    HM356584   2.142   8.769   6.905 -1.6601 -0.4207 -1.4062
18420THY    CA656585   1.871   8.887   6.735 -0.2928  0.5167 -0.4038
18420THY    HA656586   1.825   8.957   6.805  0.7780 -2.1844  3.3412
18421THY      O56587   3.380   4.880   2.922  0.9725  0.1585  0.7202
18421THY     HO56588   3.413   4.950   2.863  0.7389 -2.3566 -1.1461
18421THY    CA156589   3.448   4.875   3.037 -0.1354 -0.0570  0.5819
18421THY    CA256590   3.384   4.839   3.151  0.6678  1.1063  0.2518
18421THY    CP156591   3.232   4.797   3.149  1.0995 -0.2118 -0.1458
18421THY    HP156592   3.184   4.805   3.051  1.2701 -0.2449  0.5257
18421THY    CP256593   3.153   4.881   3.253  0.5565  1.1579  0.3171
18421THY    HP256594   3.180   4.868   3.359  1.5926  0.7955 -0.5941
18421THY    HP356595   3.047   4.864   3.235  0.8753 -0.2504 -0.2977
18421THY    HP456596   3.174   4.989   3.246  0.1527  0.7155  0.3658
18421THY    CP356597   3.216   4.650   3.184 -0.0980  0.4725  0.1659
18421THY    HP556598   3.244   4.624   3.286 -3.0526  0.9754 -1.5666
18421THY    HP656599   3.269   4.592   3.108  0.6602  2.0765 -1.2944
18421THY    HP756600   3.112   4.616   3.172  0.0118  1.4108 -0.5394
18421THY    CA356601   3.459   4.831   3.272 -0.2332  0.5020 -0.8324
18421THY    HA356602   3.407   4.791   3.358  0.3288  2.4336  2.2541
18421THY    CA456603   3.594   4.870   3.269  0.2557  0.2739 -0.0378
18421THY    HA456604   3.648   4.870   3.362 -0.3251  0.6296 -0.8353
18421THY    CA556605   3.657   4.907   3.153  0.6787  0.0763  0.5732
18421THY    CM156606   3.800   4.950   3.150 -0.1211 -0.2375  0.5150
18421THY    HM156607   3.811   5.053   3.115  0.3163 -1.4381  0.0863
18421THY    HM256608   3.855   4.875   3.091  0.7223  0.5705  0.4907
18421THY    HM356609   3.830   4.944   3.255  0.1217 -0.3073  0.4832
18421THY    CA656610   3.588   4.908   3.034 -0.2371  0.0556 -0.0739
18421THY    HA656611   3.641   4.928   2.941  1.0059  1.1669  2.1285
18422THY      O56612   5.115   0.685   4.269  0.1004 -0.3056  0.3280
18422THY     HO56613   5.107   0.593   4.236  1.5072  0.8064 -0.2279
18422THY    CA156614   5.254   0.694   4.279  0.7652  0.3471 -1.2822
18422THY    CA256615   5.309   0.773   4.385  0.5647 -0.0753  0.0788
18422THY    CP156616   5.213   0.853   4.482 -0.9032  0.0956 -0.1024
18422THY    HP156617   5.150   0.907   4.410  0.1214 -1.3352 -0.7543
18422THY    CP256618   5.278   0.967   4.558 -0.4341  0.7793 -0.3065
18422THY    HP256619   5.342   0.936   4.641  0.0324  0.5793  0.1164
18422THY    HP356620   5.209   1.049   4.582  0.7617 -2.2566  1.7545
18422THY    HP456621   5.343   1.018   4.487 -0.3671  1.6278  0.8334
18422THY    CP356622   5.145   0.759   4.579 -0.6421  0.4832  0.1815
18422THY    HP556623   5.082   0.686   4.527 -0.3566 -0.6959  0.7496
18422THY    HP656624   5.077   0.821   4.640 -1.2686 -1.5961  1.6542
18422THY    HP756625   5.219   0.709   4.641 -0.1435 -0.6124 -0.4708
18422THY    CA356626   5.448   0.775   4.389 -0.4781 -0.1142 -0.8050
18422THY    HA356627   5.499   0.837   4.463  0.7968 -2.7881  1.5515
18422THY    CA456628   5.521   0.698   4.304 -0.9763  0.5086 -0.1030
18422THY    HA456629   5.629   0.694   4.310 -0.8635 -0.7940  0.4742
18422THY    CA556630   5.466   0.620   4.212 -0.0406  0.5978  0.2741
18422THY    CM156631   5.560   0.526   4.131  0.1640 -0.1286  0.6600
18422THY    HM156632   5.521   0.517   4.029 -0.8150  0.2089  0.9559
18422THY    HM256633   5.558   0.421   4.163 -0.5386  0.0101  0.7058
18422THY    HM356634   5.664   0.559   4.129 -0.5267 -2.8806  3.0926
18422THY    CA656635   5.327   0.621   4.192 -0.5409  0.2902 -0.4099
18422THY    HA656636   5.281   0.573   4.107 -1.6464  0.2367  0.6836
18423THY      O56637   5.886   4.857   4.737 -0.2152 -0.4214 -0.2209
18423THY     HO56638   5.913   4.792   4.803 -0.4302 -1.8139 -1.7842
18423THY    CA156639   6.009   4.894   4.690  0.0373  0.8461  0.1770
18423THY    CA256640   6.034   5.023   4.644 -0.1610 -0.1409 -0.2079
18423THY    CP156641   5.929   5.136   4.658 -0.4193 -0.8535  0.6740
18423THY    HP156642   5.839   5.095   4.707 -0.1280  1.1114  2.2374
18423THY    CP256643   5.875   5.169   4.524  0.5718  0.6149 -0.1059
18423THY    HP256644   5.874   5.083   4.456 -2.4669 -0.9313  0.9985
18423THY    HP356645   5.939   5.237   4.466 -0.4442 -0.0396  0.3131
18423THY    HP456646   5.777   5.218   4.529  0.7653 -2.3580  0.7830
18423THY    CP356647   5.979   5.261   4.721  0.3462 -0.0084 -0.3082
18423THY    HP556648   6.081   5.290   4.696  0.4741 -0.5420 -1.1872
18423THY    HP656649   5.971   5.240   4.829 -0.5949 -0.3442 -1.8638
18423THY    HP756650   5.906   5.342   4.717 -1.4158 -0.5290 -1.8473
18423THY    CA356651   6.158   5.051   4.579  0.3116  0.0313  0.2390
18423THY    HA356652   6.176   5.150   4.539 -1.2957 -0.8639  0.2033
18423THY    CA456653   6.259   4.960   4.591 -0.1934 -0.7131 -0.0236
18423THY    HA456654   6.360   4.982   4.556  0.5520 -0.3309 -2.5397
18423THY    CA556655   6.240   4.835   4.636  0.0761 -0.0720 -0.2925
18423THY    CM156656   6.352   4.735   4.637  0.1458 -0.4655  0.4984
18423THY    HM156657   6.404   4.727   4.541  1.6565  0.2712  0.9718
18423THY    HM256658   6.321   4.636   4.673 -0.5650 -1.1449  0.4729
18423THY    HM356659   6.424   4.769   4.712  2.0805 -2.3014  0.6562
18423THY    CA656660   6.110   4.802   4.684  0.2369 -0.8487  0.0629
18423THY    HA656661   6.085   4.703   4.721 -1.2995 -0.3658  0.5987
18424THY      O56662   9.269   4.096   5.293 -0.2392 -0.0110  0.2846
18424THY     HO56663   9.272   4.004   5.324  0.1556 -1.3507 -0.1795
18424THY    CA156664   9.141   4.133   5.285 -0.0834 -0.7109  0.0748
18424THY    CA256665   9.095   4.255   5.229  0.0293  0.5140  0.0322
18424THY    CP156666   9.203   4.349   5.181  0.7500  0.3184  0.1073
18424THY    HP156667   9.298   4.299   5.157  1.2484 -1.3956  1.7634
18424THY    CP256668   9.237   4.452   5.288  0.1720  0.0422  0.9264
18424THY    HP256669   9.143   4.484   5.335 -0.0976  1.2027 -1.3863
18424THY    HP356670   9.292   4.535   5.243 -0.5275  2.0000  2.5542
18424THY    HP456671   9.299   4.404   5.365  2.3615 -1.9596  0.4009
18424THY    CP356672   9.162   4.425   5.057 -0.1333  0.3019  0.3588
18424THY    HP556673   9.087   4.504   5.071 -0.2583  0.3410  0.2347
18424THY    HP656674   9.103   4.357   4.995 -0.9107  1.5618 -0.1615
18424THY    HP756675   9.245   4.456   4.993 -0.4640  1.1133  3.2173
18424THY    CA356676   8.956   4.271   5.200  0.1674 -0.3838 -0.1048
18424THY    HA356677   8.923   4.367   5.162 -0.5099 -0.7827 -0.4819
18424THY    CA456678   8.870   4.165   5.229  0.4274 -0.0177 -0.2973
18424THY    HA456679   8.763   4.183   5.217  0.1041  2.3412 -0.1964
18424THY    CA556680   8.917   4.054   5.301 -0.3233 -0.4795 -0.2806
18424THY    CM156681   8.813   3.945   5.342  0.3239 -0.4015 -0.2369
18424THY    HM156682   8.870   3.880   5.409 -1.5167  0.6062 -0.8818
18424THY    HM256683   8.774   3.896   5.252 -0.6597 -0.7807  1.1925
18424THY    HM356684   8.731   3.981   5.404 -1.1997 -2.0825 -0.6775
18424THY    CA656685   9.051   4.033   5.315  0.6614 -0.5035 -0.4907
18424THY    HA656686   9.082   3.937   5.354  0.5962 -2.5492 -1.3985
18425THY      O56687   3.959   7.886   2.592  0.0145 -0.5058 -0.3738
18425THY     HO56688   3.915   7.905   2.676 -0.5701 -0.5096 -1.6376
18425THY    CA156689   4.004   7.757   2.583  0.0918  0.0559  0.0134
18425THY    CA256690   4.037   7.711   2.453 -0.8978  0.0796 -0.4872
18425THY    CP156691   4.021   7.802   2.327  0.1385 -1.2809  0.4402
18425THY    HP156692   3.954   7.887   2.344  0.8138  0.6197  0.6206
18425THY    CP256693   3.964   7.728   2.202 -0.3689  0.7142  0.0353
18425THY    HP256694   3.869   7.675   2.216 -0.8018  1.4396  0.9926
18425THY    HP356695   4.034   7.654   2.160 -0.8104 -0.1509  0.0967
18425THY    HP456696   3.946   7.802   2.123 -1.0595  0.9950  0.1741
18425THY    CP356697   4.159   7.857   2.294  0.0199  0.5196  0.7109
18425THY    HP556698   4.224   7.770   2.273 -0.8658 -2.0823  0.5642
18425THY    HP656699   4.211   7.917   2.369 -0.2180  0.0422  1.5265
18425THY    HP756700   4.159   7.915   2.201 -1.1101  0.0338 -0.0246
18425THY    CA356701   4.116   7.585   2.447 -0.1520  0.6984 -0.5859
18425THY    HA356702   4.143   7.545   2.349  1.3697 -0.7390  3.4681
18425THY    CA456703   4.154   7.521   2.568 -0.2595  0.6152 -0.2551
18425THY    HA456704   4.208   7.427   2.561  0.4235 -1.4441  0.2284
18425THY    CA556705   4.117   7.574   2.694  0.4915  0.6846  0.1988
18425THY    CM156706   4.165   7.498   2.805 -1.4458  0.2131  0.0905
18425THY    HM156707   4.223   7.411   2.772 -0.0525  0.2996  0.9637
18425THY    HM256708   4.082   7.448   2.857 -0.7791  0.7958 -0.4270
18425THY    HM356709   4.223   7.565   2.869  0.7192 -1.1782 -0.3367
18425THY    CA656710   4.035   7.686   2.699  0.1480  0.1826  0.2229
18425THY    HA656711   4.005   7.729   2.794  1.1166 -0.1343  1.6932
18426THY      O56712   5.085   2.179   5.837  0.2014 -0.0525  0.3249
18426THY     HO56713   5.115   2.167   5.929  0.8026 -0.3264 -0.2850
18426THY    CA156714   5.045   2.307   5.820 -0.0513 -0.7142 -0.2231
18426THY    CA256715   4.999   2.351   5.696  1.1591 -0.6006 -0.9471
18426THY    CP156716   4.987   2.256   5.575 -0.6851 -0.1462  0.1493
18426THY    HP156717   5.083   2.204   5.586  0.2542  1.1897  2.0286
18426THY    CP256718   4.975   2.325   5.437 -0.3772  0.2282 -0.4784
18426THY    HP256719   4.881   2.381   5.434  1.2518  1.3235  2.5353
18426THY    HP356720   4.971   2.241   5.366  0.6131 -1.4743  0.8585
18426THY    HP456721   5.066   2.383   5.417 -0.0086 -0.7449 -1.3642
18426THY    CP356722   4.858   2.156   5.582 -0.4201  0.3669  0.1161
18426THY    HP556723   4.765   2.215   5.576  0.4075 -0.5631  1.3644
18426THY    HP656724   4.864   2.090   5.670 -4.4734  1.0200  0.3371
18426THY    HP756725   4.865   2.085   5.499 -1.2198  0.2445  0.1634
18426THY    CA356726   4.947   2.482   5.689 -0.3932  1.2883 -0.2096
18426THY    HA356727   4.895   2.527   5.605  0.4356  0.3308 -0.9922
18426THY    CA456728   4.969   2.566   5.792 -0.2064 -0.0137 -0.0466
18426THY    HA456729   4.922   2.663   5.788  0.5252  0.8413  0.3663
18426THY    CA556730   5.038   2.529   5.909  0.3166  0.2739  0.2704
18426THY    CM156731   5.049   2.639   6.019 -0.5351 -0.3328  0.8424
18426THY    HM156732   4.951   2.687   6.035  0.2122  0.2158  2.2467
18426THY    HM256733   5.130   2.712   6.009  0.0239  1.8558  0.5981
18426THY    HM356734   5.082   2.596   6.115  1.2538 -0.4446  1.8913
18426THY    CA656735   5.075   2.392   5.930 -0.0355  0.1361 -0.4162
18426THY    HA656736   5.124   2.363   6.023  0.1499 -0.2718 -1.4582
18427THY      O56737   8.739   4.492   7.426 -0.1880  0.3619  0.3939
18427THY     HO56738   8.696   4.528   7.506  0.2717  0.6192  0.3839
18427THY    CA156739   8.847   4.570   7.387 -0.3409  0.7540 -0.2668
18427THY    CA256740   8.978   4.527   7.412  0.2641  0.7666  0.3730
18427THY    CP156741   9.003   4.400   7.497 -0.0197  0.1329  0.9793
18427THY    HP156742   8.916   4.381   7.563 -0.5201  0.0889  2.9305
18427THY    CP256743   9.125   4.405   7.590  0.1070  0.2655  0.3574
18427THY    HP256744   9.157   4.309   7.633 -0.0942 -1.6247 -0.6139
18427THY    HP356745   9.108   4.478   7.670  3.5023  0.2620  1.3382
18427THY    HP456746   9.213   4.454   7.546 -0.0939  0.0511  0.5254
18427THY    CP356747   9.008   4.278   7.401 -0.6063 -0.2182 -0.9694
18427THY    HP556748   9.096   4.280   7.336 -1.2148 -1.0413  0.5563
18427THY    HP656749   8.926   4.286   7.329 -0.3347 -0.6833 -2.2027
18427THY    HP756750   9.002   4.180   7.450 -0.7885  3.1803  0.5962
18427THY    CA356751   9.081   4.583   7.339 -0.0218  0.3712 -0.0677
18427THY    HA356752   9.180   4.541   7.348 -0.4898  1.2438 -1.0419
18427THY    CA456753   9.049   4.692   7.252  0.0266 -0.0219  0.0232
18427THY    HA456754   9.129   4.733   7.191  0.2226  1.1315  1.4283
18427THY    CA556755   8.919   4.748   7.245  0.2824 -0.0110  1.1594
18427THY    CM156756   8.890   4.868   7.164  0.3828 -0.0297  0.7712
18427THY    HM156757   8.926   4.848   7.063  2.5101  1.1343 -1.8399
18427THY    HM256758   8.942   4.952   7.212 -1.0439  0.9622  1.1224
18427THY    HM356759   8.782   4.886   7.157  0.4977 -3.2727  0.8237
18427THY    CA656760   8.816   4.692   7.320  0.7764 -0.3389 -0.6549
18427THY    HA656761   8.716   4.732   7.314 -0.0530  2.1029 -2.1053
18428THY      O56762   1.251   3.741   7.414 -0.0449 -0.4179 -0.1577
18428THY     HO56763   1.253   3.780   7.503  1.3600 -0.3546 -0.3460
18428THY    CA156764   1.335   3.815   7.343  0.4697 -0.1830  0.1193
18428THY    CA256765   1.341   3.812   7.201 -0.7427  0.4929  0.2772
18428THY    CP156766   1.269   3.699   7.132  0.5949 -0.2309 -0.1683
18428THY    HP156767   1.245   3.619   7.204 -4.1640  0.2246  1.3061
18428THY    CP256768   1.349   3.637   7.018 -0.1305  1.0748 -0.8251
18428THY    HP256769   1.302   3.562   6.953 -0.4255  1.0300 -0.6027
18428THY    HP356770   1.436   3.589   7.064  0.4935  1.0863  0.2759
18428THY    HP456771   1.380   3.713   6.945 -1.2074  0.0820 -1.3007
18428THY    CP356772   1.135   3.750   7.078 -0.5795 -0.4319  0.0211
18428THY    HP556773   1.073   3.664   7.051 -1.8551  1.0309  0.4403
18428THY    HP656774   1.158   3.816   6.993  0.2058  0.4002  0.8594
18428THY    HP756775   1.073   3.807   7.149 -2.1855 -0.9463 -1.0069
18428THY    CA356776   1.426   3.900   7.133  0.2259  0.3985  0.1052
18428THY    HA356777   1.418   3.902   7.025  1.3440  0.3149  0.8441
18428THY    CA456778   1.494   4.000   7.203  0.7823 -0.7789 -0.1027
18428THY    HA456779   1.551   4.076   7.150  2.1931 -0.1726 -0.6985
18428THY    CA556780   1.483   4.010   7.345  0.3497 -0.0220 -0.2723
18428THY    CM156781   1.550   4.120   7.420 -0.0087  0.4051  0.2849
18428THY    HM156782   1.589   4.202   7.359  1.1826 -1.6160 -1.6868
18428THY    HM256783   1.634   4.083   7.481 -1.0746  0.8221 -1.5511
18428THY    HM356784   1.474   4.156   7.491  0.7474  3.5529 -3.6390
18428THY    CA656785   1.402   3.916   7.410  0.3972 -0.2404  0.1996
18428THY    HA656786   1.403   3.924   7.519  1.7179 -0.1792 -0.4509
18429THY      O56787   1.643   2.589   5.478  0.0090  0.1303 -0.3157
18429THY     HO56788   1.621   2.627   5.392 -2.3148  0.9493  0.3401
18429THY    CA156789   1.763   2.514   5.460  0.2170  0.2594  0.1795
18429THY    CA256790   1.840   2.474   5.572 -0.0483  0.0494  0.0850
18429THY    CP156791   1.795   2.514   5.714 -0.5470 -0.2655 -0.1408
18429THY    HP156792   1.688   2.537   5.712 -0.3623 -0.4543  0.7280
18429THY    CP256793   1.874   2.629   5.773 -0.2218  0.3904  0.7802
18429THY    HP256794   1.862   2.714   5.705  2.8528 -0.9851  0.2388
18429THY    HP356795   1.977   2.591   5.782 -0.7227 -0.4020 -0.8249
18429THY    HP456796   1.831   2.644   5.873 -3.2387 -0.7436  0.3713
18429THY    CP356797   1.814   2.398   5.804  0.5162 -0.1727 -0.0541
18429THY    HP556798   1.763   2.314   5.756 -0.9449 -0.3101  0.8802
18429THY    HP656799   1.760   2.419   5.897  0.2943 -0.1757 -0.5819
18429THY    HP756800   1.919   2.376   5.828  0.5092  2.3313  2.1054
18429THY    CA356801   1.960   2.410   5.540  0.4332  0.5876  0.0118
18429THY    HA356802   2.035   2.376   5.611  2.3405 -1.0241  0.6012
18429THY    CA456803   1.997   2.370   5.411  0.2273  0.0945  0.1738
18429THY    HA456804   2.089   2.316   5.390  0.2503 -3.0217  1.2399
18429THY    CA556805   1.914   2.409   5.304  0.2022 -0.5773  0.0764
18429THY    CM156806   1.929   2.363   5.165 -0.0545  0.5953  0.5767
18429THY    HM156807   2.013   2.292   5.159 -0.2484  0.2027  0.3787
18429THY    HM256808   1.949   2.446   5.097 -0.8342 -0.8943 -0.4122
18429THY    HM356809   1.842   2.310   5.125 -0.1316  0.5917  0.7078
18429THY    CA656810   1.800   2.484   5.331 -0.1486 -0.3771  0.6988
18429THY    HA656811   1.739   2.500   5.243  1.0025 -1.2537  0.4186
18430THY      O56812   3.146   1.450   4.806  0.0239 -0.5131 -0.3719
18430THY     HO56813   3.228   1.410   4.840  0.6464 -1.0696  0.4025
18430THY    CA156814   3.063   1.465   4.906 -0.2332 -0.4608 -0.6671
18430THY    CA256815   2.930   1.483   4.887  0.7243  0.1427  0.0822
18430THY    CP156816   2.881   1.521   4.744  0.1497  0.6190 -0.2049
18430THY    HP156817   2.965   1.559   4.684 -2.0095 -3.6339 -1.4974
18430THY    CP256818   2.778   1.633   4.744 -0.0577 -0.1559 -0.7108
18430THY    HP256819   2.783   1.677   4.644  0.3240 -0.1523 -0.7435
18430THY    HP356820   2.800   1.709   4.820  0.4902 -0.2302 -0.7918
18430THY    HP456821   2.675   1.600   4.760  0.3874  1.8930 -1.2809
18430THY    CP356822   2.826   1.404   4.664 -0.2490 -0.2538  0.2189
18430THY    HP556823   2.739   1.372   4.721  0.0580  0.4970  0.7006
18430THY    HP656824   2.901   1.324   4.664 -0.7159 -0.5797 -0.2278
18430THY    HP756825   2.802   1.419   4.557  1.2989 -0.5506  0.7525
18430THY    CA356826   2.838   1.478   5.001 -0.3493  0.7770 -0.3057
18430THY    HA356827   2.731   1.485   4.985 -0.1359 -0.7282 -0.0541
18430THY    CA456828   2.893   1.447   5.126  0.7529  0.3667  0.3149
18430THY    HA456829   2.839   1.439   5.220  0.5058  0.2798  0.9513
18430THY    CA556830   3.033   1.440   5.139 -0.7262 -0.2828  0.3019
18430THY    CM156831   3.083   1.429   5.274  0.0536 -0.0421  0.1708
18430THY    HM156832   3.054   1.507   5.345 -0.0830  1.3396 -1.1108
18430THY    HM256833   3.192   1.433   5.278  0.0461  0.0780  0.2424
18430THY    HM356834   3.041   1.332   5.305  0.2254  0.9793  0.4131
18430THY    CA656835   3.118   1.452   5.026 -0.2875  0.2763  0.6760
18430THY    HA656836   3.226   1.453   5.024 -0.2910 -1.7582  0.8506
18431THY      O56837   1.939   7.392   2.506  0.1273  0.2531 -0.0875
18431THY     HO56838   1.906   7.456   2.571 -3.1822 -2.2537  1.0356
18431THY    CA156839   1.921   7.265   2.548 -0.0262  0.1301  0.5691
18431THY    CA256840   1.988   7.156   2.491  0.2653  0.0189  0.3252
18431THY    CP156841   2.097   7.179   2.377  0.8213 -0.6657  0.3878
18431THY    HP156842   2.061   7.261   2.314 -2.0460 -0.6888 -0.7472
18431THY    CP256843   2.111   7.059   2.287  0.5195 -0.4513 -0.2485
18431THY    HP256844   2.019   7.044   2.230 -0.8917  1.3812  1.1270
18431THY    HP356845   2.124   6.967   2.346 -1.0366  0.9438  0.3883
18431THY    HP456846   2.183   7.075   2.205 -0.3717 -1.4970 -1.3414
18431THY    CP356847   2.232   7.209   2.444 -0.2652  0.1355  0.0864
18431THY    HP556848   2.242   7.142   2.530 -1.7098  0.5518  0.3705
18431THY    HP656849   2.226   7.310   2.487 -2.6215 -0.1831  0.1480
18431THY    HP756850   2.317   7.211   2.375 -0.6916 -0.4344  2.7966
18431THY    CA356851   1.955   7.023   2.537 -0.2767  0.2761  0.1026
18431THY    HA356852   2.011   6.936   2.505  0.0997 -0.7817  0.7174
18431THY    CA456853   1.867   7.012   2.646 -0.3852 -0.1947 -0.5733
18431THY    HA456854   1.853   6.914   2.691  0.0580  1.8474  0.2694
18431THY    CA556855   1.812   7.123   2.705 -0.1022 -0.1858 -0.0500
18431THY    CM156856   1.752   7.118   2.844 -0.3027 -0.0353 -0.3970
18431THY    HM156857   1.772   7.208   2.904  2.3092 -1.9739  0.4499
18431THY    HM256858   1.779   7.028   2.900 -0.0515  1.1842  0.4185
18431THY    HM356859   1.643   7.123   2.839 -0.1941 -1.7703  1.9063
18431THY    CA656860   1.835   7.248   2.653  0.2414 -0.0086 -0.0504
18431THY    HA656861   1.804   7.337   2.708  0.5704 -0.5619  0.4069
18432THY      O56862   3.756   2.565   7.193  0.4308  0.1380 -0.2873
18432THY     HO56863   3.737   2.660   7.196 -1.1917  0.2960 -0.5871
18432THY    CA156864   3.727   2.519   7.319  0.0485  0.7120  0.3835
18432THY    CA256865   3.715   2.384   7.345 -0.6921 -1.0187  0.4076
18432THY    CP156866   3.739   2.279   7.239  0.2371 -0.0100  0.3011
18432THY    HP156867   3.769   2.325   7.145  0.6064 -0.2906 -0.4960
18432THY    CP256868   3.613   2.205   7.194  0.2035 -0.3134  0.2814
18432THY    HP256869   3.566   2.158   7.281 -1.0670 -1.2017 -0.1277
18432THY    HP356870   3.636   2.130   7.117  1.2515 -0.4178  0.6859
18432THY    HP456871   3.544   2.281   7.157 -0.0722 -0.8817 -0.2452
18432THY    CP356872   3.849   2.179   7.269 -0.5369 -0.1570  0.5131
18432THY    HP556873   3.949   2.223   7.278 -0.1854  0.8993 -0.4344
18432THY    HP656874   3.861   2.112   7.183 -0.6168  0.2706 -0.0661
18432THY    HP756875   3.837   2.114   7.357 -0.1288  1.7848  2.8952
18432THY    CA356876   3.673   2.343   7.477 -0.0405  0.0242  0.1108
18432THY    HA356877   3.655   2.237   7.497  0.6723  0.9305  0.1522
18432THY    CA456878   3.649   2.436   7.576 -0.1442  0.6633  0.3862
18432THY    HA456879   3.612   2.400   7.672  1.2466  0.1218 -2.7519
18432THY    CA556880   3.669   2.571   7.550 -0.2681 -0.1332  0.7118
18432THY    CM156881   3.645   2.674   7.654  0.2726 -0.0065  0.2488
18432THY    HM156882   3.737   2.718   7.694 -0.1233 -0.9172  1.9738
18432THY    HM256883   3.599   2.632   7.745  1.2911  1.4585  2.1578
18432THY    HM356884   3.580   2.757   7.624 -1.3910 -1.6451 -1.5429
18432THY    CA656885   3.705   2.612   7.420  0.5972  0.1093  0.7379
18432THY    HA656886   3.712   2.720   7.404  1.3681 -1.4086  0.4904
18433THY      O56887   2.833   0.836   2.442  0.3206  0.2839  0.6750
18433THY     HO56888   2.767   0.785   2.493  1.1175  0.6291 -0.0218
18433THY    CA156889   2.766   0.920   2.360 -0.0276 -0.4675  0.7376
18433THY    CA256890   2.829   1.024   2.296 -0.5765 -0.2024  0.4687
18433THY    CP156891   2.979   1.055   2.302 -0.0697  0.1181  0.4211
18433THY    HP156892   3.036   0.976   2.352  3.3984 -2.7650  0.8082
18433THY    CP256893   3.007   1.200   2.350  0.4570  0.2400  0.6649
18433THY    HP256894   3.112   1.221   2.372  0.5054 -1.8993  3.2961
18433THY    HP356895   2.955   1.217   2.446 -1.8898 -1.0349  1.1681
18433THY    HP456896   2.970   1.277   2.281  0.3168  0.8415  1.1441
18433THY    CP356897   3.038   1.034   2.165 -0.3865  0.7508  0.4266
18433THY    HP556898   2.999   1.102   2.089  0.7465 -0.2455  0.0064
18433THY    HP656899   3.017   0.930   2.135  2.5049  0.9214 -0.2967
18433THY    HP756900   3.147   1.044   2.166 -0.2384 -0.7490 -0.7393
18433THY    CA356901   2.752   1.103   2.209 -0.1339 -0.0727 -0.4523
18433THY    HA356902   2.794   1.181   2.146 -3.4468 -0.0183  1.5760
18433THY    CA456903   2.616   1.069   2.190  0.6453 -0.7230 -0.0865
18433THY    HA456904   2.551   1.120   2.119  1.3404 -2.7975 -1.9150
18433THY    CA556905   2.555   0.962   2.258  0.4348  0.1311 -0.1781
18433THY    CM156906   2.401   0.936   2.234  0.2050 -0.0176  0.5499
18433THY    HM156907   2.381   0.868   2.150  0.3511  0.6947 -0.4027
18433THY    HM256908   2.345   1.025   2.204  0.5956 -0.8747  0.5185
18433THY    HM356909   2.345   0.894   2.319  1.1065  0.2403 -0.1639
18433THY    CA656910   2.636   0.881   2.340  0.0943  0.4090 -0.2156
18433THY    HA656911   2.591   0.792   2.385 -1.7513  2.0377  1.4472
18434THY      O56912   7.381   3.005   5.216 -0.1314 -0.2801 -0.3163
18434THY     HO56913   7.385   3.102   5.205 -1.3424 -1.0443 -0.3275
18434THY    CA156914   7.477   2.956   5.130  0.4066 -0.4122  0.1186
18434THY    CA256915   7.459   2.820   5.085  0.3610 -0.2387 -0.2090
18434THY    CP156916   7.329   2.747   5.099  0.7004 -0.0311  0.7535
18434THY    HP156917   7.251   2.817   5.131  0.5349  0.2209  0.4510
18434THY    CP256918   7.353   2.626   5.199  0.0740 -0.2071 -0.3438
18434THY    HP256919   7.439   2.564   5.173  0.4540  3.0881 -1.3734
18434THY    HP356920   7.270   2.554   5.197  0.6777  1.3491 -1.1357
18434THY    HP456921   7.377   2.652   5.303  1.8239 -0.8040  0.5587
18434THY    CP356922   7.279   2.685   4.965  0.4430  0.3409  0.0193
18434THY    HP556923   7.354   2.625   4.912 -0.4372 -2.4234  1.2266
18434THY    HP656924   7.242   2.771   4.909 -1.1994  1.5011  0.1190
18434THY    HP756925   7.188   2.626   4.982 -1.2988 -4.2364  1.0358
18434THY    CA356926   7.568   2.763   5.015  0.0812 -0.1416  0.5916
18434THY    HA356927   7.566   2.663   4.974  0.0814  0.6659  0.2554
18434THY    CA456928   7.680   2.840   4.991 -0.5168 -0.1752 -0.7366
18434THY    HA456929   7.762   2.782   4.949  0.4198 -0.9732  1.1024
18434THY    CA556930   7.689   2.977   5.024  0.4451  0.2109  0.0123
18434THY    CM156931   7.813   3.051   4.991 -0.8389  0.1793 -0.6208
18434THY    HM156932   7.908   3.015   5.032 -0.7168 -1.1108 -1.8274
18434THY    HM256933   7.806   3.156   5.021 -0.7547 -0.9352 -0.2867
18434THY    HM356934   7.827   3.066   4.884  0.0509  0.1029 -1.9105
18434THY    CA656935   7.584   3.032   5.097  0.6550 -0.3215 -0.4290
18434THY    HA656936   7.591   3.136   5.125 -0.2931  0.0471 -0.4578
18435THY      O56937   3.735   8.815   7.455 -0.0903 -0.3806  0.0632
18435THY     HO56938   3.821   8.776   7.433 -0.4573 -0.4804 -0.7078
18435THY    CA156939   3.745   8.819   7.596 -0.0330 -0.0960 -0.1281
18435THY    CA256940   3.635   8.862   7.676  1.0773  0.3772  0.6447
18435THY    CP156941   3.497   8.900   7.612 -1.0374  0.1593 -0.7398
18435THY    HP156942   3.515   8.912   7.504 -1.1588  0.2217  0.0202
18435THY    CP256943   3.446   9.041   7.659 -0.3145  0.2787 -0.6361
18435THY    HP256944   3.520   9.121   7.649  0.5647 -1.5169 -1.6102
18435THY    HP356945   3.405   9.031   7.760  0.1830  0.6834  1.1120
18435THY    HP456946   3.363   9.068   7.592  0.7971  0.2533  3.2778
18435THY    CP356947   3.390   8.777   7.626 -0.3187 -0.5231 -0.4123
18435THY    HP556948   3.426   8.682   7.585 -2.5046 -1.0454 -1.0634
18435THY    HP656949   3.298   8.811   7.578 -0.2196 -0.9304 -0.7047
18435THY    HP756950   3.370   8.775   7.733 -0.2250 -0.4562  1.1511
18435THY    CA356951   3.648   8.864   7.814 -0.1280  0.5693  0.8927
18435THY    HA356952   3.568   8.898   7.879 -0.6068  0.4794 -0.0447
18435THY    CA456953   3.769   8.836   7.870  0.0990 -0.1501 -0.0768
18435THY    HA456954   3.782   8.849   7.977 -0.7965 -0.2076  1.5991
18435THY    CA556955   3.886   8.800   7.797 -0.1455  0.3651 -0.0394
18435THY    CM156956   4.013   8.766   7.871 -0.2454 -0.4971 -0.6820
18435THY    HM156957   4.003   8.661   7.901 -0.2442 -2.2576 -1.2214
18435THY    HM256958   4.034   8.827   7.960  0.1558 -2.4091  2.1753
18435THY    HM356959   4.095   8.782   7.800  0.5782  0.7413  0.9145
18435THY    CA656960   3.874   8.791   7.655 -0.3538 -0.6560 -0.3151
18435THY    HA656961   3.959   8.752   7.600  0.4378 -0.0253  0.4943
18436THY      O56962   5.536   4.978   2.959  0.5399  0.0950 -0.5137
18436THY     HO56963   5.489   5.062   2.971  0.7589  1.4550 -0.5589
18436THY    CA156964   5.508   4.942   2.833 -0.1958  0.2259 -0.0910
18436THY    CA256965   5.545   4.824   2.772 -0.5759  0.0535 -0.5123
18436THY    CP156966   5.634   4.722   2.849  0.3917 -0.1670 -0.1533
18436THY    HP156967   5.678   4.743   2.947 -0.5155 -0.2005  2.2116
18436THY    CP256968   5.764   4.708   2.769  0.0413  0.0634 -0.8759
18436THY    HP256969   5.833   4.640   2.820 -0.0924  2.2563  0.5263
18436THY    HP356970   5.809   4.807   2.766 -1.1006 -2.7193 -0.3520
18436THY    HP456971   5.732   4.682   2.667  3.5419 -0.8149 -2.2383
18436THY    CP356972   5.563   4.579   2.864 -0.1020  0.0928 -0.8848
18436THY    HP556973   5.463   4.592   2.907  0.6113  1.6178 -0.1773
18436THY    HP656974   5.606   4.507   2.935 -2.0696  1.4369 -0.8279
18436THY    HP756975   5.558   4.524   2.769 -0.7069 -0.5957  0.3292
18436THY    CA356976   5.514   4.798   2.636 -0.1326 -0.7372  0.1816
18436THY    HA356977   5.547   4.712   2.578  0.7340 -3.3834  2.1849
18436THY    CA456978   5.436   4.890   2.563  0.1191  0.1273 -0.2119
18436THY    HA456979   5.394   4.880   2.463  0.6113 -0.2142  0.9733
18436THY    CA556980   5.399   5.008   2.625 -0.2378 -0.6559 -0.0819
18436THY    CM156981   5.309   5.100   2.554  0.9037  0.0498 -0.4688
18436THY    HM156982   5.218   5.045   2.526 -0.0258 -1.2449  1.5961
18436THY    HM256983   5.351   5.135   2.459  1.7792  0.3859 -0.5798
18436THY    HM356984   5.284   5.190   2.612  2.6514 -0.2767  0.2580
18436THY    CA656985   5.439   5.039   2.759  0.4667  0.5996 -0.2296
18436THY    HA656986   5.391   5.122   2.809 -1.4757  0.8981 -1.4691
18437THY      O56987   1.479   5.734   2.428  0.1227  0.1961  0.0693
18437THY     HO56988   1.393   5.688   2.428 -0.2651  0.0368  0.7872
18437THY    CA156989   1.503   5.781   2.305 -0.4386 -0.3050 -0.6615
18437THY    CA256990   1.565   5.912   2.287 -0.3403 -0.2441  0.4480
18437THY    CP156991   1.616   5.990   2.406  0.7483 -0.9560 -0.1465
18437THY    HP156992   1.625   5.923   2.493 -2.4285 -0.5552 -0.1889
18437THY    CP256993   1.535   6.113   2.450  0.2505  0.0224 -0.5024
18437THY    HP256994   1.451   6.080   2.511  1.2111  0.7578 -1.6782
18437THY    HP356995   1.505   6.164   2.358 -0.5918  0.8678  0.5772
18437THY    HP456996   1.593   6.183   2.512 -1.9176  0.5418  0.9248
18437THY    CP356997   1.761   6.032   2.371 -0.1249  0.3461 -0.4265
18437THY    HP556998   1.762   6.122   2.309  1.3099 -1.4020 -1.5783
18437THY    HP656999   1.808   5.951   2.314 -0.9339  1.1744 -1.5121
18437THY    HP757000   1.823   6.052   2.459  0.2026 -0.0963  0.6104
18437THY    CA357001   1.577   5.961   2.159  0.1564 -0.0137  0.0920
18437THY    HA357002   1.611   6.063   2.144 -2.4527 -0.7969  0.9333
18437THY    CA457003   1.542   5.880   2.051  0.2602 -0.6021 -0.1980
18437THY    HA457004   1.554   5.926   1.953  4.3505  0.1339  0.7602
18437THY    CA557005   1.494   5.746   2.072  0.1982  0.4922 -0.3384
18437THY    CM157006   1.450   5.668   1.956  0.5268 -0.0946  0.0114
18437THY    HM157007   1.413   5.568   1.979 -2.1328 -2.3381  0.3462
18437THY    HM257008   1.532   5.668   1.884  2.7987  2.2818  2.7578
18437THY    HM357009   1.364   5.712   1.904  1.2018 -0.1341  1.3387
18437THY    CA657010   1.475   5.699   2.202 -0.5186  1.0960 -0.4048
18437THY    HA657011   1.442   5.597   2.220 -0.3991  0.3672 -0.5770
18438THY      O57012   6.204   3.344   6.879  0.6865 -0.3165  0.0475
18438THY     HO57013   6.224   3.300   6.795 -0.4489 -0.6117  0.0767
18438THY    CA157014   6.098   3.432   6.860  0.1945 -0.2142  0.1972
18438THY    CA257015   6.020   3.482   6.965  0.4037  0.0114 -0.2476
18438THY    CP157016   6.032   3.427   7.103  0.1203 -0.5030 -0.5801
18438THY    HP157017   6.139   3.406   7.113  0.0041 -0.0804 -0.9994
18438THY    CP257018   5.964   3.297   7.128 -0.1414  0.3378 -0.1806
18438THY    HP257019   5.856   3.294   7.107  0.1841 -1.5122 -0.4138
18438THY    HP357020   5.981   3.280   7.235 -0.8498  0.4236 -0.4141
18438THY    HP457021   6.018   3.214   7.082  0.4180 -0.3208  0.5348
18438THY    CP357022   6.011   3.536   7.214 -0.3383  0.8026 -0.0346
18438THY    HP557023   5.902   3.543   7.221 -0.3916  0.5340 -0.5372
18438THY    HP657024   6.057   3.628   7.175  1.1605  2.3533 -0.0720
18438THY    HP757025   6.051   3.501   7.310  2.4324 -0.3198 -0.2505
18438THY    CA357026   5.907   3.560   6.944  0.1046  0.3502  0.4597
18438THY    HA357027   5.839   3.603   7.017 -0.5857  0.0352 -0.0760
18438THY    CA457028   5.893   3.598   6.809  0.2737 -0.0568 -0.1135
18438THY    HA457029   5.810   3.660   6.777  0.6100 -0.1106  0.3149
18438THY    CA557030   5.974   3.560   6.703  0.1421 -0.4813 -0.4941
18438THY    CM157031   5.954   3.617   6.570 -0.3102 -0.3784  0.1257
18438THY    HM157032   5.960   3.727   6.566  0.2066  0.7699  0.1538
18438THY    HM257033   5.855   3.589   6.533  0.2484 -2.0418  0.2600
18438THY    HM357034   6.029   3.578   6.501 -0.3810  0.3984 -1.4834
18438THY    CA657035   6.075   3.471   6.730  0.3363  0.8132 -0.1630
18438THY    HA657036   6.153   3.443   6.660  2.0415  1.2890  2.8822
18439THY      O57037   2.062   7.726   5.817  0.2454  0.4711  0.2805
18439THY     HO57038   2.027   7.805   5.861  2.1203  0.0321  1.4096
18439THY    CA157039   2.072   7.629   5.915 -0.0092  0.4601 -0.9700
18439THY    CA257040   2.111   7.497   5.890  0.6626 -0.2019 -0.1095
18439THY    CP157041   2.109   7.440   5.755  0.6177  0.2248  0.0789
18439THY    HP157042   2.080   7.521   5.686 -1.8330  1.8921  0.7614
18439THY    CP257043   1.995   7.340   5.746 -0.2754 -0.3345  0.0332
18439THY    HP257044   1.904   7.391   5.779 -0.1744  1.0819 -0.6415
18439THY    HP357045   2.026   7.264   5.819 -1.5005 -0.1626 -0.3290
18439THY    HP457046   1.984   7.279   5.656 -1.3785  1.8599 -3.2879
18439THY    CP357047   2.242   7.365   5.719  0.3870 -0.2162  0.3355
18439THY    HP557048   2.317   7.432   5.761  0.5649 -0.0268  0.0182
18439THY    HP657049   2.249   7.343   5.612 -0.7053 -0.2020 -0.2098
18439THY    HP757050   2.249   7.269   5.771 -0.5540 -1.9560 -0.7317
18439THY    CA357051   2.138   7.410   5.999 -0.6988 -0.6813  0.3663
18439THY    HA357052   2.158   7.304   5.988 -1.0215  0.9125  0.1215
18439THY    CA457053   2.127   7.455   6.128 -0.1675  0.0386  0.1194
18439THY    HA457054   2.148   7.382   6.205  1.0032 -0.3692  0.0018
18439THY    CA557055   2.079   7.592   6.153 -0.8248  0.0402  0.3677
18439THY    CM157056   2.076   7.640   6.298  0.2655  0.5120  0.7922
18439THY    HM157057   2.078   7.750   6.297 -1.9102 -2.7535  0.9525
18439THY    HM257058   2.162   7.601   6.354  0.3620 -1.2268 -1.7196
18439THY    HM357059   1.984   7.609   6.348  0.1286  1.0182  1.9724
18439THY    CA657060   2.047   7.676   6.049  0.2115  0.3937  0.3021
18439THY    HA657061   2.017   7.779   6.068  2.3007  0.4278  0.9672
18440THY      O57062   7.512   3.945   4.015  0.2610 -0.2085  0.1323
18440THY     HO57063   7.449   3.954   3.942 -2.2886  1.5959 -1.4437
18440THY    CA157064   7.620   4.016   3.981  0.2384  0.3543 -0.0678
18440THY    CA257065   7.728   4.039   4.069  0.3168 -0.2457  0.9476
18440THY    CP157066   7.741   3.970   4.199 -0.2006 -1.1954 -0.0427
18440THY    HP157067   7.670   3.893   4.232 -2.1006  0.5232  2.2723
18440THY    CP257068   7.716   4.069   4.316 -0.1081  0.0471 -0.1659
18440THY    HP257069   7.788   4.152   4.325  0.0926  2.0675 -0.5102
18440THY    HP357070   7.723   4.027   4.417  1.8504  0.2878  0.6181
18440THY    HP457071   7.615   4.106   4.296  0.5997 -0.7447  1.4467
18440THY    CP357072   7.884   3.909   4.233  0.1537  0.2394  0.1203
18440THY    HP557073   7.908   3.830   4.162 -0.9956 -0.3229  0.2555
18440THY    HP657074   7.878   3.869   4.335  0.0411 -0.0458 -0.6051
18440THY    HP757075   7.965   3.983   4.231 -0.3041  0.7184  0.6466
18440THY    CA357076   7.827   4.126   4.024 -0.0412  0.4607  0.2226
18440THY    HA357077   7.912   4.154   4.086  0.0512  0.4728 -0.0879
18440THY    CA457078   7.821   4.190   3.897 -0.2240 -0.4451  0.1102
18440THY    HA457079   7.899   4.257   3.861 -0.0326  0.5460  0.4309
18440THY    CA557080   7.720   4.157   3.815 -0.0671 -0.3880 -0.2211
18440THY    CM157081   7.718   4.210   3.673  0.2369 -0.4685  0.0948
18440THY    HM157082   7.761   4.311   3.670 -1.2185  1.2190  0.8194
18440THY    HM257083   7.614   4.221   3.641 -0.3610  0.5275 -2.2384
18440THY    HM357084   7.777   4.148   3.604  1.5115  0.1945  0.5215
18440THY    CA657085   7.617   4.075   3.852  0.2343 -0.4561 -0.8835
18440THY    HA657086   7.538   4.052   3.781  0.3752 -0.1542 -2.3789
18441THY      O57087   7.416   4.069   3.332  0.5895 -0.4096 -0.3496
18441THY     HO57088   7.489   4.133   3.336  0.2407  0.0647  0.0247
18441THY    CA157089   7.461   3.951   3.374  0.3825 -0.0434 -0.0490
18441THY    CA257090   7.421   3.834   3.310 -0.2185  0.7695 -0.5969
18441THY    CP157091   7.309   3.832   3.206 -0.1084 -1.3025 -0.1861
18441THY    HP157092   7.294   3.934   3.171  1.1514  1.7990  1.1898
18441THY    CP257093   7.174   3.799   3.277 -0.3423 -0.2344 -0.0343
18441THY    HP257094   7.189   3.701   3.324 -1.2320  0.4179  0.1276
18441THY    HP357095   7.102   3.792   3.194 -0.8111 -0.0328  1.9530
18441THY    HP457096   7.144   3.877   3.348  3.0078  0.2961  0.9324
18441THY    CP357097   7.336   3.748   3.085  0.5233 -0.6025  0.5598
18441THY    HP557098   7.442   3.720   3.077  0.7389  1.1236  0.7798
18441THY    HP657099   7.294   3.789   2.992 -3.9170  1.1804  0.5837
18441THY    HP757100   7.293   3.648   3.101  3.5080 -0.2921 -0.7720
18441THY    CA357101   7.481   3.705   3.345 -0.2796  0.4028 -0.1411
18441THY    HA357102   7.449   3.611   3.300 -0.3443 -0.4794  0.2987
18441THY    CA457103   7.579   3.705   3.442  0.0107  0.3336 -0.0554
18441THY    HA457104   7.628   3.616   3.481  0.9776 -0.3019  0.1817
18441THY    CA557105   7.621   3.820   3.508  0.1802 -0.5924 -0.4833
18441THY    CM157106   7.744   3.809   3.597 -0.1323  0.5439 -0.3094
18441THY    HM157107   7.798   3.904   3.590 -1.8413  1.1439  0.7537
18441THY    HM257108   7.807   3.723   3.572 -1.3390  4.0377 -2.3923
18441THY    HM357109   7.719   3.824   3.703 -0.8370  0.0278  3.0557
18441THY    CA657110   7.556   3.947   3.474  0.2396 -0.6691 -0.1059
18441THY    HA657111   7.608   4.037   3.505 -1.5427 -1.5843  1.2967
18442THY      O57112   5.920   7.750   6.513  0.1264 -0.1282 -0.2396
18442THY     HO57113   5.826   7.725   6.515  0.6439  0.8600 -2.2658
18442THY    CA157114   5.949   7.792   6.384  0.1973 -0.5022  0.5268
18442THY    CA257115   6.077   7.807   6.336  0.0735  0.1802 -0.5097
18442THY    CP157116   6.190   7.778   6.434  0.5007  0.3027 -0.0291
18442THY    HP157117   6.165   7.740   6.533 -0.3302  0.0607 -0.1170
18442THY    CP257118   6.257   7.921   6.457  0.0655 -0.1342  0.7945
18442THY    HP257119   6.295   7.967   6.366  1.4827  0.1740  0.3021
18442THY    HP357120   6.337   7.906   6.530 -1.8102  1.8581 -0.1788
18442THY    HP457121   6.188   7.985   6.513 -1.0593 -0.0002 -0.4844
18442THY    CP357122   6.290   7.671   6.381 -0.2730 -0.1929 -0.5339
18442THY    HP557123   6.372   7.665   6.454  0.7599 -1.2970 -0.2711
18442THY    HP657124   6.342   7.712   6.293  0.2915  1.5227  2.7636
18442THY    HP757125   6.251   7.570   6.366 -1.8408 -1.4178  0.2222
18442THY    CA357126   6.101   7.852   6.207  0.3940  0.2069  0.1616
18442THY    HA357127   6.201   7.863   6.167  0.0676 -0.7302 -0.1916
18442THY    CA457128   5.990   7.890   6.122 -0.0159 -0.8602  0.5810
18442THY    HA457129   6.004   7.922   6.019  1.7009 -1.0402 -0.6083
18442THY    CA557130   5.865   7.881   6.170 -0.1596 -0.6051  0.4008
18442THY    CM157131   5.747   7.914   6.077 -0.0856 -0.5177 -0.1420
18442THY    HM157132   5.753   8.017   6.042  4.0160 -0.2662 -0.1128
18442THY    HM257133   5.653   7.913   6.132 -0.7293 -1.4298  2.5950
18442THY    HM357134   5.726   7.845   5.994 -0.1576 -0.3097 -0.3732
18442THY    CA657135   5.845   7.830   6.302  0.5419 -0.0780  0.4690
18442THY    HA657136   5.744   7.821   6.340  0.8543  0.2630 -2.7839
18443THY      O57137   5.501   0.495   3.061  0.5836  0.2850  0.2763
18443THY     HO57138   5.409   0.462   3.063  0.2661 -0.7805  1.0278
18443THY    CA157139   5.560   0.413   2.970 -0.4516  0.0893 -0.4813
18443THY    CA257140   5.579   0.448   2.841 -0.1754  0.1619 -0.2806
18443THY    CP157141   5.524   0.581   2.797 -0.3722 -0.5754  0.1828
18443THY    HP157142   5.550   0.644   2.884 -1.6962  0.1652 -0.2638
18443THY    CP257143   5.376   0.568   2.785  0.5721 -0.2263  0.0059
18443THY    HP257144   5.324   0.662   2.764  0.3650 -0.1813 -0.0989
18443THY    HP357145   5.330   0.541   2.880  1.7611  0.4261  0.2097
18443THY    HP457146   5.358   0.495   2.705 -1.7344 -0.8613  1.1955
18443THY    CP357147   5.599   0.652   2.682  0.5957 -0.1169  0.8244
18443THY    HP557148   5.552   0.750   2.673 -0.0333 -0.2009  0.5222
18443THY    HP657149   5.573   0.593   2.592 -1.0390  0.4419  0.6251
18443THY    HP757150   5.708   0.651   2.694  0.5795  0.7271  3.2855
18443THY    CA357151   5.660   0.369   2.756  0.4788 -0.6080  0.0767
18443THY    HA357152   5.670   0.396   2.652 -0.5350 -0.6855  0.2237
18443THY    CA457153   5.725   0.257   2.814  0.1206 -1.0335  0.0006
18443THY    HA457154   5.785   0.191   2.753  1.3167  1.5763 -1.4703
18443THY    CA557155   5.711   0.232   2.949 -0.3578  0.3950  0.4624
18443THY    CM157156   5.766   0.114   3.005 -0.5327  0.1825  0.0594
18443THY    HM157157   5.756   0.119   3.114 -1.2557  0.0776  1.8569
18443THY    HM257158   5.872   0.106   2.977 -0.8573 -1.2344  0.3932
18443THY    HM357159   5.703   0.031   2.971 -4.4680  1.1200  2.3947
18443THY    CA657160   5.626   0.305   3.027  0.4089 -0.5291  0.9271
18443THY    HA657161   5.600   0.281   3.130  0.0865 -1.4022 -3.1620
18444THY      O57162   8.903   5.957   3.243 -0.7490  0.3878  0.3423
18444THY     HO57163   8.936   5.900   3.171 -2.1517  0.2294 -0.3059
18444THY    CA157164   8.792   5.894   3.288  0.3939 -0.9220 -0.4002
18444THY    CA257165   8.720   5.949   3.401 -0.5259  0.4521 -0.5529
18444THY    CP157166   8.766   6.067   3.482 -0.0000  0.2519 -0.2886
18444THY    HP157167   8.873   6.078   3.463  0.1565  1.4873  0.5489
18444THY    CP257168   8.746   6.060   3.636 -0.3524 -0.7316 -0.7209
18444THY    HP257169   8.806   6.136   3.688 -0.6808  1.0249 -1.6247
18444THY    HP357170   8.767   5.968   3.691 -0.7006  1.1073  0.2603
18444THY    HP457171   8.640   6.076   3.657 -0.2167 -0.3281 -0.3459
18444THY    CP357172   8.708   6.201   3.426 -0.1842 -0.3684  0.3886
18444THY    HP557173   8.599   6.195   3.418 -0.0663 -1.0380 -1.6224
18444THY    HP657174   8.749   6.219   3.326 -1.8936 -0.9896  1.0053
18444THY    HP757175   8.717   6.287   3.493 -1.2263  1.3033 -0.7299
18444THY    CA357176   8.604   5.882   3.435  0.2290 -0.7374  0.1621
18444THY    HA357177   8.556   5.907   3.529 -1.2219 -1.0014 -1.4569
18444THY    CA457178   8.559   5.767   3.364 -0.0565  0.0972  0.2121
18444THY    HA457179   8.458   5.732   3.386 -1.4927 -0.0567  3.8337
18444THY    CA557180   8.631   5.722   3.252  0.1258  0.5495  0.0665
18444THY    CM157181   8.588   5.600   3.172  0.0296 -0.3468  0.0089
18444THY    HM157182   8.638   5.508   3.207 -1.2772  2.4660  0.2595
18444THY    HM257183   8.585   5.623   3.065  0.9686 -0.1743  1.0639
18444THY    HM357184   8.483   5.589   3.200  0.3054  0.8771  0.3357
18444THY    CA657185   8.743   5.786   3.212 -0.3203 -0.4839 -0.0317
18444THY    HA657186   8.793   5.748   3.124 -1.2548 -0.6541 -0.9001
18445THY      O57187   9.276   4.923   4.633  0.9676 -0.2372  0.2262
18445THY     HO57188   9.338   4.917   4.708 -0.1728  0.7990  0.8347
18445THY    CA157189   9.313   5.032   4.559 -0.8721  0.4333  0.5396
18445THY    CA257190   9.288   5.040   4.419  0.1614 -0.1636 -0.4228
18445THY    CP157191   9.235   4.921   4.335  0.3274  0.0339 -0.0270
18445THY    HP157192   9.160   4.869   4.396 -1.1198  1.4468  3.3988
18445THY    CP257193   9.345   4.824   4.291 -0.5005  0.4212  0.3866
18445THY    HP257194   9.324   4.748   4.215  0.3673 -1.4252  1.9121
18445THY    HP357195   9.392   4.777   4.378 -1.9785  0.8590 -0.3497
18445THY    HP457196   9.435   4.871   4.251 -0.3992 -0.7077 -0.7344
18445THY    CP357197   9.152   4.982   4.213  0.1253 -0.2856  0.7786
18445THY    HP557198   9.068   5.049   4.237 -0.3359  0.4328 -0.0347
18445THY    HP657199   9.104   4.898   4.162  1.6987  1.9697 -1.6368
18445THY    HP757200   9.217   5.031   4.140  0.2879  0.4956  1.7636
18445THY    CA357201   9.341   5.155   4.353 -0.2810  0.0133 -0.5783
18445THY    HA357202   9.347   5.153   4.244  1.9648  0.0936 -1.5045
18445THY    CA457203   9.407   5.257   4.428 -0.3561  0.2645 -0.0342
18445THY    HA457204   9.458   5.334   4.372 -1.5371 -0.0638  0.5322
18445THY    CA557205   9.429   5.245   4.566 -0.1966 -0.2745 -0.3015
18445THY    CM157206   9.516   5.348   4.632 -0.2181  0.5026  0.5400
18445THY    HM157207   9.582   5.290   4.698  0.5266  1.6766  2.6134
18445THY    HM257208   9.460   5.424   4.688  0.1914  0.1684  1.0924
18445THY    HM357209   9.575   5.401   4.556  0.6071  1.1663  0.6010
18445THY    CA657210   9.380   5.133   4.634  0.1686  0.0311 -0.2692
18445THY    HA657211   9.377   5.120   4.741  0.2452  0.0130 -0.4341
18446THY      O57212   0.446   8.141   6.595 -0.1082 -0.0857 -0.0304
18446THY     HO57213   0.383   8.068   6.583 -0.8506  0.2710  0.5426
18446THY    CA157214   0.460   8.212   6.476  0.2493 -0.2772 -0.0826
18446THY    CA257215   0.512   8.340   6.481  0.6358  0.2525  0.6157
18446THY    CP157216   0.556   8.413   6.605 -0.1844 -0.7091 -0.1660
18446THY    HP157217   0.520   8.365   6.698  0.1712 -0.9105 -0.8431
18446THY    CP257218   0.508   8.562   6.624  0.5582  0.0773  0.3723
18446THY    HP257219   0.474   8.582   6.727  3.1558  1.0266  0.3716
18446THY    HP357220   0.420   8.584   6.563  1.0759 -0.8804 -0.1473
18446THY    HP457221   0.587   8.635   6.603  0.6048 -4.2100 -0.6606
18446THY    CP357222   0.706   8.403   6.615 -0.0806 -0.6997 -0.2902
18446THY    HP557223   0.756   8.470   6.544 -0.2860 -0.7948 -0.2384
18446THY    HP657224   0.725   8.297   6.595 -2.3168 -1.5468 -0.5779
18446THY    HP757225   0.726   8.424   6.721  0.1477 -0.1884 -2.8372
18446THY    CA357226   0.520   8.405   6.356 -0.4500  0.2380 -0.4768
18446THY    HA357227   0.565   8.504   6.346 -2.9549  2.1092  0.9697
18446THY    CA457228   0.485   8.336   6.238 -0.2887  0.0227  0.5657
18446THY    HA457229   0.504   8.385   6.143 -1.3862 -0.2877  0.4092
18446THY    CA557230   0.428   8.207   6.242 -0.0264  0.0186 -0.1290
18446THY    CM157231   0.369   8.143   6.123  0.2103  0.2570 -0.2693
18446THY    HM157232   0.352   8.035   6.132  0.1582  0.5531 -0.2362
18446THY    HM257233   0.432   8.150   6.034 -0.7599 -0.4315 -0.0761
18446THY    HM357234   0.268   8.177   6.099  0.5477 -0.2995  0.3708
18446THY    CA657235   0.420   8.145   6.365 -0.1401 -0.0304  0.9611
18446THY    HA657236   0.378   8.045   6.376 -0.7380 -1.3167  1.0622
18447THY      O57237   2.120   5.024   4.491  0.1026  0.0306 -0.6942
18447THY     HO57238   2.032   5.048   4.527 -0.1498 -0.9874 -0.0014
18447THY    CA157239   2.196   4.983   4.600  0.4075  0.3747  0.3910
18447THY    CA257240   2.337   4.955   4.591  0.2483  0.1069  0.1869
18447THY    CP157241   2.413   4.982   4.469 -0.9938 -0.5141 -0.5099
18447THY    HP157242   2.352   4.949   4.384 -0.1382 -1.5179  0.4237
18447THY    CP257243   2.540   4.894   4.452 -0.3618 -0.4918 -0.0295
18447THY    HP257244   2.522   4.787   4.462 -1.9364 -2.2693  0.0096
18447THY    HP357245   2.619   4.936   4.515 -1.8381 -1.0062  3.9633
18447THY    HP457246   2.567   4.907   4.347 -0.3150 -0.5147 -0.3155
18447THY    CP357247   2.452   5.138   4.454  0.0702 -0.0855 -0.0453
18447THY    HP557248   2.489   5.162   4.354 -0.6293 -0.8553 -1.9613
18447THY    HP657249   2.528   5.161   4.529  1.2656 -1.1331 -0.4863
18447THY    HP757250   2.365   5.202   4.473  0.3034  0.4393  0.1115
18447THY    CA357251   2.392   4.910   4.716 -0.5355  0.1126 -0.1398
18447THY    HA357252   2.498   4.885   4.720 -0.6373  0.4065 -0.5265
18447THY    CA457253   2.315   4.891   4.836  0.2701 -0.1077 -0.5361
18447THY    HA457254   2.362   4.856   4.928 -0.5930  0.7336  0.4449
18447THY    CA557255   2.182   4.944   4.834 -0.5013  0.3528  0.2939
18447THY    CM157256   2.093   4.933   4.961 -0.4725  0.0260  0.2423
18447THY    HM157257   2.010   4.869   4.929 -0.5695 -1.7459  1.1893
18447THY    HM257258   2.063   5.035   4.989  0.9708  0.3973  0.5877
18447THY    HM357259   2.152   4.889   5.041 -0.4197 -0.2997 -0.2834
18447THY    CA657260   2.128   4.985   4.719  0.2771  0.2917  0.5565
18447THY    HA657261   2.025   5.016   4.726 -0.0408 -0.7204 -0.2430
18448THY      O57262   3.631   5.643   6.227  0.4217 -0.3706 -0.0852
18448THY     HO57263   3.678   5.714   6.273  0.9197  1.3129 -1.4364
18448THY    CA157264   3.729   5.547   6.203 -0.4678 -0.6781  0.0807
18448THY    CA257265   3.691   5.411   6.174  0.7915 -0.4053  0.2060
18448THY    CP157266   3.540   5.381   6.151  0.1680 -0.5709 -0.2181
18448THY    HP157267   3.482   5.432   6.229  0.6518  0.7619 -1.6416
18448THY    CP257268   3.500   5.234   6.153  0.1041  0.6304  0.1335
18448THY    HP257269   3.510   5.192   6.052 -1.8386  1.4931 -2.7202
18448THY    HP357270   3.394   5.225   6.179  0.7014  3.8769  1.3518
18448THY    HP457271   3.544   5.156   6.216 -0.8311 -1.1103 -1.8889
18448THY    CP357272   3.501   5.433   6.016  0.5270 -0.1367 -0.3713
18448THY    HP557273   3.409   5.383   5.985  0.9984  1.0476 -2.0855
18448THY    HP657274   3.578   5.398   5.947  0.0933 -1.1629  0.6631
18448THY    HP757275   3.495   5.542   6.008 -0.4365 -0.5118 -0.4505
18448THY    CA357276   3.789   5.314   6.155 -0.8009 -0.6480  0.3078
18448THY    HA357277   3.768   5.214   6.117  2.6183 -0.8824 -0.4259
18448THY    CA457278   3.924   5.348   6.160 -0.6329 -0.1149 -0.2393
18448THY    HA457279   4.003   5.275   6.146 -0.8194  0.6443 -0.5931
18448THY    CA557280   3.958   5.477   6.194  0.1340 -0.4681 -1.0716
18448THY    CM157281   4.100   5.525   6.199  1.0256  0.2304  0.3471
18448THY    HM157282   4.129   5.585   6.112 -2.1601 -0.2446  1.3857
18448THY    HM257283   4.160   5.433   6.197  0.3034 -1.3978 -0.1274
18448THY    HM357284   4.139   5.589   6.279  0.9643 -0.6946  1.5819
18448THY    CA657285   3.864   5.582   6.214 -0.5948 -0.1683  0.3358
18448THY    HA657286   3.896   5.686   6.219 -0.3679 -1.2574  0.3272
18449THY      O57287   5.973   7.813   6.804 -0.0495  0.2014  0.4418
18449THY     HO57288   5.940   7.821   6.712 -1.3435  0.6921  1.1898
18449THY    CA157289   6.078   7.901   6.816  1.4491 -0.1590 -0.0694
18449THY    CA257290   6.206   7.864   6.827 -0.2169 -0.0488 -0.3035
18449THY    CP157291   6.238   7.717   6.854  0.1366  0.2651 -0.5644
18449THY    HP157292   6.166   7.659   6.796 -1.5619 -0.6053  2.2053
18449THY    CP257293   6.223   7.686   7.009 -0.0221  0.4248 -0.6043
18449THY    HP257294   6.126   7.716   7.048 -0.2782 -1.7993  1.9157
18449THY    HP357295   6.302   7.746   7.056  0.1198 -0.1982 -0.2948
18449THY    HP457296   6.226   7.577   7.019  1.6026 -2.5665 -0.9576
18449THY    CP357297   6.379   7.681   6.807  0.1341  0.7454 -0.4615
18449THY    HP557298   6.466   7.736   6.844 -1.1687  3.1894  0.0689
18449THY    HP657299   6.385   7.702   6.699  0.5020  0.4936 -1.7958
18449THY    HP757300   6.401   7.576   6.829  0.6475  0.5882 -0.3908
18449THY    CA357301   6.307   7.960   6.812  0.0267 -0.0490  0.3178
18449THY    HA357302   6.414   7.939   6.807  0.2005 -1.2304  1.3439
18449THY    CA457303   6.266   8.094   6.783 -0.5361  0.3000  0.0214
18449THY    HA457304   6.337   8.175   6.794  1.7351 -2.4505 -1.4453
18449THY    CA557305   6.127   8.129   6.788 -0.0716  0.1554 -0.1711
18449THY    CM157306   6.077   8.269   6.779 -0.4736  0.2224  0.6695
18449THY    HM157307   5.971   8.284   6.803 -0.4546  0.6259  0.1879
18449THY    HM257308   6.097   8.294   6.674  1.0074  0.2528 -0.2609
18449THY    HM357309   6.138   8.342   6.833 -1.1960  0.3199  1.2030
18449THY    CA657310   6.035   8.032   6.813 -0.0552 -0.1384 -0.3876
18449THY    HA657311   5.930   8.057   6.810 -0.0392 -1.7090 -0.3614
18450THY      O57312   5.552   5.521   3.839  0.1961 -0.1331  0.1847
18450THY     HO57313   5.504   5.586   3.893 -2.0673 -1.5176 -0.2132
18450THY    CA157314   5.582   5.421   3.923  0.5809  0.4736 -0.6042
18450THY    CA257315   5.695   5.335   3.898  0.3305  0.4210 -0.8299
18450THY    CP157316   5.772   5.331   3.768  0.6543  0.5149 -0.0436
18450THY    HP157317   5.758   5.417   3.702 -0.4068  0.6374 -0.1095
18450THY    CP257318   5.728   5.209   3.677 -0.1404  0.0978 -0.2500
18450THY    HP257319   5.774   5.212   3.577 -0.7270 -0.1857 -0.5388
18450THY    HP357320   5.620   5.195   3.662  0.0268 -1.9368  0.2981
18450THY    HP457321   5.765   5.118   3.725 -1.5612  0.7163 -0.5285
18450THY    CP357322   5.925   5.318   3.787  0.2342  0.4945  0.1190
18450THY    HP557323   5.956   5.398   3.855 -1.6480  3.0998 -1.2398
18450THY    HP657324   5.965   5.335   3.686 -1.6440  0.0704  2.8324
18450THY    HP757325   5.954   5.217   3.818 -0.2338 -0.3627 -0.2875
18450THY    CA357326   5.723   5.242   4.001 -0.7004  0.0190  0.1994
18450THY    HA357327   5.805   5.172   3.985 -0.7650 -0.5155  0.2471
18450THY    CA457328   5.657   5.237   4.126 -0.8629  0.4886 -0.1368
18450THY    HA457329   5.696   5.173   4.204 -0.9923 -0.3414 -1.2577
18450THY    CA557330   5.564   5.339   4.152 -0.1679  0.6838  0.1217
18450THY    CM157331   5.497   5.331   4.292 -0.1589  0.6719  0.0698
18450THY    HM157332   5.433   5.417   4.314  0.4596 -0.1340  0.7568
18450THY    HM257333   5.583   5.318   4.358  1.3001 -0.9455  1.0647
18450THY    HM357334   5.430   5.244   4.297  1.3499  4.4057 -1.0659
18450THY    CA657335   5.529   5.428   4.051 -0.3111 -0.0082  0.0528
18450THY    HA657336   5.452   5.504   4.062 -0.5188 -2.7814  0.3410
18451THY      O57337   8.323   1.765   7.095 -0.5174  0.0382 -0.2205
18451THY     HO57338   8.364   1.681   7.123  0.1438 -1.4179 -0.4218
18451THY    CA157339   8.266   1.746   6.974 -0.2959 -0.0424 -0.3624
18451THY    CA257340   8.194   1.847   6.908  0.5479  0.5432  0.4160
18451THY    CP157341   8.176   1.985   6.966  0.1069 -0.0204  0.5639
18451THY    HP157342   8.176   1.973   7.075 -2.6701  0.0091  0.1466
18451THY    CP257343   8.034   2.046   6.943 -0.2598 -0.0338 -0.1796
18451THY    HP257344   7.957   1.970   6.957 -0.6017 -0.3543  0.1065
18451THY    HP357345   8.022   2.098   6.847  0.4114 -0.5008 -0.8671
18451THY    HP457346   8.020   2.112   7.029 -1.3350  0.7323 -1.3666
18451THY    CP357347   8.293   2.079   6.937 -0.4991 -0.4097  1.1183
18451THY    HP557348   8.271   2.169   6.878  0.4149 -1.2487  0.8040
18451THY    HP657349   8.368   2.027   6.878 -0.6356 -0.9054  1.4764
18451THY    HP757350   8.349   2.106   7.028 -2.0777  0.7627  0.6031
18451THY    CA357351   8.134   1.820   6.780  0.1733 -0.1064  0.7111
18451THY    HA357352   8.069   1.888   6.726 -1.2715 -0.2002 -0.6888
18451THY    CA457353   8.138   1.689   6.736  0.1716  0.4165  0.2817
18451THY    HA457354   8.082   1.659   6.648  0.5522  0.2133  0.1535
18451THY    CA557355   8.209   1.588   6.805  0.2926 -0.8965  0.3457
18451THY    CM157356   8.209   1.441   6.761  0.1415 -0.1801  0.0204
18451THY    HM157357   8.238   1.438   6.656  2.6583  0.4694 -0.2684
18451THY    HM257358   8.105   1.408   6.776  0.1673  3.5821  1.1467
18451THY    HM357359   8.270   1.370   6.818  0.0774  2.3643  1.8838
18451THY    CA657360   8.275   1.618   6.923  0.2266 -0.5098 -0.0478
18451THY    HA657361   8.323   1.532   6.969  2.3005  1.9527  2.2760
18452THY      O57362   3.473   1.997   3.819 -0.0349  0.0883  0.1711
18452THY     HO57363   3.493   2.089   3.843 -2.5844  1.1303  0.5480
18452THY    CA157364   3.338   1.996   3.802 -0.2213 -0.1121 -0.5160
18452THY    CA257365   3.254   1.909   3.866  0.4075 -0.3204  0.4362
18452THY    CP157366   3.310   1.814   3.973 -0.2818  0.1836 -0.6798
18452THY    HP157367   3.417   1.804   3.953  0.0730 -0.4883  3.0357
18452THY    CP257368   3.234   1.683   3.990  0.2808 -0.4088 -0.0402
18452THY    HP257369   3.247   1.623   3.900 -1.5630 -1.1466  0.5780
18452THY    HP357370   3.125   1.693   3.999  0.3116  2.2397 -1.3695
18452THY    HP457371   3.270   1.623   4.074 -0.9465 -1.3471 -2.1842
18452THY    CP357372   3.294   1.892   4.101 -0.3169  0.1965 -0.3938
18452THY    HP557373   3.316   1.834   4.191 -0.5844  0.9614  0.6513
18452THY    HP657374   3.189   1.918   4.122  0.0281  0.0094  1.2806
18452THY    HP757375   3.354   1.983   4.108 -1.7440 -3.6119  1.0292
18452THY    CA357376   3.116   1.914   3.850 -0.0975 -0.3334 -0.9006
18452THY    HA357377   3.043   1.870   3.917 -0.4034  0.7877  1.2007
18452THY    CA457378   3.063   2.013   3.760 -0.0889  0.9088  0.5757
18452THY    HA457379   2.956   2.025   3.743 -0.1871 -0.0807 -1.3785
18452THY    CA557380   3.153   2.099   3.689 -0.0221 -0.4435  0.2061
18452THY    CM157381   3.107   2.205   3.603 -0.5547  0.8487  0.3836
18452THY    HM157382   3.121   2.300   3.656 -1.0671  1.1985  0.2684
18452THY    HM257383   3.002   2.196   3.574  0.0702 -0.9710 -2.2043
18452THY    HM357384   3.177   2.226   3.521 -0.8388  1.2861  3.4590
18452THY    CA657385   3.284   2.088   3.712 -0.5684  0.5548  0.4006
18452THY    HA657386   3.350   2.168   3.680  1.3174  2.0799 -0.4496
18453THY      O57387   2.075   7.147   7.101 -0.1911  0.0286  0.1323
18453THY     HO57388   2.079   7.155   7.005  0.8943  0.1861  2.4939
18453THY    CA157389   2.033   7.265   7.154  0.2883  0.0985 -0.3694
18453THY    CA257390   1.982   7.272   7.289  0.5446 -0.5474 -1.0925
18453THY    CP157391   1.980   7.155   7.386  0.7203  0.6735 -0.0019
18453THY    HP157392   2.028   7.069   7.339  0.0865 -1.2479  0.6346
18453THY    CP257393   1.834   7.119   7.412  0.1496  0.0369 -0.3595
18453THY    HP257394   1.780   7.092   7.320 -0.1102  0.6393 -1.9724
18453THY    HP357395   1.779   7.209   7.444 -2.3531 -0.5719 -1.5787
18453THY    HP457396   1.831   7.036   7.482  0.6055  0.8245  0.2732
18453THY    CP357397   2.035   7.188   7.529 -0.0183  0.5981 -0.0681
18453THY    HP557398   2.034   7.098   7.591 -0.5631 -0.3103 -0.6938
18453THY    HP657399   1.983   7.269   7.582  0.8473  0.9040  0.3053
18453THY    HP757400   2.136   7.233   7.530 -0.3621  1.1975  0.7289
18453THY    CA357401   1.930   7.398   7.329 -0.0487  0.2735 -0.4660
18453THY    HA357402   1.887   7.414   7.427 -0.0441  0.2977 -0.5993
18453THY    CA457403   1.942   7.512   7.234  0.0050  0.0658  0.1133
18453THY    HA457404   1.904   7.609   7.266 -0.6059  0.9014 -0.3917
18453THY    CA557405   2.001   7.501   7.111  0.3694  0.1253  0.0326
18453THY    CM157406   2.002   7.621   7.023 -0.2626  0.3401 -0.1932
18453THY    HM157407   1.901   7.662   7.010  0.0281  1.5330  0.9421
18453THY    HM257408   2.057   7.606   6.929  0.3476  0.9445 -2.0194
18453THY    HM357409   2.050   7.708   7.069  1.5651 -1.8295  0.0271
18453THY    CA657410   2.036   7.375   7.066  0.5979  0.6598  0.3275
18453THY    HA657411   2.066   7.364   6.962  0.3215  0.6213 -0.0897
18454THY      O57412   4.855   8.165   7.516  0.0308 -0.6555 -0.2026
18454THY     HO57413   4.799   8.239   7.487  1.7030  1.9695  2.3042
18454THY    CA157414   4.786   8.050   7.484  0.2434  0.4423 -0.3209
18454THY    CA257415   4.861   7.928   7.479 -0.5257 -0.7480 -0.1795
18454THY    CP157416   5.001   7.919   7.540 -0.1594 -0.0240  0.5595
18454THY    HP157417   5.022   8.022   7.570 -1.5245  0.5546  0.6800
18454THY    CP257418   5.093   7.894   7.419  0.2550 -0.2355  0.7138
18454THY    HP257419   5.078   7.980   7.353  2.5995 -0.3882  1.0481
18454THY    HP357420   5.053   7.806   7.367 -1.0217  0.9455  0.5582
18454THY    HP457421   5.196   7.883   7.454  0.1783 -0.3419 -0.5273
18454THY    CP357422   5.024   7.825   7.654 -0.2049 -0.7408  0.1489
18454THY    HP557423   4.950   7.834   7.734  0.3219 -0.2628  0.2688
18454THY    HP657424   5.120   7.863   7.690  0.1497  0.4674 -1.7522
18454THY    HP757425   5.035   7.718   7.629  0.7611  1.8993 -0.4472
18454THY    CA357426   4.789   7.816   7.435 -1.0231 -0.2310  0.0704
18454THY    HA357427   4.845   7.723   7.427 -0.6580 -0.7567  0.3270
18454THY    CA457428   4.658   7.829   7.388 -0.0260 -0.4416 -0.1407
18454THY    HA457429   4.614   7.737   7.351  1.6239  1.4267 -1.7845
18454THY    CA557430   4.595   7.950   7.386  0.7793 -0.2060  0.2721
18454THY    CM157431   4.451   7.966   7.332 -0.6717  0.3759  0.4983
18454THY    HM157432   4.390   8.038   7.388  0.4916  0.3256  1.5585
18454THY    HM257433   4.403   7.868   7.329 -1.6869 -2.0739  0.9899
18454THY    HM357434   4.444   7.997   7.227 -2.6275  0.8230  1.7117
18454THY    CA657435   4.661   8.065   7.425  0.0749  0.2529  0.4065
18454THY    HA657436   4.609   8.160   7.431  1.1303 -1.7936  1.1758
18455THY      O57437   9.155   3.568   5.573  0.4998 -0.0301 -0.2167
18455THY     HO57438   9.173   3.636   5.640 -1.1735  0.4950 -0.2385
18455THY    CA157439   9.197   3.626   5.456  0.0106  1.1819 -0.8077
18455THY    CA257440   9.125   3.622   5.338  0.1456 -0.1563  0.2608
18455THY    CP157441   8.989   3.545   5.336  0.5881 -0.3812  0.6178
18455THY    HP157442   8.939   3.559   5.432  0.1212 -0.3972 -0.7871
18455THY    CP257443   9.010   3.392   5.329 -0.2031 -0.1241 -0.1560
18455THY    HP257444   9.086   3.356   5.258  2.1534  2.4505 -0.6286
18455THY    HP357445   8.915   3.345   5.302  0.2467  1.3137 -2.0021
18455THY    HP457446   9.032   3.365   5.433  2.2343  0.3539  3.1443
18455THY    CP357447   8.904   3.590   5.215 -0.1677 -1.1169  0.6456
18455THY    HP557448   8.950   3.559   5.120  1.0733  0.0482 -1.2478
18455THY    HP657449   8.903   3.699   5.219 -1.4344 -0.4912  0.6348
18455THY    HP757450   8.800   3.557   5.229 -0.5065  0.7749  2.3442
18455THY    CA357451   9.179   3.685   5.232  0.1080 -0.4529 -0.3295
18455THY    HA357452   9.141   3.669   5.132  1.4618 -1.5100  2.4144
18455THY    CA457453   9.301   3.762   5.240  0.2416  0.4194  0.2020
18455THY    HA457454   9.339   3.818   5.155 -2.5823  0.8563  3.0447
18455THY    CA557455   9.365   3.773   5.360 -0.1201  0.3891  0.6170
18455THY    CM157456   9.486   3.864   5.382  0.6841 -0.5841 -0.2070
18455THY    HM157457   9.464   3.952   5.444 -0.6133 -0.0202 -0.8984
18455THY    HM257458   9.514   3.887   5.279 -1.4176 -1.7723 -2.5401
18455THY    HM357459   9.558   3.801   5.436 -1.0867  1.4895 -0.5948
18455THY    CA657460   9.315   3.693   5.466 -0.5781  0.1836  0.6608
18455THY    HA657461   9.376   3.687   5.555 -0.9512  0.4503  0.7771
18456THY      O57462   1.801   4.806   4.361  0.4218  0.4346  0.0564
18456THY     HO57463   1.881   4.790   4.308 -1.6496 -2.4084 -1.8197
18456THY    CA157464   1.722   4.724   4.298  0.2052 -0.0748  0.2679
18456THY    CA257465   1.588   4.702   4.340 -0.1979 -0.6984  0.4518
18456THY    CP157466   1.532   4.777   4.463  0.2922  0.5864 -0.1592
18456THY    HP157467   1.621   4.809   4.519  0.4068 -0.3312  1.2211
18456THY    CP257468   1.439   4.700   4.552  0.3969  0.0019 -0.0002
18456THY    HP257469   1.352   4.664   4.495 -0.4494  0.3799  1.3959
18456THY    HP357470   1.406   4.766   4.633  1.0703  0.3103 -0.0329
18456THY    HP457471   1.495   4.618   4.598 -0.1628  2.1990  0.7867
18456THY    CP357472   1.462   4.907   4.417 -0.3306  0.1046 -0.3364
18456THY    HP557473   1.367   4.890   4.365 -0.1935 -0.4951  0.6129
18456THY    HP657474   1.536   4.964   4.358  0.3506 -1.0750 -2.3402
18456THY    HP757475   1.432   4.976   4.497  0.7113  0.6076 -0.4517
18456THY    CA357476   1.503   4.609   4.270  0.1673  0.0127  0.1883
18456THY    HA357477   1.399   4.598   4.298  0.2662  0.2523 -0.1319
18456THY    CA457478   1.562   4.543   4.159 -0.0507 -0.3968 -0.2825
18456THY    HA457479   1.502   4.472   4.104 -1.1673 -0.7147  0.8638
18456THY    CA557480   1.696   4.554   4.127 -0.2924 -0.0827  0.4223
18456THY    CM157481   1.751   4.471   4.013  0.1032  0.3184 -0.2255
18456THY    HM157482   1.826   4.522   3.951 -2.1421 -2.4751 -0.0592
18456THY    HM257483   1.680   4.449   3.932  0.2817 -0.4989  1.9625
18456THY    HM357484   1.786   4.372   4.044  0.2009  1.0905  0.0465
18456THY    CA657485   1.777   4.648   4.191 -0.2182 -0.2717  0.3800
18456THY    HA657486   1.878   4.668   4.156 -0.8621 -1.2866  2.0793
18457THY      O57487   6.851   5.861   3.687 -0.9309 -0.7595  0.3874
18457THY     HO57488   6.855   5.871   3.591  0.3037 -0.7585  0.1201
18457THY    CA157489   6.943   5.765   3.720 -0.1128  0.2753  0.3034
18457THY    CA257490   6.995   5.750   3.850 -0.0382  0.2624  1.1768
18457THY    CP157491   6.935   5.822   3.966  0.5662  0.2457  0.1020
18457THY    HP157492   6.834   5.855   3.939 -0.3322  2.7570 -0.3569
18457THY    CP257493   7.024   5.940   3.999 -0.9355 -0.0369  0.9928
18457THY    HP257494   6.991   5.992   4.089 -0.6026  0.1507  0.8815
18457THY    HP357495   7.045   6.000   3.909  0.8930 -0.3119  0.0381
18457THY    HP457496   7.119   5.899   4.035 -2.1735  1.8265 -0.3672
18457THY    CP357497   6.921   5.751   4.099 -0.1216  0.7569  0.4531
18457THY    HP557498   6.862   5.806   4.172  0.4004  0.8352  0.9222
18457THY    HP657499   7.016   5.714   4.140  0.5431 -1.6637 -0.8130
18457THY    HP757500   6.868   5.658   4.076  0.7253  1.9721 -0.3636
18457THY    CA357501   7.102   5.651   3.869 -0.6043 -0.2504  0.5614
18457THY    HA357502   7.153   5.642   3.964  3.4351 -2.2760 -0.1834
18457THY    CA457503   7.155   5.585   3.756 -0.2521 -0.2292 -0.1831
18457THY    HA457504   7.244   5.524   3.766  0.5878 -2.2754  0.6176
18457THY    CA557505   7.107   5.611   3.629  0.7982  0.2013  0.5555
18457THY    CM157506   7.171   5.541   3.518  0.2567  0.5776  0.3901
18457THY    HM157507   7.192   5.610   3.435  0.0310  2.5122  2.9075
18457THY    HM257508   7.101   5.470   3.472  0.2642 -0.6546  1.1419
18457THY    HM357509   7.255   5.482   3.555  0.4896 -1.2978 -0.5280
18457THY    CA657510   7.005   5.705   3.604  0.4361  0.7542 -0.6091
18457THY    HA657511   6.976   5.717   3.500 -1.5609  1.3932  0.7569
18458THY      O57512   0.899   5.830   2.344 -0.3348 -0.3339  0.1338
18458THY     HO57513   0.862   5.772   2.275  0.8662  0.3261 -1.5205
18458THY    CA157514   1.004   5.765   2.411  0.4328 -0.1035  0.2636
18458THY    CA257515   1.086   5.820   2.512  0.5768  0.1385  0.2266
18458THY    CP157516   1.067   5.962   2.560 -0.4934  0.3918  0.2624
18458THY    HP157517   0.960   5.986   2.562 -0.6847  1.9968 -0.5701
18458THY    CP257518   1.144   6.053   2.468  0.1178  0.8206  0.1086
18458THY    HP257519   1.160   6.149   2.517  2.2827  0.1009  0.1679
18458THY    HP357520   1.090   6.064   2.373  2.1243 -0.5044 -0.7921
18458THY    HP457521   1.246   6.019   2.445  0.3608 -0.3745  1.5388
18458THY    CP357522   1.119   5.989   2.704  0.0454  0.8873 -0.2471
18458THY    HP557523   1.062   5.919   2.766  1.3041  2.8178  0.3768
18458THY    HP657524   1.091   6.094   2.718  1.0289  1.2133 -0.0176
18458THY    HP757525   1.228   5.986   2.710  0.1678 -0.9614 -0.4890
18458THY    CA357526   1.190   5.734   2.560  0.7850  0.4749 -0.3937
18458THY    HA357527   1.250   5.769   2.644  1.5085  0.3772 -1.3475
18458THY    CA457528   1.222   5.613   2.508  0.0185 -0.2889  0.2949
18458THY    HA457529   1.295   5.548   2.556 -1.4401  1.3484 -0.2203
18458THY    CA557530   1.143   5.563   2.415  0.3451  0.1864  0.4680
18458THY    CM157531   1.177   5.427   2.350 -0.0502 -0.0914  0.1892
18458THY    HM157532   1.272   5.398   2.396  0.1298  0.7011  1.9525
18458THY    HM257533   1.194   5.443   2.243 -2.1236 -0.1242  2.9676
18458THY    HM357534   1.092   5.358   2.358  2.1451 -2.8750 -3.2232
18458THY    CA657535   1.039   5.639   2.358  0.4969  0.0172  0.5874
18458THY    HA657536   0.979   5.586   2.285  3.9376 -1.1785 -2.0108
18459THY      O57537   6.389   5.874   5.720  0.4137  0.0681  0.0767
18459THY     HO57538   6.349   5.962   5.708 -0.9677 -1.5523 -0.7111
18459THY    CA157539   6.391   5.834   5.855  0.5726  0.2181 -0.2533
18459THY    CA257540   6.418   5.707   5.892 -0.3629  1.0754 -0.0677
18459THY    CP157541   6.443   5.596   5.794 -0.0143  0.0709  0.2922
18459THY    HP157542   6.435   5.627   5.689 -0.9807  0.6087  1.9954
18459THY    CP257543   6.340   5.477   5.815  0.4296  0.2463 -0.1324
18459THY    HP257544   6.364   5.401   5.739  0.2741  0.1461 -0.0803
18459THY    HP357545   6.244   5.527   5.802 -0.1871  2.6011 -0.6086
18459THY    HP457546   6.339   5.429   5.913  3.8550  0.6924  0.4825
18459THY    CP357547   6.580   5.538   5.815 -0.3055 -0.2428  0.4731
18459THY    HP557548   6.598   5.458   5.742 -1.6688 -0.2819  0.1675
18459THY    HP657549   6.593   5.503   5.918 -0.0102 -1.2136 -2.5768
18459THY    HP757550   6.663   5.607   5.800  0.1802 -1.2974 -0.3205
18459THY    CA357551   6.428   5.679   6.026  0.1258 -0.0043  0.6955
18459THY    HA357552   6.451   5.581   6.067 -1.6770  4.6370  1.9319
18459THY    CA457553   6.422   5.782   6.115  0.0552  0.5656  0.1991
18459THY    HA457554   6.435   5.762   6.220  1.3211  0.6484  1.3305
18459THY    CA557555   6.392   5.911   6.082  0.2406 -0.1125 -0.2976
18459THY    CM157556   6.383   6.011   6.186  0.5792  0.5400  0.0196
18459THY    HM157557   6.476   6.005   6.244 -0.1682  2.0164  1.5408
18459THY    HM257558   6.300   5.982   6.252 -0.8356 -1.7192 -1.3683
18459THY    HM357559   6.373   6.110   6.140  0.2245 -1.4970 -0.9338
18459THY    CA657560   6.378   5.936   5.949 -0.4684 -0.1533 -0.3014
18459THY    HA657561   6.363   6.038   5.917  1.1236  1.6894  0.5799
18460THY      O57562   7.041   8.397   2.870  0.2164 -0.0390 -0.5925
18460THY     HO57563   7.132   8.431   2.878 -0.6236 -0.0273  1.8344
18460THY    CA157564   7.054   8.261   2.880 -0.2542 -0.0176 -0.0366
18460THY    CA257565   6.947   8.176   2.862  0.7680  0.3403  0.2697
18460THY    CP157566   6.802   8.233   2.827 -0.3279 -0.0190  0.3283
18460THY    HP157567   6.818   8.336   2.795  1.7461 -1.9465 -0.5086
18460THY    CP257568   6.722   8.233   2.957 -0.1069 -0.7414  0.8966
18460THY    HP257569   6.615   8.253   2.947 -0.1822  0.1067  0.9896
18460THY    HP357570   6.762   8.303   3.031  1.9273  0.6476 -1.5192
18460THY    HP457571   6.723   8.128   2.992 -0.3860  1.6303  1.6123
18460THY    CP357572   6.734   8.152   2.722 -0.8120 -0.8395 -0.3802
18460THY    HP557573   6.670   8.229   2.677 -0.0538  0.4385  1.0362
18460THY    HP657574   6.689   8.057   2.755  1.9540 -1.5268 -2.0556
18460THY    HP757575   6.814   8.128   2.650 -0.5410 -0.8595  0.5380
18460THY    CA357576   6.973   8.034   2.873 -0.3956  0.1282 -0.4073
18460THY    HA357577   6.894   7.964   2.851 -1.2892 -0.0365  0.6337
18460THY    CA457578   7.104   7.993   2.911  0.5858  0.7031  0.0647
18460THY    HA457579   7.121   7.886   2.917 -0.5418  2.5625 -0.0417
18460THY    CA557580   7.203   8.079   2.938  0.0804 -0.6627 -0.2744
18460THY    CM157581   7.337   8.036   2.985  0.0385  0.3774 -0.7670
18460THY    HM157582   7.351   7.928   2.967  1.3492 -0.6573 -0.4432
18460THY    HM257583   7.358   8.063   3.089 -2.2099  0.6050  0.3094
18460THY    HM357584   7.419   8.071   2.922 -0.0364 -0.2138 -1.6076
18460THY    CA657585   7.177   8.216   2.921 -0.3458  0.3027  0.3627
18460THY    HA657586   7.259   8.282   2.948  1.5248 -0.9615 -1.3511
18461THY      O57587   1.030   8.657   3.033  0.1341 -0.5887  0.9234
18461THY     HO57588   1.013   8.739   3.083 -1.0713  1.7923 -0.6983
18461THY    CA157589   1.147   8.678   2.968  0.2085  0.3954  0.2015
18461THY    CA257590   1.206   8.588   2.870 -0.1610 -1.1126  0.1399
18461THY    CP157591   1.126   8.468   2.840 -0.1511 -0.0558 -0.1588
18461THY    HP157592   1.025   8.489   2.877 -0.1496  1.6383 -2.6683
18461THY    CP257593   1.186   8.340   2.907 -0.2005 -0.0282  0.5194
18461THY    HP257594   1.286   8.324   2.865 -0.4090 -0.8053  1.1780
18461THY    HP357595   1.128   8.256   2.867 -1.5557 -0.9310  1.8367
18461THY    HP457596   1.187   8.346   3.016  1.9983 -0.0238  0.8206
18461THY    CP357597   1.119   8.455   2.682 -0.2773 -0.1456 -1.0790
18461THY    HP557598   1.041   8.386   2.650 -1.2493 -0.6246  0.2040
18461THY    HP657599   1.207   8.409   2.635 -0.9310 -1.7050 -0.8156
18461THY    HP757600   1.120   8.556   2.639  1.5905 -0.0193 -0.9996
18461THY    CA357601   1.326   8.624   2.800 -0.4611  0.5792 -0.1191
18461THY    HA357602   1.365   8.566   2.717 -0.5195  0.6469 -0.2567
18461THY    CA457603   1.400   8.735   2.844  0.4510  0.2875 -0.2588
18461THY    HA457604   1.495   8.761   2.798  0.4111  1.3103  1.9030
18461THY    CA557605   1.347   8.815   2.947 -0.3628  0.5499  0.4342
18461THY    CM157606   1.419   8.939   2.989 -0.6792 -0.2568 -0.1395
18461THY    HM157607   1.524   8.907   2.986 -0.7406 -1.3367 -0.2581
18461THY    HM257608   1.385   8.964   3.090 -0.6544 -0.4762  0.7946
18461THY    HM357609   1.401   9.023   2.921 -1.8690 -1.1567 -1.0860
18461THY    CA657610   1.221   8.791   3.003  0.8172  0.0692 -0.3838
18461THY    HA657611   1.179   8.866   3.070  0.8721 -1.3794  0.9852
18462THY      O57612   0.670   8.759   3.237 -0.2301  0.3377 -0.2981
18462THY     HO57613   0.645   8.687   3.176 -0.7007  1.6355 -1.2593
18462THY    CA157614   0.564   8.771   3.321 -0.0514  0.7303  0.7381
18462THY    CA257615   0.521   8.894   3.376 -1.5181 -0.0719  0.8509
18462THY    CP157616   0.577   9.026   3.323  0.3338 -0.5144 -0.7583
18462THY    HP157617   0.661   9.014   3.253  1.0877  0.0905  0.6694
18462THY    CP257618   0.632   9.116   3.440 -0.2968  0.9897 -0.3107
18462THY    HP257619   0.713   9.051   3.477  1.9080 -1.5151  0.8274
18462THY    HP357620   0.549   9.141   3.507 -1.4496  1.0773 -3.8169
18462THY    HP457621   0.674   9.213   3.413  0.2119  1.4886 -0.3828
18462THY    CP357622   0.474   9.109   3.241  0.6501 -0.3455 -0.9695
18462THY    HP557623   0.382   9.131   3.297  1.4970  0.8991 -0.5368
18462THY    HP657624   0.435   9.049   3.157 -0.8618 -1.9984  2.0803
18462THY    HP757625   0.513   9.201   3.195  1.8801  0.9522 -0.8131
18462THY    CA357626   0.420   8.896   3.465  0.8597 -0.2678  0.4771
18462THY    HA357627   0.370   8.983   3.507 -1.6445 -0.3143 -0.8251
18462THY    CA457628   0.354   8.776   3.501  0.4272 -0.4072  0.0259
18462THY    HA457629   0.268   8.774   3.568 -0.1768 -1.0984  1.5259
18462THY    CA557630   0.392   8.656   3.448 -0.2691 -0.3994  0.5750
18462THY    CM157631   0.325   8.531   3.488 -0.1297 -0.4291 -0.4453
18462THY    HM157632   0.340   8.492   3.589 -0.4779 -0.3395 -0.3557
18462THY    HM257633   0.350   8.443   3.427  2.0428  1.5452 -1.3064
18462THY    HM357634   0.220   8.540   3.458  0.5474 -3.3539 -1.0317
18462THY    CA657635   0.493   8.655   3.355 -0.1745 -0.2099 -0.1060
18462THY    HA657636   0.522   8.555   3.321 -0.7764  2.1071 -1.1299
18463THY      O57637   8.850   1.509   2.325  0.0840 -0.2797  0.7563
18463THY     HO57638   8.830   1.418   2.298  3.0116  0.4185 -0.1847
18463THY    CA157639   8.949   1.548   2.241 -0.3645 -0.5831 -0.3301
18463THY    CA257640   8.948   1.677   2.180  0.3667 -0.2248  0.3831
18463THY    CP157641   8.823   1.770   2.212 -0.2305 -0.3685  0.5249
18463THY    HP157642   8.794   1.764   2.318  0.5295  0.1510  3.8925
18463THY    CP257643   8.705   1.731   2.122 -0.5145 -1.1140 -0.6015
18463THY    HP257644   8.718   1.756   2.016  0.2115 -0.7352  0.7635
18463THY    HP357645   8.622   1.801   2.139 -0.1442 -1.2610 -0.1176
18463THY    HP457646   8.664   1.631   2.142 -2.2636  1.2916  0.4826
18463THY    CP357647   8.853   1.922   2.199 -0.5663 -0.5472 -1.2847
18463THY    HP557648   8.884   1.943   2.096 -1.5449 -0.4271  1.0291
18463THY    HP657649   8.929   1.959   2.268  0.3127 -1.6995 -0.8581
18463THY    HP757650   8.756   1.974   2.201 -0.5304  0.4727 -1.2521
18463THY    CA357651   9.045   1.715   2.087  0.2214 -0.1935  0.7320
18463THY    HA357652   9.030   1.802   2.024  0.9769 -1.3387  0.0673
18463THY    CA457653   9.156   1.626   2.066 -0.2694 -0.0102 -0.4179
18463THY    HA457654   9.236   1.661   2.001 -1.1962  0.1562  2.1807
18463THY    CA557655   9.161   1.501   2.128  0.0147  0.8979 -0.1037
18463THY    CM157656   9.268   1.402   2.091 -0.1556  0.5628 -0.0907
18463THY    HM157657   9.247   1.368   1.989  0.1504 -0.4072  2.4531
18463THY    HM257658   9.296   1.329   2.168 -2.3675  0.6526 -0.9142
18463THY    HM357659   9.357   1.466   2.081 -0.2138  2.3471  0.3225
18463THY    CA657660   9.057   1.464   2.209  0.6941  0.3558  0.9301
18463THY    HA657661   9.063   1.370   2.264 -0.7826  1.2071  1.2881
18464THY      O57662   4.742   7.423   6.644 -0.2116 -0.2895 -0.4441
18464THY     HO57663   4.667   7.483   6.656  0.4207  0.6028  0.1960
18464THY    CA157664   4.857   7.495   6.635 -0.4099  0.1813 -0.8017
18464THY    CA257665   4.928   7.555   6.740  0.7632 -0.0503  0.1576
18464THY    CP157666   4.859   7.548   6.866 -0.1632 -1.2579 -0.7560
18464THY    HP157667   4.751   7.567   6.863  0.1214  1.4179  2.0271
18464THY    CP257668   4.912   7.651   6.974 -0.2986  0.2447  0.3773
18464THY    HP257669   4.849   7.661   7.063  0.0888  0.3835  1.9644
18464THY    HP357670   4.915   7.754   6.937  0.6320  1.6125  0.8728
18464THY    HP457671   5.017   7.627   6.996 -0.4534  1.3424  0.6200
18464THY    CP357672   4.876   7.413   6.932  0.1160 -0.8111  0.5610
18464THY    HP557673   4.812   7.349   6.870 -0.3513 -1.2857  1.4684
18464THY    HP657674   4.820   7.406   7.026 -0.9702 -1.4736 -0.0885
18464THY    HP757675   4.977   7.388   6.965 -0.6986 -0.4322 -2.6848
18464THY    CA357676   5.055   7.606   6.721 -0.2130  0.1476 -0.0741
18464THY    HA357677   5.114   7.648   6.801 -1.7379  1.0144  0.4939
18464THY    CA457678   5.106   7.617   6.590  0.3111  0.8196 -0.0347
18464THY    HA457679   5.206   7.657   6.576  0.9774  2.2516 -1.1538
18464THY    CA557680   5.036   7.564   6.479 -0.3860 -0.2147  0.1071
18464THY    CM157681   5.080   7.563   6.341  0.5112 -0.0709  0.1188
18464THY    HM157682   5.186   7.545   6.316  1.1491 -1.0146  4.1430
18464THY    HM257683   5.079   7.668   6.310  3.3317  0.9722  0.5427
18464THY    HM357684   5.016   7.514   6.267  1.2630 -1.9219  1.7849
18464THY    CA657685   4.912   7.504   6.506 -0.0034  0.1756 -0.0194
18464THY    HA657686   4.854   7.455   6.429 -1.1071  0.8298  0.2223
18465THY      O57687   6.484   3.382   6.740 -0.2851  0.1746 -0.3920
18465THY     HO57688   6.547   3.313   6.766  1.4839 -0.6140  0.8369
18465THY    CA157689   6.541   3.429   6.626 -0.0946  0.2207 -0.0960
18465THY    CA257690   6.514   3.564   6.586 -0.7138 -0.4588 -0.0732
18465THY    CP157691   6.406   3.644   6.662 -0.3182  0.2371  0.0969
18465THY    HP157692   6.331   3.572   6.697  0.2089  1.1382 -0.0329
18465THY    CP257693   6.337   3.748   6.569  0.4922 -0.3287  1.2379
18465THY    HP257694   6.407   3.830   6.546  3.4665  1.0335 -0.7545
18465THY    HP357695   6.252   3.785   6.628  0.8660 -0.3717  2.1918
18465THY    HP457696   6.288   3.700   6.484 -2.3790  1.5455  0.5538
18465THY    CP357697   6.482   3.722   6.782  0.8990  0.1367 -0.2227
18465THY    HP557698   6.550   3.653   6.834  1.9698 -0.2501  0.5202
18465THY    HP657699   6.407   3.764   6.849  3.3782  2.1804  1.1930
18465THY    HP757700   6.531   3.809   6.737 -1.5168  0.4390  1.4033
18465THY    CA357701   6.574   3.613   6.473  0.7927 -0.2427  0.0666
18465THY    HA357702   6.561   3.714   6.437  2.3651 -0.3129  0.2751
18465THY    CA457703   6.674   3.531   6.409 -0.8589  0.0317  0.0127
18465THY    HA457704   6.735   3.564   6.326 -0.1303 -0.0569 -1.5242
18465THY    CA557705   6.706   3.402   6.448  0.4357  0.4365 -0.5367
18465THY    CM157706   6.807   3.326   6.369  0.1708 -0.3999  0.1434
18465THY    HM157707   6.794   3.347   6.262 -0.4466 -0.4442 -0.4244
18465THY    HM257708   6.775   3.222   6.367 -1.2335 -0.4879  0.5515
18465THY    HM357709   6.911   3.335   6.400  0.8386 -2.2070 -0.9077
18465THY    CA657710   6.637   3.351   6.554  0.6223  0.1562  0.5204
18465THY    HA657711   6.650   3.246   6.579  0.5990 -2.1377 -0.0827
18466THY      O57712   8.358   7.410   6.907 -0.0850  0.4038  0.0925
18466THY     HO57713   8.262   7.426   6.907  0.0792 -1.3960  1.3435
18466THY    CA157714   8.400   7.478   7.012 -0.4361  0.9621 -0.3774
18466THY    CA257715   8.540   7.495   7.042  0.7716 -0.4597  1.1695
18466THY    CP157716   8.645   7.417   6.960  0.2413 -0.4044 -0.5603
18466THY    HP157717   8.598   7.363   6.877 -0.3790  0.8618 -2.0442
18466THY    CP257718   8.714   7.306   7.027 -0.2395  0.5096 -0.3057
18466THY    HP257719   8.768   7.247   6.952  0.3651  0.1443  0.6806
18466THY    HP357720   8.653   7.239   7.090 -1.0784 -0.7421 -0.7562
18466THY    HP457721   8.793   7.346   7.092  2.3630 -2.1332 -0.8098
18466THY    CP357722   8.748   7.514   6.900 -0.5543  0.0999  0.0430
18466THY    HP557723   8.693   7.592   6.845  1.9302  1.8144  3.2654
18466THY    HP657724   8.823   7.471   6.832 -1.7048 -0.7706 -0.6459
18466THY    HP757725   8.795   7.578   6.975 -0.8137  0.1604  0.1627
18466THY    CA357726   8.572   7.572   7.154 -0.4628 -0.1457 -0.1918
18466THY    HA357727   8.676   7.585   7.181 -0.5069  0.2230 -0.5823
18466THY    CA457728   8.476   7.630   7.233  0.5656  0.2614  0.1736
18466THY    HA457729   8.509   7.699   7.310 -0.5586 -0.1333  1.1947
18466THY    CA557730   8.336   7.602   7.210 -0.4034 -0.0901  0.6974
18466THY    CM157731   8.233   7.647   7.314  0.6584 -0.2506 -0.3060
18466THY    HM157732   8.185   7.565   7.369 -1.0336  0.4121  1.0803
18466THY    HM257733   8.159   7.718   7.274  0.2186  2.7403  1.0482
18466THY    HM357734   8.288   7.700   7.393  0.3235  0.5408 -1.1148
18466THY    CA657735   8.303   7.522   7.093  0.8637 -0.3832 -0.2262
18466THY    HA657736   8.201   7.489   7.081  0.4934  1.4315  0.1192
18467THY      O57737   6.928   3.610   1.772  0.3382  0.0542 -0.4467
18467THY     HO57738   6.981   3.619   1.692 -2.7415 -1.9323  3.8415
18467THY    CA157739   7.015   3.585   1.876  0.4762 -0.6816 -0.4306
18467THY    CA257740   6.996   3.630   2.014 -1.1600  0.5750 -0.1205
18467THY    CP157741   6.871   3.701   2.059  0.2090 -0.6018 -0.0789
18467THY    HP157742   6.831   3.758   1.975 -1.5358 -1.3989 -2.3613
18467THY    CP257743   6.894   3.802   2.169 -0.2360 -0.0363  0.1618
18467THY    HP257744   6.802   3.862   2.181  0.1060 -0.1312  0.7142
18467THY    HP357745   6.976   3.861   2.126 -0.2400 -0.5447 -0.1974
18467THY    HP457746   6.931   3.759   2.262  1.2546 -0.0152  1.4062
18467THY    CP357747   6.774   3.600   2.114 -0.1540  0.3951 -0.3686
18467THY    HP557748   6.820   3.547   2.198  0.1615  0.2159 -0.3865
18467THY    HP657749   6.738   3.524   2.044 -0.0946 -0.0747  0.0295
18467THY    HP757750   6.688   3.656   2.153 -0.0792 -0.7879  0.6250
18467THY    CA357751   7.102   3.603   2.104 -0.3733  0.3631  0.1543
18467THY    HA357752   7.099   3.637   2.207  0.6664  0.0641  1.1879
18467THY    CA457753   7.218   3.531   2.062  0.6915  0.6705  0.3043
18467THY    HA457754   7.305   3.509   2.123  0.4503  1.2314  0.8760
18467THY    CA557755   7.226   3.482   1.933 -0.1500  0.0948  0.2043
18467THY    CM157756   7.335   3.393   1.892 -1.0580  1.0538 -0.0096
18467THY    HM157757   7.385   3.429   1.801 -1.4770  0.2792 -1.2994
18467THY    HM257758   7.293   3.296   1.864  1.8389 -2.9719 -0.3813
18467THY    HM357759   7.413   3.377   1.967 -2.1389  2.0723 -0.6195
18467THY    CA657760   7.132   3.518   1.844  0.3705  0.2009 -0.8846
18467THY    HA657761   7.139   3.488   1.740  0.5207  0.0767 -0.4223
18468THY      O57762   3.453   7.874   6.656  0.2437 -0.2823 -0.2790
18468THY     HO57763   3.378   7.933   6.678  1.0540 -1.5627  1.3233
18468THY    CA157764   3.419   7.818   6.538  0.0610 -0.2662  0.1188
18468THY    CA257765   3.520   7.758   6.454  0.2339  0.0124  0.5086
18468THY    CP157766   3.670   7.762   6.488  0.4414  0.0355  0.7048
18468THY    HP157767   3.679   7.760   6.597  3.1914 -0.1159  1.3037
18468THY    CP257768   3.731   7.890   6.437  0.0231  0.3084 -0.4671
18468THY    HP257769   3.830   7.909   6.481  0.7904 -2.1672  2.1394
18468THY    HP357770   3.665   7.976   6.454  0.6326 -1.6683  0.4644
18468THY    HP457771   3.751   7.885   6.329  1.8893  0.4562  1.8047
18468THY    CP357772   3.751   7.636   6.445 -0.0421  0.4719 -0.3062
18468THY    HP557773   3.756   7.620   6.337 -0.1854  0.4029  0.0888
18468THY    HP657774   3.720   7.547   6.500 -1.0289 -0.6328 -0.6688
18468THY    HP757775   3.857   7.652   6.468 -0.0596  0.6114 -0.3973
18468THY    CA357776   3.480   7.710   6.327 -0.3902  0.1397 -0.4794
18468THY    HA357777   3.550   7.684   6.248  0.4419  0.7293 -0.0957
18468THY    CA457778   3.344   7.709   6.293 -0.9898  0.0210  0.0198
18468THY    HA457779   3.310   7.677   6.195 -0.4957 -0.4833  0.9840
18468THY    CA557780   3.246   7.770   6.374 -0.2968 -0.9341 -0.1452
18468THY    CM157781   3.105   7.785   6.318  0.3586  0.6125 -0.1374
18468THY    HM157782   3.088   7.706   6.244  1.7543  0.0284  0.0648
18468THY    HM257783   3.099   7.881   6.264 -0.8210 -1.0099 -1.0784
18468THY    HM357784   3.034   7.782   6.401 -2.2765 -1.5100 -3.1551
18468THY    CA657785   3.289   7.825   6.494  0.2705  0.2122  0.5545
18468THY    HA657786   3.220   7.882   6.556  0.0948 -0.7223  1.3968
18469THY      O57787   0.263   6.925   4.624  0.0626 -0.2031 -0.1626
18469THY     HO57788   0.297   6.875   4.700 -0.9804  1.3691  1.3791
18469THY    CA157789   0.375   6.964   4.562  0.4863 -0.3495 -0.5311
18469THY    CA257790   0.364   7.049   4.450  0.6680 -0.0858  0.6216
18469THY    CP157791   0.230   7.114   4.412  0.4092 -0.0885 -0.1289
18469THY    HP157792   0.167   7.129   4.501 -2.3334 -1.5507 -2.2131
18469THY    CP257793   0.144   7.020   4.324  0.0777  0.4174 -0.3304
18469THY    HP257794   0.044   7.063   4.315  0.4849  2.2130  1.1193
18469THY    HP357795   0.116   6.926   4.374  0.0815  0.9647 -0.0432
18469THY    HP457796   0.186   7.000   4.224 -0.7359 -0.6412  2.6731
18469THY    CP357797   0.245   7.249   4.352 -0.2097  0.0020 -0.2987
18469THY    HP557798   0.141   7.281   4.349 -1.8155  1.7509 -4.5963
18469THY    HP657799   0.286   7.241   4.250  1.6741  0.5104  1.7246
18469THY    HP757800   0.305   7.310   4.421 -0.1791 -0.3159  0.0383
18469THY    CA357801   0.486   7.107   4.397 -0.6180 -0.1989 -0.2965
18469THY    HA357802   0.474   7.179   4.317 -2.1555 -2.3832 -2.7652
18469THY    CA457803   0.612   7.071   4.448 -0.4253  0.2311  0.2128
18469THY    HA457804   0.698   7.121   4.405  2.4953  1.8054 -3.0435
18469THY    CA557805   0.615   6.982   4.555  0.4337  0.0888 -0.2194
18469THY    CM157806   0.746   6.937   4.614 -0.1735  0.6349  0.2801
18469THY    HM157807   0.821   7.017   4.605 -0.7907 -0.1777  0.7823
18469THY    HM257808   0.797   6.868   4.547  2.0969 -1.4731  3.6702
18469THY    HM357809   0.756   6.903   4.718  1.2646 -0.1817 -2.0431
18469THY    CA657810   0.499   6.929   4.614 -0.7914  0.5448  0.5759
18469THY    HA657811   0.499   6.863   4.700 -0.2391 -0.6556 -1.0318
18470THY      O57812   7.397   5.984   5.412 -0.0372  0.0053 -0.0527
18470THY     HO57813   7.388   6.019   5.502 -0.8603  1.1263 -2.8638
18470THY    CA157814   7.458   6.067   5.330  0.1302  0.4786 -0.7608
18470THY    CA257815   7.481   6.034   5.196 -0.4064  0.3237 -0.2024
18470THY    CP157816   7.444   5.896   5.145  0.3381  0.3161 -0.3651
18470THY    HP157817   7.359   5.855   5.201  0.5389 -0.2602 -1.6247
18470THY    CP257818   7.566   5.805   5.152 -0.4303  0.1628  0.3856
18470THY    HP257819   7.650   5.865   5.114 -1.6512 -3.4037  0.0497
18470THY    HP357820   7.560   5.706   5.106 -2.7204 -0.3320  0.7137
18470THY    HP457821   7.591   5.787   5.257  1.7468 -0.5710 -1.3862
18470THY    CP357822   7.387   5.891   4.998 -0.0246 -0.0064 -0.3003
18470THY    HP557823   7.326   5.803   4.972 -1.5516 -0.0168  0.7305
18470THY    HP657824   7.465   5.895   4.921 -0.1364 -0.1425 -0.7038
18470THY    HP757825   7.309   5.968   4.994 -0.9567  0.1158 -1.2081
18470THY    CA357826   7.544   6.127   5.112  0.2709  0.7565 -0.7628
18470THY    HA357827   7.563   6.115   5.006  1.3189  0.7536  0.6645
18470THY    CA457828   7.575   6.257   5.166 -0.3222  0.1378 -0.0151
18470THY    HA457829   7.633   6.338   5.122  0.5166  2.1774  0.5557
18470THY    CA557830   7.558   6.286   5.297  0.1945  0.0074  0.6072
18470THY    CM157831   7.616   6.416   5.353  0.4900 -0.9281  0.0404
18470THY    HM157832   7.607   6.410   5.462 -0.1039 -1.0456 -2.4018
18470THY    HM257833   7.578   6.503   5.299 -0.0311 -1.0551 -0.2596
18470THY    HM357834   7.725   6.409   5.340  0.3249 -1.8916 -1.1694
18470THY    CA657835   7.500   6.192   5.383 -0.0346 -0.1242  0.3154
18470THY    HA657836   7.474   6.226   5.483 -0.5823 -1.0995  2.9578
18471THY      O57837   1.103   0.987   5.535  0.0669 -0.2309 -0.2115
18471THY     HO57838   1.028   0.924   5.535 -0.2483  3.7866 -0.1054
18471THY    CA157839   1.031   1.103   5.520  0.0815 -0.2766 -0.1592
18471THY    CA257840   1.080   1.223   5.572  0.2939 -0.1217 -0.2150
18471THY    CP157841   1.230   1.224   5.618 -0.3517 -0.2047 -0.5715
18471THY    HP157842   1.287   1.139   5.579  1.4147  0.4977  0.2395
18471THY    CP257843   1.244   1.225   5.771  0.5866 -0.1199  0.4262
18471THY    HP257844   1.350   1.215   5.796  0.6931 -0.8368 -0.3213
18471THY    HP357845   1.186   1.143   5.816  0.6852 -0.8070 -0.0271
18471THY    HP457846   1.197   1.318   5.804 -0.3353  0.1631 -0.1155
18471THY    CP357847   1.294   1.349   5.558  0.5417  0.6889  1.1376
18471THY    HP557848   1.403   1.355   5.567  0.5735  1.9257 -0.4904
18471THY    HP657849   1.256   1.434   5.616 -0.8932  1.4994 -0.0175
18471THY    HP757850   1.255   1.361   5.456  1.9577  0.0202  0.3616
18471THY    CA357851   1.001   1.343   5.566 -0.6949  0.2253  0.7194
18471THY    HA357852   1.046   1.440   5.589 -0.6156  1.4402  0.4187
18471THY    CA457853   0.874   1.333   5.505  0.0690  0.3874  0.2649
18471THY    HA457854   0.805   1.416   5.497 -0.4142  1.9891  0.0608
18471THY    CA557855   0.820   1.211   5.457 -0.1546  0.2454 -0.7255
18471THY    CM157856   0.688   1.219   5.385 -0.4826  0.2697  0.5289
18471THY    HM157857   0.618   1.154   5.438  0.5719  1.4027  0.2905
18471THY    HM257858   0.706   1.187   5.281 -1.4680 -0.2844  1.6783
18471THY    HM357859   0.644   1.319   5.373 -0.7695  1.8739  0.6073
18471THY    CA657860   0.903   1.098   5.471  0.4993 -0.1492  0.2930
18471THY    HA657861   0.872   1.000   5.435  2.4135  0.9344 -0.7752
18472THY      O57862   1.754   8.898   3.229 -0.0372  0.1546 -0.1127
18472THY     HO57863   1.734   8.839   3.304 -0.8439 -0.5960 -0.8025
18472THY    CA157864   1.652   8.980   3.241 -0.7520  0.5352 -0.2999
18472THY    CA257865   1.666   9.111   3.195 -0.6718  0.1383 -0.0738
18472THY    CP157866   1.783   9.148   3.101 -0.5409 -0.1002 -0.3203
18472THY    HP157867   1.873   9.098   3.138 -0.1020 -1.6617 -0.7114
18472THY    CP257868   1.812   9.296   3.107 -0.0821 -0.6066  0.2439
18472THY    HP257869   1.792   9.341   3.205  2.4599 -0.0293  0.2560
18472THY    HP357870   1.761   9.347   3.024 -2.8025  0.4117 -0.6716
18472THY    HP457871   1.919   9.312   3.090 -0.2287 -1.6356  0.2272
18472THY    CP357872   1.764   9.097   2.954 -0.2120 -0.7797 -0.2748
18472THY    HP557873   1.680   9.161   2.924 -0.4141  1.7156  0.7759
18472THY    HP657874   1.731   8.993   2.951  0.2910  1.5937 -0.5748
18472THY    HP757875   1.853   9.117   2.894  1.7819  1.6892 -1.1537
18472THY    CA357876   1.554   9.197   3.201  0.0321  1.0330  0.2226
18472THY    HA357877   1.553   9.293   3.151  1.4832 -1.2620 -0.8479
18472THY    CA457878   1.439   9.163   3.276 -0.5753  0.2557 -0.2899
18472THY    HA457879   1.361   9.238   3.284  0.2924  1.5309  0.5073
18472THY    CA557880   1.432   9.038   3.339 -0.3191  0.6198 -0.7373
18472THY    CM157881   1.307   8.998   3.413 -0.1377 -0.3056  0.1605
18472THY    HM157882   1.227   8.962   3.347 -0.4628  1.4128 -2.5980
18472THY    HM257883   1.272   9.084   3.471 -1.2325  0.9542 -1.0801
18472THY    HM357884   1.329   8.926   3.493  0.7579  3.1533  3.8459
18472THY    CA657885   1.540   8.942   3.314 -0.5280 -0.3995 -0.4554
18472THY    HA657886   1.535   8.839   3.347  1.4995  0.0526 -0.4417
18473THY      O57887   1.326   6.773   5.643  0.5303  0.0026 -0.3529
18473THY     HO57888   1.367   6.709   5.704 -1.7522  0.9299 -1.0335
18473THY    CA157889   1.409   6.876   5.617 -0.7448  0.4630 -0.5322
18473THY    CA257890   1.367   6.997   5.558 -0.0241  0.0233 -0.4573
18473THY    CP157891   1.224   7.010   5.518 -0.3515 -0.7102  0.2021
18473THY    HP157892   1.163   6.922   5.537  0.7489 -0.4793 -0.5313
18473THY    CP257893   1.201   7.026   5.362 -0.2415 -0.0837 -0.3466
18473THY    HP257894   1.240   7.123   5.329  0.5947 -0.8545 -0.9283
18473THY    HP357895   1.095   7.023   5.334 -0.4002  0.5880 -1.5984
18473THY    HP457896   1.251   6.948   5.303 -0.7502 -0.7214 -0.2035
18473THY    CP357897   1.162   7.130   5.592  0.6775 -0.3071 -0.1926
18473THY    HP557898   1.052   7.128   5.597  0.6002  1.0154  2.4137
18473THY    HP657899   1.189   7.230   5.557  1.5129  0.5200 -0.1096
18473THY    HP757900   1.183   7.121   5.700 -1.2515  0.1578  0.2368
18473THY    CA357901   1.464   7.098   5.543 -0.4660  0.2907  0.4794
18473THY    HA357902   1.443   7.190   5.490  2.2544  0.0867  1.0697
18473THY    CA457903   1.593   7.080   5.593  0.0257 -0.2244  0.2818
18473THY    HA457904   1.663   7.163   5.589 -2.7834  0.7139  2.8791
18473THY    CA557905   1.628   6.963   5.659  0.4871 -0.2324  0.2856
18473THY    CM157906   1.759   6.950   5.734  0.0127 -0.8879  0.2429
18473THY    HM157907   1.798   7.052   5.740 -1.5263 -0.4280  0.8357
18473THY    HM257908   1.823   6.888   5.671 -0.6008 -1.6370  0.3668
18473THY    HM357909   1.754   6.907   5.835 -0.1550 -1.1414 -0.3458
18473THY    CA657910   1.540   6.865   5.673  0.6641  0.3853  0.1003
18473THY    HA657911   1.561   6.773   5.726  0.2428 -0.5307 -0.5344
18474THY      O57912   4.044   3.953   5.316  0.8698  0.0815  0.2216
18474THY     HO57913   4.119   3.992   5.364  2.6992 -2.6424  0.3302
18474THY    CA157914   3.990   3.861   5.394  0.0385 -0.1295 -0.5838
18474THY    CA257915   3.871   3.785   5.372  0.1490  0.2592  0.1755
18474THY    CP157916   3.771   3.822   5.254  0.0648 -0.0431  0.0730
18474THY    HP157917   3.810   3.906   5.195 -3.5701  1.0526  2.8290
18474THY    CP257918   3.650   3.888   5.320 -0.3808 -0.9969  0.7246
18474THY    HP257919   3.589   3.814   5.372 -0.1496 -0.2902  1.0231
18474THY    HP357920   3.587   3.932   5.242 -0.0502 -1.7732 -0.1492
18474THY    HP457921   3.681   3.972   5.384  1.0284 -1.4454  0.5885
18474THY    CP357922   3.721   3.705   5.166  0.3805  0.6083 -0.2393
18474THY    HP557923   3.670   3.627   5.224  1.9700  0.6306 -1.3118
18474THY    HP657924   3.806   3.666   5.109  1.4047  1.6124  0.4618
18474THY    HP757925   3.648   3.748   5.097  1.4210 -0.0888  0.4623
18474THY    CA357926   3.837   3.682   5.460 -0.6450 -0.4739 -0.1784
18474THY    HA357927   3.739   3.638   5.451 -0.5348 -0.1612 -0.4927
18474THY    CA457928   3.915   3.661   5.568 -0.2204 -0.6389  0.3426
18474THY    HA457929   3.892   3.587   5.645 -1.0900  0.9815  2.1913
18474THY    CA557930   4.030   3.737   5.593  0.2638  0.0969 -0.5770
18474THY    CM157931   4.108   3.719   5.721 -0.1239  0.2038 -0.2179
18474THY    HM157932   4.134   3.614   5.740  0.1889 -0.1667 -0.2102
18474THY    HM257933   4.051   3.760   5.805 -0.3952 -0.4321  0.7388
18474THY    HM357934   4.201   3.776   5.714 -0.9616 -0.9654  1.0732
18474THY    CA657935   4.072   3.832   5.504  0.2484 -0.2272 -0.4600
18474THY    HA657936   4.161   3.890   5.528  0.2027 -1.9455  0.3740
18475THY      O57937   2.452   7.437   3.642  0.6129 -0.0864 -0.3962
18475THY     HO57938   2.390   7.457   3.570  0.1227  0.8117  1.5959
18475THY    CA157939   2.469   7.551   3.716 -0.3458 -0.6391 -0.7031
18475THY    CA257940   2.563   7.556   3.821  0.7944 -0.3469 -0.1044
18475THY    CP157941   2.653   7.435   3.854  0.1704 -0.3046  0.5031
18475THY    HP157942   2.633   7.361   3.777 -1.3141  0.4194  0.1199
18475THY    CP257943   2.639   7.383   3.999 -0.2181  0.2074  0.1976
18475THY    HP257944   2.536   7.359   4.028  0.6994  2.4390 -1.3236
18475THY    HP357945   2.687   7.453   4.068 -1.9497 -0.5525  2.2417
18475THY    HP457946   2.694   7.289   4.012 -1.1759 -0.7721 -0.5270
18475THY    CP357947   2.798   7.467   3.825  0.3576  0.0298  0.4230
18475THY    HP557948   2.862   7.379   3.837 -2.3486  0.3615 -1.6423
18475THY    HP657949   2.835   7.555   3.879 -3.7213 -0.6614  2.7836
18475THY    HP757950   2.804   7.496   3.720  0.1181 -0.3389 -0.7838
18475THY    CA357951   2.561   7.670   3.910  0.0590  0.1909  0.6064
18475THY    HA357952   2.632   7.687   3.990  0.6473  0.0449 -1.0213
18475THY    CA457953   2.471   7.776   3.887  0.2263 -0.0850 -0.0905
18475THY    HA457954   2.474   7.862   3.953  0.6244  1.4631 -1.2434
18475THY    CA557955   2.380   7.777   3.785  0.1505  0.5226  0.3739
18475THY    CM157956   2.268   7.876   3.769 -0.6303  0.0267  0.4680
18475THY    HM157957   2.231   7.894   3.871  1.5180  0.6438  1.7715
18475THY    HM257958   2.179   7.836   3.720 -0.4186  2.0191 -2.8289
18475THY    HM357959   2.308   7.967   3.723  1.9004  1.1879  0.0303
18475THY    CA657960   2.377   7.660   3.700 -0.4504 -0.4528 -0.5111
18475THY    HA657961   2.303   7.646   3.622  0.2002 -0.9476 -1.2625
18476THY      O57962   4.316   2.718   5.216 -0.1578 -0.6562 -0.2655
18476THY     HO57963   4.231   2.702   5.260 -1.0640 -2.4140 -0.4838
18476THY    CA157964   4.337   2.604   5.142 -0.0009  0.1032  0.1706
18476THY    CA257965   4.456   2.537   5.129 -0.7000 -0.6393 -0.2259
18476THY    CP157966   4.589   2.603   5.181 -0.1795  0.1290  0.0573
18476THY    HP157967   4.560   2.704   5.212 -2.7518 -0.1628 -0.5483
18476THY    CP257968   4.695   2.607   5.063 -0.0144 -0.1020  0.6007
18476THY    HP257969   4.723   2.503   5.042 -2.0186  1.6442 -0.3865
18476THY    HP357970   4.778   2.669   5.098  0.7963 -1.1939  0.1418
18476THY    HP457971   4.639   2.652   4.981 -2.0958  1.9337  1.9907
18476THY    CP357972   4.647   2.535   5.310  0.3133  0.0411 -0.8023
18476THY    HP557973   4.670   2.431   5.286 -1.7108 -1.9658 -0.8596
18476THY    HP657974   4.584   2.528   5.399 -1.2062 -0.8767  0.5677
18476THY    HP757975   4.738   2.589   5.340 -1.4771  0.0118  2.4896
18476THY    CA357976   4.455   2.406   5.070 -0.1468  0.1511 -0.6748
18476THY    HA357977   4.544   2.349   5.044 -0.3414  1.8291 -1.8514
18476THY    CA457978   4.338   2.350   5.024 -0.0636 -0.1295  0.5870
18476THY    HA457979   4.331   2.262   4.960 -0.7602 -2.1667  2.0504
18476THY    CA557980   4.220   2.421   5.039  0.1256  0.0285  0.9931
18476THY    CM157981   4.088   2.373   4.986  0.2992 -0.5536  0.5481
18476THY    HM157982   4.096   2.369   4.877  1.0913 -0.4866 -0.0424
18476THY    HM257983   4.002   2.439   5.003  0.0348  0.7067 -0.0934
18476THY    HM357984   4.071   2.272   5.024 -2.1482  0.2012  1.1783
18476THY    CA657985   4.220   2.546   5.100  0.4906  0.1074 -0.5136
18476THY    HA657986   4.123   2.591   5.121  0.6723  0.9112 -0.4786
18477THY      O57987   0.462   3.785   5.145 -0.5185  0.4132 -0.6320
18477THY     HO57988   0.400   3.790   5.070  1.9197 -1.7866 -1.1143
18477THY    CA157989   0.498   3.649   5.153 -0.5376 -0.0622 -0.2787
18477THY    CA257990   0.533   3.583   5.274 -0.4066 -1.0833 -0.0360
18477THY    CP157991   0.560   3.668   5.400  0.1657  0.5317 -0.0448
18477THY    HP157992   0.582   3.769   5.362  3.7015  0.3993 -0.7456
18477THY    CP257993   0.678   3.617   5.478 -0.0496 -0.2977  0.5556
18477THY    HP257994   0.644   3.536   5.544 -1.7335  0.4461  1.8019
18477THY    HP357995   0.737   3.694   5.529 -0.3049  0.6387  0.1495
18477THY    HP457996   0.752   3.582   5.405  1.9993  1.7714  0.3540
18477THY    CP357997   0.441   3.682   5.494 -0.1787 -0.4161  0.0488
18477THY    HP557998   0.375   3.762   5.460 -0.2620  0.3002  0.2897
18477THY    HP657999   0.472   3.740   5.581  2.5071 -1.3042  0.1083
18477THY    HP758000   0.388   3.591   5.524  0.0064  0.2805  0.1639
18477THY    CA358001   0.552   3.443   5.283 -0.6660  0.3081 -0.3542
18477THY    HA358002   0.574   3.391   5.376 -0.4116  0.3114 -0.2423
18477THY    CA458003   0.555   3.366   5.162 -0.1988 -0.0987  0.0418
18477THY    HA458004   0.585   3.261   5.168  0.5194 -1.3882  0.1543
18477THY    CA558005   0.538   3.439   5.038 -0.1849 -0.8444  0.5899
18477THY    CM158006   0.544   3.363   4.913  0.5543  0.6678  0.1106
18477THY    HM158007   0.470   3.282   4.914  2.3006 -1.8365 -1.6676
18477THY    HM258008   0.644   3.320   4.902  0.4508  0.7924 -0.1654
18477THY    HM358009   0.516   3.430   4.830  1.5459 -1.6457 -2.1602
18477THY    CA658010   0.503   3.573   5.038 -0.1300 -0.3458  0.1597
18477THY    HA658011   0.481   3.620   4.942 -0.7618 -0.1359  0.3030
18478THY      O58012   3.169   6.504   3.941 -0.2057  0.6407 -0.1419
18478THY     HO58013   3.164   6.542   3.852 -0.7621 -0.2036 -2.0993
18478THY    CA158014   3.282   6.425   3.931 -0.2195  0.1475 -0.0082
18478THY    CA258015   3.309   6.336   4.034  0.0710  0.1736 -0.7299
18478THY    CP158016   3.221   6.335   4.159  0.4021  0.1623  0.3515
18478THY    HP158017   3.183   6.437   4.171 -1.4232 -0.3375 -0.2320
18478THY    CP258018   3.290   6.294   4.287 -0.0011 -0.2811  0.0527
18478THY    HP258019   3.396   6.319   4.293  0.6451  0.2415 -2.5360
18478THY    HP358020   3.298   6.184   4.284  0.5780 -0.7531  0.0976
18478THY    HP458021   3.231   6.320   4.375 -0.6042 -0.6662  0.0234
18478THY    CP358022   3.095   6.239   4.152  0.5220  0.6185 -0.0124
18478THY    HP558023   3.131   6.137   4.133 -2.4124 -1.6398 -0.7745
18478THY    HP658024   3.021   6.275   4.079 -0.0034  1.4057  0.5499
18478THY    HP758025   3.042   6.239   4.247 -0.7006 -0.0075  1.6730
18478THY    CA358026   3.404   6.241   4.014 -0.3776 -0.2983  0.0495
18478THY    HA358027   3.413   6.167   4.093 -2.1237 -1.5302 -1.5559
18478THY    CA458028   3.475   6.229   3.891  0.2540 -0.5508 -0.0499
18478THY    HA458029   3.543   6.146   3.872  1.1330 -0.1555  0.5530
18478THY    CA558030   3.441   6.314   3.790 -0.5475  0.4892  0.2305
18478THY    CM158031   3.493   6.290   3.648  0.0534 -0.2131 -0.0119
18478THY    HM158032   3.470   6.186   3.621  0.5828  3.4528 -1.2211
18478THY    HM258033   3.600   6.310   3.637 -0.4972 -2.2463  2.2891
18478THY    HM358034   3.450   6.349   3.567 -0.2396  0.4635  0.7188
18478THY    CA658035   3.350   6.424   3.813  0.3498  0.1253  0.6105
18478THY    HA658036   3.326   6.493   3.732  0.1317 -0.3604 -0.0200
18479THY      O58037   1.981   6.297   6.735 -0.1239  0.4128 -0.4386
18479THY     HO58038   1.975   6.290   6.639  1.6652  0.2547 -0.1685
18479THY    CA158039   1.917   6.409   6.773 -0.0432 -0.3404 -0.4124
18479THY    CA258040   1.941   6.470   6.898  0.7309 -0.5535  0.2766
18479THY    CP158041   2.042   6.413   6.997  0.1828  0.6222 -0.4565
18479THY    HP158042   2.066   6.311   6.965 -0.5493 -1.4703 -0.0194
18479THY    CP258043   1.980   6.399   7.137 -0.1098 -0.0558 -0.1401
18479THY    HP258044   1.902   6.324   7.121 -1.3877  1.4190  0.8226
18479THY    HP358045   1.924   6.488   7.166  0.5731  0.1247  0.2376
18479THY    HP458046   2.044   6.361   7.218 -0.4781  0.3119  0.0156
18479THY    CP358047   2.174   6.487   6.993 -0.2157  0.2224 -0.0335
18479THY    HP558048   2.209   6.502   6.890 -1.2023 -0.2139 -0.5821
18479THY    HP658049   2.247   6.417   7.034  0.2857  1.6731  1.3160
18479THY    HP758050   2.171   6.584   7.043  0.4591 -2.0258  1.2230
18479THY    CA358051   1.885   6.596   6.921 -0.9463  0.1371 -0.1492
18479THY    HA358052   1.900   6.654   7.011 -1.7304 -0.7026  1.3987
18479THY    CA458053   1.805   6.656   6.813 -0.1310 -0.9464 -0.4233
18479THY    HA458054   1.769   6.758   6.827  1.9239 -1.2272  0.3982
18479THY    CA558055   1.784   6.591   6.689  0.1352 -0.2001 -0.0943
18479THY    CM158056   1.698   6.646   6.586 -0.5837  0.2850 -0.5107
18479THY    HM158057   1.697   6.754   6.607  0.3522  1.0525 -0.6451
18479THY    HM258058   1.593   6.615   6.588 -2.0602 -1.2891  3.6723
18479THY    HM358059   1.731   6.622   6.484  0.6332  0.7948 -1.0734
18479THY    CA658060   1.839   6.471   6.675  0.3183  0.6395 -0.1963
18479THY    HA658061   1.827   6.402   6.592  0.4484  1.7339 -1.5837
18480THY      O58062   1.118   3.849   7.655  0.3479  0.0948  0.1418
18480THY     HO58063   1.045   3.865   7.592  1.2240 -0.7927  0.7858
18480THY    CA158064   1.094   3.934   7.757 -0.0556 -0.8706 -0.0597
18480THY    CA258065   1.183   3.974   7.854 -0.1242  0.6585  0.0414
18480THY    CP158066   1.328   3.930   7.842 -0.7565  0.1463 -0.1395
18480THY    HP158067   1.343   3.870   7.751  2.5235  0.4821 -0.0462
18480THY    CP258068   1.368   3.845   7.965 -0.1321  0.1723 -0.1602
18480THY    HP258069   1.462   3.789   7.956  0.0286  0.7386  0.0071
18480THY    HP358070   1.288   3.775   7.992  0.6252 -0.2387 -1.2175
18480THY    HP458071   1.387   3.909   8.052  0.1434  1.4879 -1.9187
18480THY    CP358072   1.421   4.053   7.829  0.3640  0.1326  0.0791
18480THY    HP558073   1.391   4.099   7.734 -0.1507 -0.7556 -1.9812
18480THY    HP658074   1.526   4.028   7.844  0.1078  0.6541 -0.7113
18480THY    HP758075   1.404   4.127   7.909 -0.9736  0.2100 -0.2805
18480THY    CA358076   1.142   4.054   7.965  0.6068  1.1910  0.3753
18480THY    HA358077   1.209   4.091   8.043  2.0868 -0.3809  1.1612
18480THY    CA458078   1.004   4.085   7.974 -0.3470 -0.0966  0.3943
18480THY    HA458079   0.950   4.136   8.053 -3.5500  0.8630 -3.9152
18480THY    CA558080   0.919   4.056   7.867 -0.1930  0.1270  0.3805
18480THY    CM158081   0.783   4.117   7.869  0.2598  0.2102 -0.5324
18480THY    HM158082   0.754   4.125   7.764  0.0639  0.1993 -1.3531
18480THY    HM258083   0.781   4.217   7.914 -2.7625 -0.0395 -0.3900
18480THY    HM358084   0.711   4.052   7.920 -0.2677 -0.1190 -0.2128
18480THY    CA658085   0.965   3.984   7.762  0.3153  0.5108  0.3298
18480THY    HA658086   0.897   3.958   7.681 -0.6679  1.4523 -0.1230
18481THY      O58087   1.770   4.296   5.805  0.5432  0.3579 -0.3608
18481THY     HO58088   1.725   4.342   5.878  1.8272  0.5550  0.6385
18481THY    CA158089   1.889   4.262   5.849 -0.1261  0.3876 -0.3929
18481THY    CA258090   1.994   4.218   5.766  0.9921  0.1610  0.0522
18481THY    CP158091   1.966   4.183   5.628 -0.6682  1.0096  0.5057
18481THY    HP158092   1.872   4.222   5.585  0.2745 -2.1441 -0.3880
18481THY    CP258093   1.962   4.026   5.611 -0.3098  0.5344 -0.6875
18481THY    HP258094   2.053   3.979   5.650 -0.3190 -0.7300 -1.8148
18481THY    HP358095   1.956   4.008   5.504 -0.2104  0.1559  1.2840
18481THY    HP458096   1.877   3.992   5.672  1.3004  2.9544 -0.6223
18481THY    CP358097   2.073   4.237   5.527  0.4673 -0.2743 -0.0805
18481THY    HP558098   2.080   4.346   5.537 -0.0981 -2.6946  0.2278
18481THY    HP658099   2.053   4.209   5.423 -1.3969  0.0513 -0.0742
18481THY    HP758100   2.176   4.202   5.545  0.4356  2.6142  1.0348
18481THY    CA358101   2.128   4.208   5.817 -0.1226  0.7932 -0.0063
18481THY    HA358102   2.206   4.172   5.751  0.3941  0.8410  0.9978
18481THY    CA458103   2.154   4.239   5.949 -0.1086  0.2515  0.2004
18481THY    HA458104   2.254   4.233   5.991  0.3309 -0.5752  1.5176
18481THY    CA558105   2.052   4.285   6.025  0.2935  0.8081  0.2270
18481THY    CM158106   2.076   4.339   6.157 -0.1307 -0.4937 -0.0702
18481THY    HM158107   1.985   4.355   6.216  0.7653  0.5237  1.5105
18481THY    HM258108   2.133   4.432   6.149  2.6670  0.6593 -1.5384
18481THY    HM358109   2.146   4.275   6.214 -0.1390  0.6423  0.9068
18481THY    CA658110   1.918   4.285   5.978 -0.5070  0.1407 -0.1721
18481THY    HA658111   1.845   4.333   6.042  1.4753  1.2846  1.4338
18482THY      O58112   3.366   7.944   7.019 -0.2777  0.0410  0.8244
18482THY     HO58113   3.438   7.909   6.965 -1.0209 -1.8690  2.0960
18482THY    CA158114   3.381   7.916   7.152  0.0159 -0.1553  0.4109
18482THY    CA258115   3.272   7.925   7.244 -0.5198  0.4614 -0.2776
18482THY    CP158116   3.133   7.977   7.196 -0.6224  0.7692 -0.5581
18482THY    HP158117   3.117   8.002   7.091 -0.6397  0.6836 -0.9306
18482THY    CP258118   3.091   8.103   7.258  0.2987 -0.2684 -0.7935
18482THY    HP258119   2.990   8.130   7.226  0.3926  0.7978  0.9537
18482THY    HP358120   3.157   8.184   7.221  0.1875 -1.1457 -1.0889
18482THY    HP458121   3.082   8.094   7.366 -1.2594 -0.3659 -0.6636
18482THY    CP358122   3.034   7.867   7.218 -0.0077  0.1765 -0.2334
18482THY    HP558123   3.074   7.786   7.156 -0.5022  0.9765 -1.1057
18482THY    HP658124   2.945   7.900   7.164  1.3530 -2.6919 -0.9208
18482THY    HP758125   3.023   7.833   7.322  0.0432  0.8870  1.7996
18482THY    CA358126   3.283   7.882   7.376 -0.0272 -0.4453 -0.0479
18482THY    HA358127   3.208   7.889   7.454 -0.3891 -0.8808  1.2574
18482THY    CA458128   3.414   7.838   7.419  0.1259  0.8019 -0.6904
18482THY    HA458129   3.443   7.821   7.522  0.4951  1.1293  1.6376
18482THY    CA558130   3.523   7.845   7.331  0.3063  0.1037 -0.1058
18482THY    CM158131   3.661   7.837   7.389 -0.1393 -0.0439 -0.4267
18482THY    HM158132   3.734   7.823   7.308  0.7902  0.6806  0.1236
18482THY    HM258133   3.667   7.748   7.453 -1.1177  3.3090  1.7469
18482THY    HM358134   3.693   7.921   7.451  2.8289 -0.0010 -1.4839
18482THY    CA658135   3.510   7.887   7.193  0.0840 -0.8336 -0.0757
18482THY    HA658136   3.599   7.891   7.131  0.4333 -0.4616 -1.4854
18483THY      O58137   0.464   0.488   5.865 -0.2242  0.6335 -0.4795
18483THY     HO58138   0.399   0.433   5.818 -1.6301 -1.5297  2.7249
18483THY    CA158139   0.544   0.539   5.760 -0.3445  0.3292 -0.5774
18483THY    CA258140   0.678   0.565   5.783 -0.3861  0.2436 -0.2573
18483THY    CP158141   0.737   0.548   5.923  0.3537  0.4276  0.1920
18483THY    HP158142   0.656   0.548   5.997 -0.3189 -0.2544  2.3884
18483THY    CP258143   0.839   0.661   5.972 -0.7615 -0.6286  0.1069
18483THY    HP258144   0.915   0.680   5.895 -0.2644  0.1207  1.2258
18483THY    HP358145   0.895   0.614   6.053 -0.0687 -1.8520 -1.2419
18483THY    HP458146   0.783   0.748   6.009  0.4661 -0.4436  0.8376
18483THY    CP358147   0.803   0.403   5.923  0.0560  0.7933  0.4339
18483THY    HP558148   0.735   0.330   5.877  2.0149 -1.2895 -0.1967
18483THY    HP658149   0.845   0.373   6.020  0.9630  0.2784  0.0145
18483THY    HP758150   0.879   0.398   5.845 -0.5519  0.2311 -0.3989
18483THY    CA358151   0.767   0.589   5.684  0.2951  0.3664 -0.4625
18483THY    HA358152   0.871   0.610   5.706  0.0205  0.9495  0.3163
18483THY    CA458153   0.714   0.605   5.557  0.1555  1.0214  0.2862
18483THY    HA458154   0.774   0.636   5.472 -0.7723  0.9326  1.9572
18483THY    CA558155   0.579   0.573   5.526 -0.9004  0.7477  0.0274
18483THY    CM158156   0.529   0.567   5.381 -0.1131  0.1634  0.4996
18483THY    HM158157   0.446   0.637   5.369  0.0123 -1.3815  0.4063
18483THY    HM258158   0.484   0.468   5.363 -2.9146  1.2911  1.4506
18483THY    HM358159   0.612   0.579   5.311 -0.6755 -0.8359 -1.1490
18483THY    CA658160   0.495   0.537   5.630 -0.9558  0.7188 -0.3389
18483THY    HA658161   0.392   0.513   5.604 -0.5114 -2.7243  0.8884
18484THY      O58162   5.245   9.378   5.384  0.3364  0.4032 -0.4339
18484THY     HO58163   5.304   9.456   5.385  0.1067 -2.2892 -0.1056
18484THY    CA158164   5.273   9.313   5.271 -0.0374 -0.8656  0.9534
18484THY    CA258165   5.217   9.186   5.243 -0.0001 -0.0562 -0.2385
18484THY    CP158166   5.133   9.109   5.346 -0.1406 -0.1674  0.3111
18484THY    HP158167   5.187   9.132   5.439  0.5864 -1.1320  2.8992
18484THY    CP258168   5.121   8.953   5.328  0.3189 -0.2200 -0.9095
18484THY    HP258169   5.220   8.910   5.347  1.6940 -0.8300  1.8044
18484THY    HP358170   5.086   8.927   5.227  1.1115 -1.4348  2.2637
18484THY    HP458171   5.054   8.906   5.401  1.4995  1.3352 -0.2729
18484THY    CP358172   4.991   9.165   5.353 -0.0864  0.0506  0.4566
18484THY    HP558173   4.919   9.095   5.396 -2.2738 -0.2482  2.4234
18484THY    HP658174   4.948   9.187   5.254  0.3941 -0.5469 -1.1840
18484THY    HP758175   4.997   9.261   5.405  0.6580 -2.1182  1.6610
18484THY    CA358176   5.232   9.137   5.114  0.4454  0.3591 -0.7163
18484THY    HA358177   5.200   9.037   5.087  1.5905 -1.9517 -0.5274
18484THY    CA458178   5.312   9.206   5.023  0.0142  0.6158  0.7869
18484THY    HA458179   5.323   9.167   4.923  3.0216  0.8400  0.7999
18484THY    CA558180   5.358   9.331   5.056  0.0342  0.0450  0.2232
18484THY    CM158181   5.415   9.418   4.950  0.1198 -1.2098  0.2208
18484THY    HM158182   5.341   9.487   4.909  2.4790 -3.5944  1.4887
18484THY    HM258183   5.468   9.354   4.879  1.2556  2.2305 -3.0549
18484THY    HM358184   5.496   9.482   4.987 -0.1378 -0.2732  0.0312
18484THY    CA658185   5.335   9.388   5.177  0.2941 -0.7262 -0.3578
18484THY    HA658186   5.358   9.493   5.189  1.9348 -1.4944 -0.5903
18485THY      O58187   0.660   8.596   3.000 -0.1428 -0.3429 -0.2499
18485THY     HO58188   0.710   8.607   2.918  1.4743  0.8184  1.8081
18485THY    CA158189   0.684   8.462   3.027 -0.2375  0.2979 -0.0206
18485THY    CA258190   0.643   8.366   2.940  0.1913  0.4530  0.5368
18485THY    CP158191   0.561   8.399   2.809 -0.6570 -0.6060 -0.1089
18485THY    HP158192   0.547   8.506   2.790  2.5215 -0.8164  0.3776
18485THY    CP258193   0.412   8.358   2.818 -0.4815  0.6419 -0.0988
18485THY    HP258194   0.378   8.385   2.919  1.7088  1.8851 -1.7002
18485THY    HP358195   0.398   8.250   2.808 -0.4742 -0.4137 -0.0094
18485THY    HP458196   0.361   8.423   2.747 -1.9392  1.7481  0.0244
18485THY    CP358197   0.639   8.352   2.688 -0.4257 -0.3166  0.5593
18485THY    HP558198   0.659   8.245   2.675  1.3841  0.7823  0.7189
18485THY    HP658199   0.734   8.407   2.686 -1.1535 -0.5276  1.8458
18485THY    HP758200   0.596   8.405   2.601  1.5201 -1.4875  0.3036
18485THY    CA358201   0.674   8.227   2.966 -0.1894  0.4991  0.2147
18485THY    HA358202   0.669   8.148   2.891  3.3092 -1.5089  1.6855
18485THY    CA458203   0.742   8.197   3.083 -0.1363 -0.2749  0.1661
18485THY    HA458204   0.776   8.095   3.097  0.7541 -0.3230  0.4420
18485THY    CA558205   0.764   8.295   3.181 -0.1708 -0.4480  0.6853
18485THY    CM158206   0.820   8.253   3.311 -0.6975  0.2904 -0.3694
18485THY    HM158207   0.775   8.155   3.333  0.5309 -1.6801 -1.4370
18485THY    HM258208   0.785   8.324   3.387 -0.3484 -0.1261  0.2574
18485THY    HM358209   0.929   8.254   3.311 -0.7028  0.0713  0.4998
18485THY    CA658210   0.739   8.427   3.150 -0.0502  0.4814  0.5586
18485THY    HA658211   0.745   8.505   3.226 -0.9179 -0.1629  1.2731
18486THY      O58212   2.903   2.303   5.118  0.0025  0.0687  0.5989
18486THY     HO58213   2.895   2.334   5.026  1.3115 -0.2051  0.1777
18486THY    CA158214   3.005   2.370   5.181 -0.3122  0.9416  0.5969
18486THY    CA258215   3.032   2.367   5.319  0.1090 -0.6004  0.2633
18486THY    CP158216   2.943   2.282   5.403  0.0232 -0.3697  0.4730
18486THY    HP158217   2.847   2.304   5.354  0.7808 -2.7347 -1.1506
18486THY    CP258218   2.933   2.320   5.555 -0.0658  0.4885 -0.2539
18486THY    HP258219   2.855   2.254   5.596  1.6878  2.8675 -0.9943
18486THY    HP358220   2.910   2.424   5.580  0.9115 -0.0201  0.0955
18486THY    HP458221   3.026   2.293   5.607  0.5014  0.2283  1.1317
18486THY    CP358222   2.963   2.131   5.396 -0.6771  0.6345  0.1658
18486THY    HP558223   2.926   2.090   5.301 -1.2897  0.8332  0.2539
18486THY    HP658224   2.933   2.078   5.487 -2.8514  0.0767  0.3347
18486THY    HP758225   3.072   2.119   5.397 -0.7672 -0.9765 -1.1773
18486THY    CA358226   3.138   2.443   5.372  0.0650  0.4889 -0.6959
18486THY    HA358227   3.150   2.444   5.480 -2.8467  0.8953  0.8378
18486THY    CA458228   3.223   2.513   5.286  0.4590 -0.3083 -0.1566
18486THY    HA458229   3.307   2.568   5.327  0.3637  2.1220 -1.6383
18486THY    CA558230   3.204   2.514   5.152  0.6545  0.2226  0.6150
18486THY    CM158231   3.289   2.599   5.060 -0.5326 -0.4341  0.6947
18486THY    HM158232   3.325   2.689   5.111 -0.7657  2.1813 -0.6149
18486THY    HM258233   3.231   2.629   4.972 -0.5270 -2.3027 -3.8690
18486THY    HM358234   3.375   2.543   5.022 -1.2358 -3.6471  1.5917
18486THY    CA658235   3.088   2.447   5.101 -0.5976  0.6172 -0.0655
18486THY    HA658236   3.063   2.453   4.995 -0.4742  0.5918 -0.0057
18487THY      O58237   8.732   1.560   5.442  0.2528  0.5864 -0.3659
18487THY     HO58238   8.643   1.529   5.419 -0.3091  0.1430  1.4861
18487THY    CA158239   8.737   1.677   5.386 -0.4460 -0.0526 -0.0882
18487THY    CA258240   8.829   1.777   5.416 -0.3032 -1.5470  0.2642
18487THY    CP158241   8.938   1.757   5.517  0.2219  0.8168 -0.6159
18487THY    HP158242   8.954   1.649   5.529 -0.1246  1.9612 -0.5601
18487THY    CP258243   8.902   1.809   5.653 -0.6554 -0.0677 -0.4155
18487THY    HP258244   8.992   1.823   5.714 -1.5640  1.1757  0.1646
18487THY    HP358245   8.838   1.741   5.711 -0.8338  2.3278  1.6672
18487THY    HP458246   8.867   1.912   5.648 -0.2763 -0.7061 -0.3124
18487THY    CP358247   9.066   1.826   5.462 -0.1315  0.0991  0.2577
18487THY    HP558248   9.099   1.916   5.516 -1.0770  1.1012  0.0281
18487THY    HP658249   9.069   1.841   5.354  0.9064 -0.0181 -0.6554
18487THY    HP758250   9.139   1.746   5.481  0.1538 -2.8117 -0.2781
18487THY    CA358251   8.810   1.901   5.354  0.3876  0.0969 -0.1661
18487THY    HA358252   8.864   1.991   5.384  0.1485  0.8053 -0.2553
18487THY    CA458253   8.719   1.918   5.248 -0.2741 -0.1869 -0.2471
18487THY    HA458254   8.707   2.019   5.209 -0.3296 -1.2970 -0.6728
18487THY    CA558255   8.640   1.811   5.208  0.3938 -0.4419 -0.5281
18487THY    CM158256   8.521   1.824   5.108 -0.4094  0.4563 -0.7632
18487THY    HM158257   8.473   1.914   5.149  1.5472  0.2451  0.4468
18487THY    HM258258   8.445   1.745   5.113 -1.7870  0.5201  0.5112
18487THY    HM358259   8.538   1.848   5.003  0.3589  0.8872  0.7186
18487THY    CA658260   8.653   1.691   5.277 -0.1347 -0.0577  0.5837
18487THY    HA658261   8.584   1.612   5.249 -0.0635 -1.0152  0.8408
18488THY      O58262   5.035   3.094   7.470  0.2480  0.2269 -0.0683
18488THY     HO58263   5.108   3.133   7.420  0.3651  1.1322  0.9224
18488THY    CA158264   5.003   2.987   7.399 -0.1274  0.5269 -0.0320
18488THY    CA258265   4.872   2.928   7.424 -0.2800  0.3355 -0.0001
18488THY    CP158266   4.776   2.969   7.537 -0.7415 -0.4457  0.6411
18488THY    HP158267   4.827   3.034   7.609  0.3047 -1.4518  0.9754
18488THY    CP258268   4.736   2.853   7.625  0.2833  0.4696 -0.5249
18488THY    HP258269   4.669   2.888   7.706 -0.2364 -0.2992  0.3171
18488THY    HP358270   4.829   2.805   7.655  1.2498  0.2077  1.1291
18488THY    HP458271   4.680   2.781   7.565 -0.2754  2.4009 -1.8028
18488THY    CP358272   4.660   3.045   7.473 -0.5639  0.2743  0.2088
18488THY    HP558273   4.616   2.998   7.384 -2.2996 -0.0415  2.2488
18488THY    HP658274   4.696   3.146   7.448  0.8034  0.7493 -0.1328
18488THY    HP758275   4.576   3.057   7.542 -1.2554 -0.7211  1.4547
18488THY    CA358276   4.835   2.831   7.329  0.1145  0.1047 -0.2000
18488THY    HA358277   4.740   2.777   7.336  0.2596 -0.8140 -0.5924
18488THY    CA458278   4.914   2.787   7.222 -0.6126  0.5707 -0.4077
18488THY    HA458279   4.876   2.709   7.156 -0.5430  0.7431 -0.5875
18488THY    CA558280   5.040   2.843   7.207 -0.7291  0.0579 -0.6340
18488THY    CM158281   5.127   2.826   7.086 -0.2173  0.0914 -0.2180
18488THY    HM158282   5.219   2.772   7.112  1.9525 -1.6973  2.3204
18488THY    HM258283   5.164   2.925   7.057  1.1895 -0.5221 -0.8935
18488THY    HM358284   5.076   2.775   7.003  0.3613 -0.1001 -0.4941
18488THY    CA658285   5.083   2.940   7.294  0.1071  0.2201 -0.2758
18488THY    HA658286   5.181   2.980   7.269  1.5066 -0.3283 -3.6664
18489THY      O58287   4.074   0.853   3.788 -0.1551 -0.1276  0.5679
18489THY     HO58288   4.078   0.862   3.691 -0.6707 -0.2352 -0.2614
18489THY    CA158289   3.936   0.879   3.805  0.1090  0.0254 -0.4951
18489THY    CA258290   3.867   0.852   3.928 -0.4218  0.8049  0.5168
18489THY    CP158291   3.944   0.777   4.030  0.2100  0.0252 -0.4435
18489THY    HP158292   4.049   0.773   4.000 -0.6002 -3.1465 -0.3292
18489THY    CP258293   3.904   0.633   4.033  0.3296  0.7787  0.3752
18489THY    HP258294   3.981   0.571   4.082 -0.5938  0.6168 -0.9446
18489THY    HP358295   3.899   0.598   3.929  2.6409  1.0354 -0.9662
18489THY    HP458296   3.812   0.608   4.087  0.6121  0.7029 -0.9180
18489THY    CP358297   3.933   0.830   4.170  0.3128  0.2058  0.1368
18489THY    HP558298   3.981   0.770   4.249  0.4591  0.5749  0.7304
18489THY    HP658299   3.828   0.837   4.201  0.3615  1.3693 -2.8867
18489THY    HP758300   3.984   0.927   4.171  1.9298 -1.9436 -0.6166
18489THY    CA358301   3.744   0.904   3.943  0.5245  0.2866 -0.5401
18489THY    HA358302   3.690   0.895   4.037  1.5054  0.9696  0.4723
18489THY    CA458303   3.684   0.959   3.834  0.4844 -0.4950 -0.4570
18489THY    HA458304   3.584   1.001   3.843  0.2917  0.2156 -1.0429
18489THY    CA558305   3.741   0.973   3.709  0.1392  0.0481 -0.7581
18489THY    CM158306   3.674   1.049   3.600  0.2997  0.3502  0.4091
18489THY    HM158307   3.672   0.992   3.506 -0.1307  0.2858  0.5304
18489THY    HM258308   3.725   1.140   3.566 -0.8786  0.8759  1.2930
18489THY    HM358309   3.573   1.079   3.630  0.4083  2.0333 -0.7415
18489THY    CA658310   3.879   0.942   3.699  0.9820  0.0699  0.7187
18489THY    HA658311   3.939   0.963   3.610  1.0749 -0.3656 -1.1893
18490THY      O58312   7.384   8.561   2.626 -0.1359 -0.0382 -0.1829
18490THY     HO58313   7.466   8.610   2.644 -1.1184  1.5400  1.0034
18490THY    CA158314   7.393   8.528   2.501 -0.1595  0.1592 -0.0312
18490THY    CA258315   7.330   8.412   2.453 -0.2466 -0.4403  0.3433
18490THY    CP158316   7.261   8.314   2.554  0.3830 -0.4247  0.3047
18490THY    HP158317   7.239   8.353   2.654  0.7104 -0.0720 -0.3780
18490THY    CP258318   7.357   8.204   2.585 -0.1955 -0.1618  0.4680
18490THY    HP258319   7.318   8.149   2.671 -0.1323  0.3385  1.1870
18490THY    HP358320   7.459   8.240   2.604  0.3536 -1.1311 -0.5276
18490THY    HP458321   7.362   8.132   2.503 -0.9291 -0.6895  1.0034
18490THY    CP358322   7.122   8.277   2.524  0.4262  0.5460  0.2842
18490THY    HP558323   7.107   8.273   2.415 -0.2638  0.6402  0.1151
18490THY    HP658324   7.054   8.359   2.552  1.4444  0.4937  1.1644
18490THY    HP758325   7.088   8.190   2.581  0.6394  2.3418  1.3203
18490THY    CA358326   7.345   8.375   2.319 -0.7052 -0.3828  0.5911
18490THY    HA358327   7.295   8.285   2.285 -1.8087  1.9723  0.2443
18490THY    CA458328   7.425   8.456   2.233 -0.2042 -0.3097 -0.1584
18490THY    HA458329   7.439   8.422   2.131 -1.3447 -0.2531 -0.8277
18490THY    CA558330   7.486   8.576   2.280  0.1045 -0.4728  0.4996
18490THY    CM158331   7.574   8.656   2.187  0.0770 -0.3994 -0.4079
18490THY    HM158332   7.520   8.741   2.144  2.8730 -1.3727  0.9911
18490THY    HM258333   7.608   8.591   2.105 -0.0638 -1.7904  1.1903
18490THY    HM358334   7.659   8.696   2.242 -0.0550  0.4587 -1.2658
18490THY    CA658335   7.472   8.610   2.416 -0.5530  0.3951 -0.4750
18490THY    HA658336   7.506   8.708   2.448 -0.1739  0.1844 -0.5385
18491THY      O58337   8.164   2.463   7.010 -0.6870 -0.0746 -0.5074
18491THY     HO58338   8.084   2.460   6.955 -1.4039  0.9605 -2.4855
18491THY    CA158339   8.229   2.591   6.988  0.4536 -0.2588  0.4345
18491THY    CA258340   8.372   2.600   6.981 -0.0830  0.5498 -0.4054
18491THY    CP158341   8.476   2.492   6.994 -0.1590 -0.7417  0.4623
18491THY    HP158342   8.435   2.412   7.057 -0.6257  0.5032  1.6323
18491THY    CP258343   8.613   2.532   7.058 -0.1555  0.8960 -0.4366
18491THY    HP258344   8.678   2.572   6.980  0.8668  0.9147 -1.9961
18491THY    HP358345   8.665   2.442   7.092  1.2092 -3.2544 -1.4288
18491THY    HP458346   8.599   2.616   7.128 -0.8410 -0.9327  1.0452
18491THY    CP358347   8.491   2.429   6.857 -0.5608 -0.6060  0.0621
18491THY    HP558348   8.508   2.505   6.779  2.0752  3.0756  3.7159
18491THY    HP658349   8.396   2.378   6.840  0.1435 -0.9473 -1.1875
18491THY    HP758350   8.578   2.364   6.845 -0.8533 -0.8277 -0.2925
18491THY    CA358351   8.422   2.734   6.942  0.0744  0.2448  0.0575
18491THY    HA358352   8.527   2.750   6.920  0.1325 -2.2649 -2.8862
18491THY    CA458353   8.340   2.840   6.941  0.7016  0.0681  0.3111
18491THY    HA458354   8.382   2.939   6.920 -0.5916  1.2655  1.1483
18491THY    CA558355   8.197   2.829   6.970  0.4162 -0.0699 -0.3781
18491THY    CM158356   8.105   2.938   6.977 -0.1855 -0.5198  0.4768
18491THY    HM158357   8.047   2.928   7.070 -0.9516 -0.9915  0.4417
18491THY    HM258358   8.032   2.943   6.896 -0.8267  0.0850  1.3742
18491THY    HM358359   8.149   3.038   6.974 -0.4188 -0.0832  0.5960
18491THY    CA658360   8.145   2.702   6.986  0.2589 -0.0572 -0.0235
18491THY    HA658361   8.039   2.682   6.988 -0.2552  1.6058  2.4598
18492THY      O58362   7.178   2.475   7.098 -0.0362 -0.5864  0.3309
18492THY     HO58363   7.182   2.418   7.019 -1.7581  0.3232 -1.1715
18492THY    CA158364   7.213   2.599   7.044 -0.3662 -0.2208 -0.1248
18492THY    CA258365   7.267   2.701   7.128  0.4222  0.0479 -0.3288
18492THY    CP158366   7.284   2.670   7.281 -0.2339  0.2394  0.0570
18492THY    HP158367   7.198   2.613   7.319 -1.5702  0.3400  2.0200
18492THY    CP258368   7.264   2.807   7.351 -0.5371 -0.7298  0.6396
18492THY    HP258369   7.231   2.790   7.454  0.7407 -0.3155  0.5426
18492THY    HP358370   7.186   2.871   7.310 -1.9883 -1.6525 -1.6161
18492THY    HP458371   7.363   2.853   7.363  1.3242  0.4250 -3.2331
18492THY    CP358372   7.421   2.606   7.320  0.4685 -1.0783  0.0398
18492THY    HP558373   7.454   2.642   7.418  1.5929 -2.0224  1.6515
18492THY    HP658374   7.490   2.627   7.238 -0.6996 -1.7921  1.2596
18492THY    HP758375   7.394   2.499   7.318  1.6680 -2.4455 -0.2624
18492THY    CA358376   7.305   2.825   7.068  1.0129  0.2655 -0.8974
18492THY    HA358377   7.367   2.900   7.116 -0.6949 -0.8815  1.4026
18492THY    CA458378   7.278   2.852   6.934  0.6734  0.0615 -0.0620
18492THY    HA458379   7.293   2.948   6.886 -1.4968 -0.4586  0.0845
18492THY    CA558380   7.222   2.753   6.857 -0.2831 -0.4076 -0.1342
18492THY    CM158381   7.194   2.777   6.716 -0.1949  0.1737 -0.3148
18492THY    HM158382   7.119   2.858   6.712 -1.1587  0.8462 -1.1433
18492THY    HM258383   7.148   2.689   6.670 -1.2480  2.9296 -1.3120
18492THY    HM358384   7.290   2.790   6.666  0.9772  2.2375 -0.6449
18492THY    CA658385   7.193   2.629   6.913  0.2761 -0.1891 -0.0392
18492THY    HA658386   7.148   2.547   6.856  1.8293 -2.5269  0.6265
18493THY      O58387   1.430   3.993   2.525  0.0121  0.1017  0.5562
18493THY     HO58388   1.371   4.042   2.583 -1.5209 -1.5561  0.7858
18493THY    CA158389   1.340   3.931   2.441  0.0977  0.4886 -0.2709
18493THY    CA258390   1.374   3.813   2.369  0.0951 -0.7076 -0.0648
18493THY    CP158391   1.518   3.761   2.377  0.2638 -0.3104  0.0565
18493THY    HP158392   1.575   3.828   2.442  0.5605 -1.1654  0.6454
18493THY    CP258393   1.596   3.767   2.248  0.1597  0.1041  0.6072
18493THY    HP258394   1.613   3.872   2.222 -0.6347 -1.2399  0.4316
18493THY    HP358395   1.538   3.712   2.173 -0.2422  1.9804 -1.6996
18493THY    HP458396   1.696   3.721   2.255  0.0736 -2.6564 -0.1915
18493THY    CP358397   1.525   3.611   2.431  0.1134  0.6211  0.6286
18493THY    HP558398   1.617   3.584   2.484  0.0748  0.2542 -0.2549
18493THY    HP658399   1.512   3.540   2.349 -3.3087  0.7160  0.9705
18493THY    HP758400   1.441   3.586   2.497 -0.9883 -1.6680 -2.3288
18493THY    CA358401   1.275   3.744   2.297 -0.0760 -0.3543 -0.2401
18493THY    HA358402   1.291   3.651   2.243 -2.0350 -1.4884  0.0151
18493THY    CA458403   1.141   3.791   2.299 -0.4705  1.1300 -0.3786
18493THY    HA458404   1.061   3.737   2.249  1.3799 -0.9863 -1.2810
18493THY    CA558405   1.108   3.903   2.373  0.0531  0.1567  0.3796
18493THY    CM158406   0.964   3.951   2.389  1.0041  0.1389 -0.4621
18493THY    HM158407   0.924   3.944   2.491 -0.1528 -0.1653  1.0293
18493THY    HM258408   0.897   3.903   2.317  0.8330 -0.4626  0.6430
18493THY    HM358409   0.971   4.057   2.364  1.4650  0.6965 -0.3544
18493THY    CA658410   1.208   3.974   2.443  0.7590 -0.8675 -0.5811
18493THY    HA658411   1.173   4.055   2.507  4.9557 -0.9017  1.5088
18494THY      O58412   3.355   3.687   5.213  0.3151 -0.7382  0.5171
18494THY     HO58413   3.345   3.647   5.125  1.7794 -0.7833  0.2063
18494THY    CA158414   3.306   3.614   5.318  0.2371 -0.4337  0.1482
18494THY    CA258415   3.224   3.673   5.423  0.8075 -0.0583  0.0486
18494THY    CP158416   3.195   3.826   5.414  0.3062 -0.2722  0.2579
18494THY    HP158417   3.224   3.867   5.317 -0.9307 -1.1059 -0.7637
18494THY    CP258418   3.274   3.898   5.519  0.2892  0.4589  0.5557
18494THY    HP258419   3.373   3.896   5.471 -0.6628 -1.6309 -2.2036
18494THY    HP358420   3.274   3.856   5.620 -0.6799  0.1952 -0.1023
18494THY    HP458421   3.239   4.001   5.533  0.0317  2.0221  0.2735
18494THY    CP358422   3.049   3.849   5.429 -0.2061  0.4561 -0.2837
18494THY    HP558423   3.019   3.836   5.534 -0.2205  0.1764 -2.9198
18494THY    HP658424   2.989   3.784   5.364  0.0161  0.9273 -0.9657
18494THY    HP758425   3.025   3.955   5.410 -1.1746  2.2776 -0.1267
18494THY    CA358426   3.177   3.587   5.523  0.1221 -0.0878  0.3208
18494THY    HA358427   3.112   3.632   5.597  0.7423  0.7287 -0.1079
18494THY    CA458428   3.217   3.451   5.526 -0.6740 -0.3883 -0.0997
18494THY    HA458429   3.187   3.389   5.610  0.4325  0.6724  0.7661
18494THY    CA558430   3.287   3.396   5.420  0.4146 -0.4536 -0.2557
18494THY    CM158431   3.320   3.256   5.418 -0.1240 -0.3797 -0.3760
18494THY    HM158432   3.386   3.232   5.501 -1.8127  0.2689 -3.2021
18494THY    HM258433   3.379   3.235   5.328 -1.8783 -2.0657  1.3557
18494THY    HM358434   3.232   3.191   5.413 -0.0869 -1.3819 -0.3701
18494THY    CA658435   3.337   3.478   5.318 -0.6650 -0.0795  0.1633
18494THY    HA658436   3.399   3.443   5.236 -0.6460  0.1903 -0.4507
18495THY      O58437   9.033   9.278   7.155  0.2238  0.1633  0.1101
18495THY     HO58438   9.053   9.328   7.074  0.9592 -0.3904 -1.0317
18495THY    CA158439   9.062   9.144   7.142 -0.1432 -0.3494 -0.4901
18495THY    CA258440   9.026   9.046   7.242 -0.4310 -0.5586  0.2144
18495THY    CP158441   8.974   9.094   7.378 -0.0952  0.1779  0.5749
18495THY    HP158442   8.973   9.203   7.384 -1.2408 -0.2719  0.6070
18495THY    CP258443   9.052   9.031   7.500 -0.4733  0.1722 -0.0976
18495THY    HP258444   9.156   9.063   7.490 -0.5174  0.1874  0.0506
18495THY    HP358445   9.032   8.923   7.500 -1.5918 -0.5207  0.0927
18495THY    HP458446   9.008   9.059   7.597 -0.7135  0.2005 -0.5674
18495THY    CP358447   8.827   9.056   7.393  0.5973  0.2650 -0.2298
18495THY    HP558448   8.815   8.951   7.366  1.9619 -2.4627  0.2283
18495THY    HP658449   8.766   9.121   7.329 -0.6795  1.1283 -0.5268
18495THY    HP758450   8.787   9.073   7.494 -0.1371 -0.3663  2.2143
18495THY    CA358451   9.057   8.908   7.224  0.2074  0.1481  0.0244
18495THY    HA358452   9.041   8.835   7.302 -1.0811 -0.3099 -0.2158
18495THY    CA458453   9.113   8.872   7.104 -0.7455  0.1177 -0.1816
18495THY    HA458454   9.149   8.771   7.085 -0.7742  0.9682 -0.3574
18495THY    CA558455   9.132   8.958   7.002 -0.4823 -0.2645  0.5009
18495THY    CM158456   9.210   8.917   6.878 -0.4605 -0.7201 -0.4219
18495THY    HM158457   9.228   8.995   6.803  1.2563  1.2906  1.2362
18495THY    HM258458   9.182   8.825   6.824 -3.0344 -1.0960  0.4786
18495THY    HM358459   9.313   8.902   6.910 -0.7636  0.7247  0.3814
18495THY    CA658460   9.116   9.101   7.019  0.7102 -0.4391 -0.5358
18495THY    HA658461   9.155   9.166   6.942  0.7742  2.1729  2.8068
18496THY      O58462   6.619   4.481   7.321  0.8578 -0.1170  0.4262
18496THY     HO58463   6.663   4.422   7.258 -0.4710 -0.7907  0.1038
18496THY    CA158464   6.484   4.467   7.292 -0.2656  0.5584 -0.2418
18496THY    CA258465   6.389   4.481   7.390 -0.2316  0.1446 -0.5611
18496THY    CP158466   6.431   4.496   7.535  0.4700 -0.1372  0.7276
18496THY    HP158467   6.536   4.529   7.537  0.7526 -3.0491  0.2741
18496THY    CP258468   6.430   4.359   7.610  0.7368 -0.0315  0.0865
18496THY    HP258469   6.505   4.294   7.563 -0.7540 -1.2354 -0.8614
18496THY    HP358470   6.332   4.309   7.611  0.4248  1.3458  0.6897
18496THY    HP458471   6.459   4.374   7.714 -0.3908 -0.0882  3.5545
18496THY    CP358472   6.340   4.585   7.617  0.7603  0.0359 -1.1053
18496THY    HP558473   6.390   4.615   7.710  3.4894 -1.4952 -0.5991
18496THY    HP658474   6.249   4.535   7.653  1.8167  0.6335 -2.6897
18496THY    HP758475   6.298   4.664   7.554  0.5833  1.4173 -0.0533
18496THY    CA358476   6.251   4.475   7.351 -0.5065  0.5872 -0.7256
18496THY    HA358477   6.176   4.496   7.426 -0.5346  0.6005 -0.8750
18496THY    CA458478   6.216   4.467   7.218  0.6218  0.0016 -0.1591
18496THY    HA458479   6.113   4.446   7.190 -0.5810  2.6559  1.6758
18496THY    CA558480   6.313   4.450   7.122 -1.6919  0.4982  1.1951
18496THY    CM158481   6.268   4.417   6.981 -0.1896  0.0701  0.3197
18496THY    HM158482   6.240   4.507   6.924  2.7162 -0.9431  0.6852
18496THY    HM258483   6.187   4.344   6.995 -2.1458  1.2396  2.5838
18496THY    HM358484   6.344   4.366   6.921 -1.6779 -2.0733  0.4722
18496THY    CA658485   6.448   4.443   7.156 -0.1792  0.4642 -0.4530
18496THY    HA658486   6.518   4.418   7.077 -0.2128 -0.1869  1.3443
18497THY      O58487   5.294   8.913   4.726 -0.4917 -0.0640  0.0013
18497THY     HO58488   5.370   8.957   4.685 -0.6644  1.3326  1.7415
18497THY    CA158489   5.199   8.946   4.642 -0.3692 -0.2972 -0.1152
18497THY    CA258490   5.060   8.967   4.676 -0.1132 -0.3991 -0.5332
18497THY    CP158491   5.019   8.963   4.828  0.4396 -0.3722  0.4787
18497THY    HP158492   5.102   8.948   4.898 -0.5492  0.6603 -0.4170
18497THY    CP258493   4.932   8.838   4.835  0.1981 -0.6466  0.3450
18497THY    HP258494   4.879   8.825   4.930 -1.3183 -1.1818  2.2277
18497THY    HP358495   4.990   8.747   4.818 -1.4202  1.6396 -1.2346
18497THY    HP458496   4.861   8.831   4.751  1.2401 -1.4942 -0.4639
18497THY    CP358497   4.938   9.081   4.879  0.2449 -0.0480 -0.2915
18497THY    HP558498   4.839   9.081   4.831 -0.1055  0.6457 -1.3224
18497THY    HP658499   4.993   9.172   4.853 -2.4112  1.6857  1.9914
18497THY    HP758500   4.927   9.071   4.987  2.4911  0.2308 -0.2736
18497THY    CA358501   4.971   8.994   4.575 -0.8898  0.3090  0.0608
18497THY    HA358502   4.866   9.013   4.596 -0.5274  2.4465 -0.0667
18497THY    CA458503   5.025   9.002   4.441  0.3015 -0.7350  0.0102
18497THY    HA458504   4.964   9.029   4.355  0.1530 -0.6507 -0.0541
18497THY    CA558505   5.159   8.981   4.414  0.1855  0.2819 -0.9220
18497THY    CM158506   5.212   8.998   4.278 -0.0196  0.1731 -0.2178
18497THY    HM158507   5.320   8.992   4.266  0.0140 -0.8180  1.5991
18497THY    HM258508   5.184   9.094   4.233  2.2047  2.0269  1.4189
18497THY    HM358509   5.161   8.921   4.219  0.3202 -0.0358 -0.2818
18497THY    CA658510   5.243   8.952   4.517  0.4098 -0.1839 -0.0091
18497THY    HA658511   5.343   8.924   4.485  0.2431 -3.5015  2.5795
18498THY      O58512   7.300   3.310   5.142 -0.4416 -0.2296 -0.7785
18498THY     HO58513   7.223   3.340   5.193 -0.6745 -0.9144 -0.1953
18498THY    CA158514   7.243   3.228   5.050 -0.0460  0.3487  0.0242
18498THY    CA258515   7.304   3.205   4.924  0.5228 -0.0605  0.5675
18498THY    CP158516   7.434   3.277   4.891 -0.4212 -0.8319 -0.2361
18498THY    HP158517   7.500   3.282   4.979 -0.2416 -0.9832  0.0670
18498THY    CP258518   7.397   3.414   4.839 -0.1195  0.0639 -0.4582
18498THY    HP258519   7.308   3.424   4.777  0.1256 -0.0563  1.2445
18498THY    HP358520   7.482   3.462   4.790  0.0213  0.5894 -0.1579
18498THY    HP458521   7.380   3.483   4.922  1.5766 -0.2553  0.3849
18498THY    CP358522   7.515   3.200   4.785 -0.6217  0.5388 -0.7624
18498THY    HP558523   7.523   3.092   4.800  1.6572  1.7781 -0.4842
18498THY    HP658524   7.620   3.232   4.790 -0.4670  0.5083 -1.2707
18498THY    HP758525   7.482   3.229   4.685 -2.3752  1.4499  0.5426
18498THY    CA358526   7.228   3.136   4.828  0.2553 -0.2526  0.3759
18498THY    HA358527   7.270   3.133   4.728  1.5232  0.2747 -0.0911
18498THY    CA458528   7.095   3.084   4.859 -0.2220 -0.1621 -0.2840
18498THY    HA458529   7.040   3.030   4.782  2.8435 -1.6125 -1.6024
18498THY    CA558530   7.046   3.104   4.989  0.3327  0.2838 -0.6874
18498THY    CM158531   6.918   3.033   5.028  1.1107  0.0144  0.3967
18498THY    HM158532   6.939   2.952   5.099 -0.6188  1.1589  0.9021
18498THY    HM258533   6.850   2.987   4.955 -0.0197  0.0429  1.9326
18498THY    HM358534   6.855   3.104   5.082 -0.1416  0.4370 -0.9703
18498THY    CA658535   7.113   3.185   5.075  0.5298 -0.1661 -0.7277
18498THY    HA658536   7.074   3.193   5.175  0.1401 -0.4593  1.5276
18499THY      O58537   5.822   0.836   6.334  0.5587  0.0199  0.3819
18499THY     HO58538   5.816   0.822   6.238  0.1655  0.1282 -0.2824
18499THY    CA158539   5.758   0.953   6.366 -0.2946  0.0777 -0.0251
18499THY    CA258540   5.771   1.011   6.496 -0.5564  0.1107  0.6492
18499THY    CP158541   5.862   0.955   6.608 -0.4918  0.8016  0.4804
18499THY    HP158542   5.907   0.859   6.579  3.0424  0.2640  2.1351
18499THY    CP258543   5.785   0.927   6.730  0.0372 -0.3880 -0.6572
18499THY    HP258544   5.723   1.009   6.767  0.8261  0.1816 -0.3005
18499THY    HP358545   5.851   0.898   6.813  0.7624 -0.8027 -0.2229
18499THY    HP458546   5.714   0.847   6.708  0.5393 -0.3733 -1.1138
18499THY    CP358547   5.974   1.046   6.646  0.4327 -0.0975  0.1336
18499THY    HP558548   5.939   1.143   6.684 -2.0457  0.0508 -0.7539
18499THY    HP658549   6.039   1.065   6.559 -2.4968 -2.3336  0.6281
18499THY    HP758550   6.035   1.000   6.724  0.7804 -0.7254 -0.4897
18499THY    CA358551   5.701   1.128   6.529  0.1749  0.5618 -0.2823
18499THY    HA358552   5.730   1.171   6.625  0.0321  0.2310  0.5837
18499THY    CA458553   5.612   1.186   6.433 -0.9854 -1.2362 -0.4373
18499THY    HA458554   5.557   1.277   6.452 -0.2008  0.5935 -0.3129
18499THY    CA558555   5.605   1.126   6.305  0.3813  0.2378  0.1760
18499THY    CM158556   5.512   1.185   6.199 -0.2150 -0.1897  0.6164
18499THY    HM158557   5.510   1.295   6.198  0.5169 -1.8662  0.6525
18499THY    HM258558   5.412   1.149   6.227  0.2763  0.5863 -0.1801
18499THY    HM358559   5.527   1.155   6.094 -0.3477  0.6037 -2.6045
18499THY    CA658560   5.681   1.013   6.270  0.2489  0.2556 -0.9264
18499THY    HA658561   5.667   0.966   6.173 -3.3066  1.5914 -3.0758
18500THY      O58562   7.390   0.232   5.529  0.0901  0.0562  0.3106
18500THY     HO58563   7.326   0.164   5.555 -0.3260 -0.3696  0.5422
18500THY    CA158564   7.323   0.332   5.467 -0.6184  0.0365 -0.7177
18500THY    CA258565   7.336   0.469   5.512 -0.1507 -0.0637 -0.7799
18500THY    CP158566   7.452   0.503   5.607 -0.2001 -0.2429  0.1294
18500THY    HP158567   7.457   0.428   5.686 -2.2357 -0.8208 -0.6884
18500THY    CP258568   7.431   0.633   5.683  0.6415  0.4007 -0.3499
18500THY    HP258569   7.331   0.648   5.726 -0.7236 -1.9993 -1.9690
18500THY    HP358570   7.437   0.715   5.611 -1.2934 -0.6183 -1.0463
18500THY    HP458571   7.506   0.647   5.762  0.6432  0.2060  0.8235
18500THY    CP358572   7.586   0.494   5.534 -0.7537 -0.2816 -0.1775
18500THY    HP558573   7.665   0.531   5.602 -3.4249  1.7753  2.2026
18500THY    HP658574   7.578   0.560   5.447 -4.3856  0.7104  0.8992
18500THY    HP758575   7.604   0.392   5.497  0.5425  1.6293 -0.7022
18500THY    CA358576   7.254   0.566   5.443 -0.1228  0.0223  0.6083
18500THY    HA358577   7.259   0.672   5.466  0.7336  0.2465  0.5264
18500THY    CA458578   7.185   0.528   5.330 -0.0393  0.3672  0.6572
18500THY    HA458579   7.145   0.605   5.264 -2.4679  2.8693  1.7349
18500THY    CA558580   7.183   0.396   5.280  0.8074  0.6500  0.5277
18500THY    CM158581   7.106   0.369   5.152  0.2289 -0.9686 -0.3957
18500THY    HM158582   7.168   0.344   5.065 -0.6072 -1.5699 -0.4331
18500THY    HM258583   7.037   0.452   5.129 -1.2604  0.5230 -1.1457
18500THY    HM358584   7.037   0.285   5.166  1.9752  1.6806 -1.5152
18500THY    CA658585   7.249   0.298   5.351 -0.0598 -1.1255 -0.5846
18500THY    HA658586   7.236   0.195   5.320  1.1212 -0.6888 -0.8811
18501THY      O58587   2.325   6.091   4.433  0.3994  0.6865  0.0515
18501THY     HO58588   2.345   6.011   4.484  0.3444 -2.0426 -1.8668
18501THY    CA158589   2.342   6.041   4.305 -0.0674 -0.1479  0.0495
18501THY    CA258590   2.389   6.125   4.200  0.0209 -0.2906 -0.2501
18501THY    CP158591   2.398   6.275   4.215 -0.7007  1.1450 -0.6261
18501THY    HP158592   2.341   6.303   4.304 -2.9192 -0.1500 -0.8156
18501THY    CP258593   2.323   6.346   4.107 -0.0340 -0.0664 -0.4845
18501THY    HP258594   2.322   6.449   4.145  0.9812 -1.1507 -0.0541
18501THY    HP358595   2.226   6.299   4.089 -0.2206 -0.9006  0.1851
18501THY    HP458596   2.373   6.341   4.010 -0.5450 -0.2744 -1.7767
18501THY    CP358597   2.537   6.335   4.221 -0.0136 -0.5170 -0.2714
18501THY    HP558598   2.540   6.444   4.215 -2.5783 -0.0086 -0.1073
18501THY    HP658599   2.589   6.296   4.133  0.2852  0.3235 -1.8571
18501THY    HP758600   2.591   6.313   4.314  3.0398 -1.7508  1.4722
18501THY    CA358601   2.422   6.061   4.077  0.3952  0.1479 -0.5567
18501THY    HA358602   2.473   6.117   3.999  0.6658  0.1628 -0.7810
18501THY    CA458603   2.429   5.923   4.065  0.8896  0.3899 -0.5339
18501THY    HA458604   2.482   5.870   3.986 -0.2960 -0.9966  0.3043
18501THY    CA558605   2.376   5.844   4.167  0.3553  0.0312 -0.8044
18501THY    CM158606   2.384   5.695   4.159  0.6932 -0.3850 -0.6429
18501THY    HM158607   2.442   5.667   4.070 -0.7252 -1.5579  0.0280
18501THY    HM258608   2.285   5.647   4.157  0.2368  1.0202  0.1719
18501THY    HM358609   2.438   5.651   4.244 -2.5537  3.0060  1.3836
18501THY    CA658610   2.331   5.904   4.285 -0.2545 -0.2593  0.6841
18501THY    HA658611   2.297   5.837   4.364 -0.6790  0.5243  1.7927
18502THY      O58612   6.493   4.538   6.335  0.4911 -0.1723  0.1851
18502THY     HO58613   6.581   4.532   6.295  1.0270  0.8122  1.0309
18502THY    CA158614   6.467   4.418   6.390  0.1819 -0.1470 -0.1789
18502THY    CA258615   6.383   4.404   6.499 -0.6150 -0.5877  0.0579
18502THY    CP158616   6.297   4.528   6.535 -0.2704 -0.7872  0.1814
18502THY    HP158617   6.261   4.585   6.449 -0.2531  0.3336  1.9675
18502THY    CP258618   6.367   4.620   6.633 -0.4792  0.8991 -0.4500
18502THY    HP258619   6.383   4.565   6.727  0.4986  0.2562 -1.3121
18502THY    HP358620   6.306   4.711   6.630  0.8926 -1.7500  0.5048
18502THY    HP458621   6.468   4.643   6.597 -0.2320  1.0377 -1.2807
18502THY    CP358622   6.167   4.484   6.601  0.2311 -0.6037 -0.3151
18502THY    HP558623   6.100   4.568   6.621  0.4608 -1.0097 -0.0261
18502THY    HP658624   6.182   4.431   6.695  0.0208 -0.6071 -0.3823
18502THY    HP758625   6.120   4.419   6.526  3.5879 -2.4182 -0.9157
18502THY    CA358626   6.368   4.276   6.566 -0.4843 -0.5326  0.1673
18502THY    HA358627   6.300   4.259   6.649 -0.3996 -0.7582 -1.3213
18502THY    CA458628   6.451   4.176   6.522 -0.3324 -1.0424 -0.2548
18502THY    HA458629   6.439   4.080   6.573  0.0707 -0.8339 -0.1977
18502THY    CA558630   6.532   4.189   6.411  0.1139  0.6335  0.8602
18502THY    CM158631   6.624   4.076   6.372 -0.0733 -0.5504  0.4593
18502THY    HM158632   6.570   3.982   6.357  0.7477  0.9895 -0.2937
18502THY    HM258633   6.705   4.061   6.444 -0.5991 -0.0700 -0.1032
18502THY    HM358634   6.674   4.092   6.276 -0.0047 -1.1425 -2.7399
18502THY    CA658635   6.544   4.314   6.345  0.0712 -0.2974  0.7069
18502THY    HA658636   6.614   4.326   6.263  1.1895  0.6766  1.0270
18503THY      O58637   5.135   0.504   1.870  0.5886  0.2611 -1.0680
18503THY     HO58638   5.092   0.449   1.803  1.0243  0.3814 -1.5560
18503THY    CA158639   5.038   0.593   1.918 -0.5298  0.6638 -0.3629
18503THY    CA258640   5.052   0.740   1.902  0.4693 -0.0479 -0.7322
18503THY    CP158641   5.173   0.816   1.848  0.0287  0.5290  0.3016
18503THY    HP158642   5.257   0.755   1.883  0.6512 -0.8177  0.3508
18503THY    CP258643   5.197   0.960   1.901  0.1111 -0.3048 -0.0058
18503THY    HP258644   5.192   0.968   2.010 -0.5336 -0.3762  0.7786
18503THY    HP358645   5.125   1.031   1.858 -1.5471  0.7373 -0.9700
18503THY    HP458646   5.296   0.996   1.871 -0.0797 -1.2648 -0.2494
18503THY    CP358647   5.178   0.807   1.698  0.0427 -0.0472 -0.8556
18503THY    HP558648   5.146   0.708   1.664 -0.9004 -2.2404  0.1302
18503THY    HP658649   5.279   0.834   1.663  0.2817  0.8051 -0.6096
18503THY    HP758650   5.117   0.890   1.659 -0.5518  0.0444 -1.2438
18503THY    CA358651   4.943   0.818   1.948  0.4180  0.6571  0.5716
18503THY    HA358652   4.950   0.926   1.943  3.1026 -0.4285  0.4392
18503THY    CA458653   4.831   0.758   2.003  0.4828 -0.0623  0.7218
18503THY    HA458654   4.738   0.808   2.028 -3.4355 -1.0971 -5.0569
18503THY    CA558655   4.826   0.615   2.022 -0.6130  0.3628  0.0688
18503THY    CM158656   4.701   0.556   2.074  0.5272 -0.1396  0.3884
18503THY    HM158657   4.695   0.464   2.015  0.5655 -1.3644  1.1411
18503THY    HM258658   4.609   0.609   2.047  0.9458 -3.8134 -0.4760
18503THY    HM358659   4.709   0.515   2.175 -2.0880 -0.1490 -0.3171
18503THY    CA658660   4.930   0.530   1.975 -0.3603  1.1810 -0.8992
18503THY    HA658661   4.931   0.422   1.986  1.5349 -3.5233 -1.6043
18504THY      O58662   5.074   8.586   3.868 -0.0078 -0.0833  0.0013
18504THY     HO58663   5.017   8.509   3.850 -0.7881  1.1115  0.2697
18504THY    CA158664   4.991   8.688   3.819  0.2147  0.9677 -1.0095
18504THY    CA258665   5.043   8.821   3.808 -0.5166 -0.2607  0.2035
18504THY    CP158666   5.192   8.848   3.833 -0.5542  0.4477 -0.2503
18504THY    HP158667   5.232   8.766   3.894  3.1293  0.9519  1.7124
18504THY    CP258668   5.215   8.980   3.909  0.9089 -0.3199  0.6473
18504THY    HP258669   5.154   8.978   4.000  0.6997 -0.4378  1.4639
18504THY    HP358670   5.180   9.062   3.846  0.9277 -2.0786 -0.6232
18504THY    HP458671   5.320   8.999   3.932  0.2851  2.0201  1.5530
18504THY    CP358672   5.271   8.852   3.698  0.2579 -1.0798 -0.4273
18504THY    HP558673   5.255   8.951   3.655  0.3369 -4.0201 -1.5888
18504THY    HP658674   5.243   8.776   3.625  0.7488 -0.4911 -1.1890
18504THY    HP758675   5.380   8.842   3.709  0.1698 -0.7207 -1.0491
18504THY    CA358676   4.953   8.923   3.772  0.7229  0.4482 -0.0330
18504THY    HA358677   4.987   9.023   3.746 -1.1974  0.4689  0.6786
18504THY    CA458678   4.818   8.892   3.737  0.3751  0.4048  0.1476
18504THY    HA458679   4.744   8.965   3.707 -0.4437  0.6098 -0.5908
18504THY    CA558680   4.775   8.762   3.752 -0.2321 -0.7915  0.1421
18504THY    CM158681   4.642   8.725   3.718  0.3264  0.1041 -0.1511
18504THY    HM158682   4.573   8.810   3.719  1.7858  0.8858  1.0856
18504THY    HM258683   4.604   8.658   3.797  3.8312  0.0520 -2.4956
18504THY    HM358684   4.647   8.677   3.620  0.9206 -0.4641  1.0434
18504THY    CA658685   4.862   8.657   3.789  0.0324 -0.1520  0.0995
18504THY    HA658686   4.817   8.558   3.794  0.6368 -0.4160 -0.1976
18505THY      O58687   1.186   9.277   4.560 -0.2048 -0.0602  0.0535
18505THY     HO58688   1.271   9.300   4.519 -0.8347 -0.6791  1.3149
18505THY    CA158689   1.190   9.141   4.581  0.5324 -0.4022  0.7983
18505THY    CA258690   1.098   9.066   4.661  0.3585 -0.4049 -0.3541
18505THY    CP158691   0.978   9.138   4.726 -0.1976 -0.6388 -0.2966
18505THY    HP158692   0.947   9.221   4.662 -0.3163 -0.8509 -0.5021
18505THY    CP258693   1.031   9.190   4.860  0.1439 -0.3262  1.2083
18505THY    HP258694   0.965   9.268   4.899 -2.1438  0.9578 -1.1894
18505THY    HP358695   1.129   9.239   4.854  0.4151  0.5033  0.7832
18505THY    HP458696   1.035   9.106   4.930 -0.5908 -0.6342  0.9076
18505THY    CP358697   0.843   9.062   4.748 -0.7070 -0.5140  0.4298
18505THY    HP558698   0.841   8.974   4.813  0.5671 -1.0151  0.0180
18505THY    HP658699   0.805   9.024   4.652 -0.5601 -0.2357 -0.4365
18505THY    HP758700   0.765   9.126   4.791 -0.5441  3.8930 -1.9725
18505THY    CA358701   1.124   8.928   4.682  0.6186  0.4181  0.6995
18505THY    HA358702   1.067   8.868   4.752 -0.3169 -0.1267  0.9343
18505THY    CA458703   1.232   8.866   4.616  0.5633  0.0673 -0.1626
18505THY    HA458704   1.263   8.766   4.644  2.3296  0.8440  0.5655
18505THY    CA558705   1.324   8.943   4.539 -0.1068  0.0016  0.9205
18505THY    CM158706   1.437   8.871   4.473  0.3790  0.0704  0.6701
18505THY    HM158707   1.434   8.762   4.460  1.0902 -0.0883  0.6647
18505THY    HM258708   1.536   8.880   4.519 -0.2812  3.2243 -4.0469
18505THY    HM358709   1.432   8.898   4.367  0.9321 -0.0940  0.1615
18505THY    CA658710   1.299   9.077   4.513  0.2670  0.0891 -0.1909
18505THY    HA658711   1.364   9.136   4.449 -0.6338  0.4034  1.1745
18506THY      O58712   7.707   2.238   2.902  0.1999 -0.1385  0.1116
18506THY     HO58713   7.644   2.186   2.955  1.2181 -0.4547 -1.5190
18506THY    CA158714   7.644   2.362   2.873 -0.4056 -0.3815 -0.8788
18506THY    CA258715   7.675   2.437   2.756 -0.1062 -0.2327 -0.2299
18506THY    CP158716   7.783   2.390   2.653  0.2640  0.3534 -0.2781
18506THY    HP158717   7.868   2.355   2.713 -0.2062  1.4048  0.3445
18506THY    CP258718   7.843   2.504   2.573  0.8822  0.5525  0.2659
18506THY    HP258719   7.936   2.462   2.534  0.8684 -0.0484  0.7920
18506THY    HP358720   7.851   2.597   2.630 -0.1874  2.3110 -0.6479
18506THY    HP458721   7.774   2.526   2.491  1.6689  0.1854  1.4243
18506THY    CP358722   7.737   2.268   2.574  0.1298  0.1501  0.6646
18506THY    HP558723   7.638   2.281   2.528  0.0883  0.1381  0.3028
18506THY    HP658724   7.723   2.186   2.645 -0.2253  1.8041  2.0859
18506THY    HP758725   7.817   2.247   2.502  1.1794  0.4948  3.0509
18506THY    CA358726   7.605   2.554   2.728 -0.1582 -1.3344 -0.2379
18506THY    HA358727   7.612   2.613   2.637  1.8085 -0.3431  1.2060
18506THY    CA458728   7.497   2.589   2.816 -0.3628 -0.0766 -0.1533
18506THY    HA458729   7.450   2.681   2.782  2.1122 -1.8728  0.5767
18506THY    CA558730   7.476   2.523   2.942  0.4285  0.3438  1.0410
18506THY    CM158731   7.371   2.563   3.030  0.0662  0.3026  0.2342
18506THY    HM158732   7.315   2.472   3.056  0.0741  1.4648  0.5469
18506THY    HM258733   7.300   2.631   2.982 -1.0160  1.5594  0.0440
18506THY    HM358734   7.404   2.602   3.127  0.4384  0.4117 -0.3387
18506THY    CA658735   7.550   2.403   2.966  0.2908 -0.1088 -0.4351
18506THY    HA658736   7.522   2.337   3.047  0.0776  0.2968  0.1395
18507THY      O58737   7.881   1.683   6.995 -0.2548 -0.4733 -0.0354
18507THY     HO58738   7.973   1.709   6.978 -0.1423  0.6250  0.3704
18507THY    CA158739   7.858   1.729   7.116 -0.9081  0.0850 -0.6338
18507THY    CA258740   7.725   1.769   7.155 -0.6902 -0.1521  0.2467
18507THY    CP158741   7.606   1.745   7.057 -0.8468 -0.1456 -0.2388
18507THY    HP158742   7.613   1.659   6.990 -0.7796  1.7344 -1.7490
18507THY    CP258743   7.597   1.858   6.958 -0.2835 -0.8113  0.1140
18507THY    HP258744   7.687   1.870   6.896  1.8217  1.7025 -1.5034
18507THY    HP358745   7.596   1.950   7.017 -0.6083  1.0225 -1.0143
18507THY    HP458746   7.510   1.842   6.894 -0.9048  0.3984 -1.6548
18507THY    CP358747   7.473   1.723   7.131 -0.2498 -0.4436 -0.2296
18507THY    HP558748   7.451   1.810   7.194  0.5187 -0.4734 -0.0077
18507THY    HP658749   7.482   1.631   7.190  0.0159 -2.8126 -1.8032
18507THY    HP758750   7.391   1.711   7.059  0.6305 -1.8840  1.8857
18507THY    CA358751   7.715   1.817   7.288 -0.4953 -0.6371  0.0075
18507THY    HA358752   7.617   1.836   7.331 -1.0719 -1.7946 -0.2906
18507THY    CA458753   7.829   1.829   7.371 -0.4429 -0.1320  0.0376
18507THY    HA458754   7.819   1.868   7.472 -0.0351  0.4333 -1.2704
18507THY    CA558755   7.954   1.796   7.323  0.2659  0.1417 -0.5264
18507THY    CM158756   8.079   1.789   7.411  0.1952 -0.1609  0.3733
18507THY    HM158757   8.097   1.682   7.428 -2.6232 -0.0574 -0.1726
18507THY    HM258758   8.071   1.839   7.509  0.5144  0.4584 -0.7529
18507THY    HM358759   8.160   1.825   7.348 -0.3875  0.5499  3.2294
18507THY    CA658760   7.965   1.748   7.193 -0.1897  0.0717 -0.2422
18507THY    HA658761   8.066   1.726   7.162  0.7453  3.8274 -1.8700
18508THY      O58762   8.953   7.080   3.987  0.5273  0.3794  0.3377
18508THY     HO58763   8.884   7.148   3.987 -0.5376 -1.5744 -0.6323
18508THY    CA158764   9.046   7.110   3.902  0.3417  0.3084 -0.1140
18508THY    CA258765   9.152   7.025   3.869  0.4095 -0.2339  0.4660
18508THY    CP158766   9.168   6.887   3.940  0.2724 -0.2257  0.3409
18508THY    HP158767   9.124   6.901   4.040  0.3138 -0.1922  0.2358
18508THY    CP258768   9.306   6.827   3.973  0.4166  0.5660 -0.5597
18508THY    HP258769   9.374   6.908   4.004 -0.4122  2.2404 -0.4666
18508THY    HP358770   9.355   6.796   3.880 -0.8443 -1.3806  2.7137
18508THY    HP458771   9.300   6.754   4.054  0.2019  0.7035 -0.3913
18508THY    CP358772   9.085   6.772   3.872 -0.6119  0.1712 -0.9153
18508THY    HP558773   9.120   6.730   3.777  1.6327  0.0372  1.0339
18508THY    HP658774   8.984   6.812   3.859 -0.1152 -1.0970  0.0092
18508THY    HP758775   9.070   6.693   3.946 -0.4531  0.8649 -0.3180
18508THY    CA358776   9.247   7.072   3.779 -0.8764 -0.3492 -0.5354
18508THY    HA358777   9.340   7.022   3.753  0.1780 -2.0343  2.0502
18508THY    CA458778   9.247   7.204   3.732 -0.1984 -0.2284 -0.2311
18508THY    HA458779   9.325   7.240   3.666 -0.3386  0.9960  2.6108
18508THY    CA558780   9.144   7.292   3.774 -0.2863  0.1518  0.7925
18508THY    CM158781   9.162   7.440   3.739  0.3262 -0.1587  0.1014
18508THY    HM158782   9.262   7.483   3.757  0.3820 -1.5710  0.5970
18508THY    HM258783   9.092   7.504   3.795 -2.4228 -1.9422 -1.1718
18508THY    HM358784   9.140   7.471   3.637  0.0700 -0.0168  0.3968
18508THY    CA658785   9.044   7.243   3.853 -0.0143 -0.5421  0.0796
18508THY    HA658786   8.957   7.302   3.879 -0.4882  1.1128 -1.2643
18509THY      O58787   8.661   4.191   1.937 -0.5669  0.2489  0.3937
18509THY     HO58788   8.625   4.107   1.970 -0.3400  0.8719  0.5364
18509THY    CA158789   8.789   4.174   1.917 -0.2211 -0.1239  0.2985
18509THY    CA258790   8.877   4.273   1.869  0.6585 -1.0042  0.1634
18509THY    CP158791   8.818   4.415   1.829  0.1370 -0.2643  0.3956
18509THY    HP158792   8.715   4.425   1.866  0.1256 -0.1907  0.0015
18509THY    CP258793   8.825   4.431   1.675 -1.3299 -0.6183  0.3907
18509THY    HP258794   8.926   4.450   1.637 -0.2082  1.1036 -1.6918
18509THY    HP358795   8.762   4.515   1.644 -1.1140 -0.0840  0.7546
18509THY    HP458796   8.801   4.330   1.638 -0.1675 -0.8991  0.2060
18509THY    CP358797   8.893   4.529   1.885 -0.0214 -0.1456 -0.1318
18509THY    HP558798   8.915   4.521   1.992  3.6809 -0.7849 -0.2293
18509THY    HP658799   8.844   4.625   1.860 -0.0150 -1.2136 -0.3914
18509THY    HP758800   8.990   4.532   1.835 -0.4949 -1.0652  0.5870
18509THY    CA358801   9.015   4.252   1.868 -0.0202 -0.0284 -0.0851
18509THY    HA358802   9.076   4.338   1.847 -2.1627  0.2024  1.5714
18509THY    CA458803   9.056   4.127   1.914  0.4711 -0.0886  0.1544
18509THY    HA458804   9.163   4.109   1.906  0.5343  1.7586 -0.5573
18509THY    CA558805   8.970   4.016   1.936  0.0481 -0.9900 -0.3274
18509THY    CM158806   9.028   3.885   1.980  0.7252  0.3258 -0.2159
18509THY    HM158807   8.943   3.817   1.979 -0.9224  1.4298  1.6989
18509THY    HM258808   9.071   3.883   2.081  0.3558  0.5005  0.3594
18509THY    HM358809   9.103   3.852   1.906  0.1786 -1.0264  1.4143
18509THY    CA658810   8.837   4.045   1.941  0.0334  1.1920  0.4503
18509THY    HA658811   8.765   3.970   1.974 -0.0430 -1.3847 -0.6878
18510THY      O58812   2.113   6.496   2.588 -0.0612 -0.1030 -0.0204
18510THY     HO58813   2.126   6.449   2.504 -2.0299 -1.2814  1.3619
18510THY    CA158814   2.187   6.612   2.587  0.0914  0.0797  0.7180
18510THY    CA258815   2.204   6.693   2.705 -0.0606 -0.4380  0.2533
18510THY    CP158816   2.146   6.644   2.835  0.1409  0.1092 -0.0881
18510THY    HP158817   2.067   6.575   2.804 -0.0647  2.4498 -0.9996
18510THY    CP258818   2.079   6.762   2.915  1.0593 -0.6125  0.5453
18510THY    HP258819   2.020   6.727   3.001  2.5713  0.6605  1.0090
18510THY    HP358820   2.021   6.822   2.844  1.8583 -1.6542  0.1082
18510THY    HP458821   2.156   6.825   2.961  0.6938  1.6661 -0.5364
18510THY    CP358822   2.249   6.572   2.922 -0.2360 -0.1326  0.3001
18510THY    HP558823   2.208   6.499   2.993 -3.8145 -1.5126  0.7889
18510THY    HP658824   2.295   6.647   2.987 -0.6730  3.2508 -2.1113
18510THY    HP758825   2.328   6.528   2.859  1.7956  1.3575  1.6224
18510THY    CA358826   2.279   6.816   2.690  0.4607 -0.0833  0.4333
18510THY    HA358827   2.294   6.875   2.780 -1.4718  0.8335 -0.3651
18510THY    CA458828   2.321   6.856   2.562 -0.0464 -0.1099  0.9049
18510THY    HA458829   2.365   6.953   2.545  1.6777  0.4066  0.2545
18510THY    CA558830   2.291   6.770   2.449 -0.3681 -0.1678  0.5302
18510THY    CM158831   2.343   6.798   2.308 -0.2385  0.0329 -0.2931
18510THY    HM158832   2.421   6.726   2.282  0.4132  0.9668  0.0521
18510THY    HM258833   2.389   6.897   2.299 -0.1546  1.6205 -0.1568
18510THY    HM358834   2.265   6.781   2.233  1.5147 -1.2728 -3.3891
18510THY    CA658835   2.220   6.651   2.461 -0.3417  0.3269 -0.1417
18510THY    HA658836   2.200   6.585   2.377 -1.0406  1.0234 -0.8298
18511THY      O58837   1.190   9.148   7.200  0.2696 -0.7688 -0.8089
18511THY     HO58838   1.202   9.243   7.213 -2.0389  1.5085 -0.7223
18511THY    CA158839   1.206   9.099   7.322  0.2676  0.5095  0.2387
18511THY    CA258840   1.114   9.002   7.367 -0.2451 -0.2047  0.0089
18511THY    CP158841   0.986   8.961   7.292  0.5499  0.1266 -0.3125
18511THY    HP158842   1.019   8.963   7.187  0.5647  0.1432  0.9876
18511THY    CP258843   0.872   9.062   7.301  0.6578  0.6141  0.1236
18511THY    HP258844   0.799   9.021   7.231  2.2224 -1.5580  0.8981
18511THY    HP358845   0.900   9.157   7.255  1.6279 -0.3893 -0.6290
18511THY    HP458846   0.838   9.086   7.403 -0.1087 -0.0187  1.8626
18511THY    CP358847   0.932   8.818   7.303  0.6459 -0.0059  0.1129
18511THY    HP558848   1.020   8.754   7.290 -0.2524  0.4013 -1.2374
18511THY    HP658849   0.847   8.806   7.234  0.7263  0.2239 -2.1504
18511THY    HP758850   0.888   8.803   7.402 -0.3621 -0.4453  0.1086
18511THY    CA358851   1.131   8.947   7.496  1.0550 -0.3306 -0.2079
18511THY    HA358852   1.052   8.886   7.540 -0.1625 -1.6620  0.3430
18511THY    CA458853   1.239   8.983   7.570 -0.2906  0.4319  0.0060
18511THY    HA458854   1.247   8.963   7.677  0.3091  1.1634  3.5187
18511THY    CA558855   1.347   9.063   7.514 -0.1041 -0.2408  0.8629
18511THY    CM158856   1.466   9.096   7.600 -0.1313  0.8408 -0.2700
18511THY    HM158857   1.512   9.001   7.626 -0.8878  2.5942 -0.1964
18511THY    HM258858   1.441   9.143   7.696  3.2941  1.6257  0.1865
18511THY    HM358859   1.531   9.168   7.549  1.9075 -0.7636 -3.0473
18511THY    CA658860   1.327   9.121   7.392  0.7240 -1.5375  0.5269
18511THY    HA658861   1.382   9.206   7.354 -0.7491 -2.0626  1.2854
18512THY      O58862   8.754   5.142   2.512 -0.6932  0.0366 -0.1822
18512THY     HO58863   8.811   5.219   2.497 -0.3853  0.6294 -0.2883
18512THY    CA158864   8.654   5.186   2.594  0.3007 -0.3397  0.8965
18512THY    CA258865   8.562   5.098   2.658  0.3016  0.2952  0.1420
18512THY    CP158866   8.562   4.952   2.618 -0.0700  0.5368  0.0736
18512THY    HP158867   8.646   4.920   2.555  1.4427  1.1604  2.5688
18512THY    CP258868   8.431   4.926   2.553  1.0287  0.3381 -0.6054
18512THY    HP258869   8.429   4.820   2.524  2.1141 -1.7588 -0.1166
18512THY    HP358870   8.433   4.987   2.462  0.4779  1.6487  1.4455
18512THY    HP458871   8.346   4.954   2.615  0.8013  0.0195 -0.5835
18512THY    CP358872   8.579   4.866   2.738  0.6326 -0.6141 -0.0549
18512THY    HP558873   8.665   4.895   2.799 -1.3728  1.6253  1.5464
18512THY    HP658874   8.589   4.761   2.707 -2.0498  2.6263 -1.4457
18512THY    HP758875   8.497   4.891   2.806 -0.2603 -1.9815  0.8852
18512THY    CA358876   8.472   5.156   2.741 -0.6297  0.1146 -0.0015
18512THY    HA358877   8.408   5.089   2.799  0.2762  0.7030 -0.3679
18512THY    CA458878   8.463   5.298   2.761 -0.2445  0.7007  0.2681
18512THY    HA458879   8.394   5.341   2.834 -0.8954 -0.5862  1.4768
18512THY    CA558880   8.563   5.380   2.707  0.1901 -0.0565 -0.6580
18512THY    CM158881   8.574   5.529   2.748 -0.3163 -0.0190 -0.0660
18512THY    HM158882   8.480   5.570   2.709 -0.6128  0.4265 -0.3151
18512THY    HM258883   8.644   5.588   2.687 -3.1905 -2.3183  1.2139
18512THY    HM358884   8.595   5.543   2.855  1.0612 -0.1711 -0.7905
18512THY    CA658885   8.655   5.326   2.621  0.0547  0.4799  0.6031
18512THY    HA658886   8.732   5.389   2.578 -0.1078 -0.1095  0.4101
18513THY      O58887   0.890   3.481   6.259  0.2831  0.3695 -0.1400
18513THY     HO58888   0.958   3.420   6.293 -0.2359  0.6298 -0.5826
18513THY    CA158889   0.781   3.484   6.330 -0.1735  0.5258 -0.1327
18513THY    CA258890   0.696   3.591   6.333 -0.0623 -0.2127 -1.0535
18513THY    CP158891   0.718   3.708   6.237  0.0679 -0.2044 -0.6341
18513THY    HP158892   0.759   3.659   6.148 -0.9814 -0.2762 -1.4188
18513THY    CP258893   0.818   3.813   6.290  0.2421 -0.0520 -0.3054
18513THY    HP258894   0.917   3.765   6.296 -0.2901  0.8922 -1.3457
18513THY    HP358895   0.772   3.837   6.387 -0.6660  0.8481 -4.7542
18513THY    HP458896   0.833   3.890   6.214 -0.0342 -0.0937 -0.2920
18513THY    CP358897   0.587   3.783   6.194  0.5430 -0.4705  0.2003
18513THY    HP558898   0.622   3.858   6.122  1.5401  0.6069  0.8256
18513THY    HP658899   0.531   3.822   6.281 -0.9452 -0.3413 -2.0590
18513THY    HP758900   0.525   3.719   6.131  2.0985 -2.0653  0.1911
18513THY    CA358901   0.590   3.587   6.430 -0.1716 -0.4596  0.5824
18513THY    HA358902   0.519   3.669   6.442 -1.8976 -1.0434 -0.7462
18513THY    CA458903   0.576   3.474   6.511  1.0187  0.4777 -0.0538
18513THY    HA458904   0.501   3.470   6.590  1.4147  0.8876  0.4207
18513THY    CA558905   0.652   3.363   6.494  0.2214  0.3243 -0.2021
18513THY    CM158906   0.631   3.235   6.574  0.4378 -0.3108 -0.1526
18513THY    HM158907   0.606   3.150   6.509  0.1828 -0.8193  0.3030
18513THY    HM258908   0.545   3.250   6.642  0.5898 -0.3674  1.1197
18513THY    HM358909   0.723   3.217   6.631  0.1013  0.1416 -0.4851
18513THY    CA658910   0.763   3.371   6.412 -0.0396  0.7903  0.5472
18513THY    HA658911   0.839   3.293   6.417  1.8280 -1.3692  2.0952
18514THY      O58912   6.564   9.531   5.620  0.5086  0.1838 -0.3990
18514THY     HO58913   6.505   9.560   5.692 -4.5719 -3.2476 -0.7689
18514THY    CA158914   6.668   9.465   5.673 -0.4563  0.6190  0.2292
18514THY    CA258915   6.761   9.399   5.588  0.1634  0.5741  0.4479
18514THY    CP158916   6.748   9.407   5.435  0.0351 -0.5776 -0.6997
18514THY    HP158917   6.680   9.488   5.406  1.0106  0.2961  0.4907
18514THY    CP258918   6.688   9.284   5.377 -0.5957  0.7008 -0.3868
18514THY    HP258919   6.678   9.303   5.269 -0.1459  0.7109 -0.0769
18514THY    HP358920   6.594   9.263   5.429 -0.6705  0.4815 -0.5980
18514THY    HP458921   6.760   9.203   5.394 -2.6260 -0.4672 -2.5715
18514THY    CP358922   6.880   9.442   5.366  0.0463 -0.1432  0.1561
18514THY    HP558923   6.943   9.518   5.414 -0.4837 -1.9505  1.8333
18514THY    HP658924   6.860   9.465   5.260 -2.4355 -0.0194 -1.0589
18514THY    HP758925   6.934   9.347   5.361 -1.6808  2.8081 -1.1283
18514THY    CA358926   6.859   9.313   5.644  0.0959  0.4918 -0.2324
18514THY    HA358927   6.932   9.259   5.585  0.1313  1.2691 -1.0529
18514THY    CA458928   6.859   9.300   5.783  0.4116 -0.0177 -0.2770
18514THY    HA458929   6.936   9.239   5.831  0.0702  0.0297 -0.6703
18514THY    CA558930   6.773   9.374   5.870  0.2800  0.2448 -0.4104
18514THY    CM158931   6.781   9.365   6.016 -0.5451  0.3385 -0.0161
18514THY    HM158932   6.742   9.269   6.053 -1.5671 -2.7690 -0.9052
18514THY    HM258933   6.723   9.445   6.064 -0.7683  3.1856 -1.7272
18514THY    HM358934   6.886   9.385   6.040 -0.1261 -1.0330 -0.4891
18514THY    CA658935   6.673   9.453   5.815  0.2989 -0.0744  0.4963
18514THY    HA658936   6.602   9.501   5.883 -1.1783 -1.8350  0.9246
18515THY      O58937   4.953   7.386   3.240 -0.4616  0.0696 -0.2627
18515THY     HO58938   4.918   7.324   3.174 -2.1582 -0.3807  1.0995
18515THY    CA158939   5.084   7.347   3.257  0.2000  0.0802 -0.6637
18515THY    CA258940   5.170   7.413   3.343 -0.1281  0.3479 -0.4155
18515THY    CP158941   5.121   7.520   3.443  0.6288  0.6241 -0.4527
18515THY    HP158942   5.012   7.520   3.451  0.3106 -2.5950  0.4278
18515THY    CP258943   5.168   7.657   3.392 -0.3369 -0.1179  0.3847
18515THY    HP258944   5.117   7.736   3.449 -1.1192 -1.1065  0.6141
18515THY    HP358945   5.126   7.675   3.292 -0.5288  0.1649  1.5804
18515THY    HP458946   5.275   7.678   3.399  0.8244 -4.6568 -2.4361
18515THY    CP358947   5.160   7.514   3.602  0.0883  0.6007 -0.2019
18515THY    HP558948   5.260   7.478   3.624 -0.3100 -1.0076 -2.5074
18515THY    HP658949   5.098   7.440   3.654 -0.8889 -1.3375 -0.8112
18515THY    HP758950   5.142   7.613   3.646  1.9260  1.9006 -0.4133
18515THY    CA358951   5.301   7.362   3.362  0.4689  0.0831 -0.2297
18515THY    HA358952   5.368   7.396   3.440  0.9864  0.8451 -2.7925
18515THY    CA458953   5.343   7.258   3.282 -0.6211 -0.6087  0.7210
18515THY    HA458954   5.445   7.224   3.296 -0.5011 -1.4000  0.7206
18515THY    CA558955   5.257   7.193   3.188 -0.5255  0.0475  0.1980
18515THY    CM158956   5.322   7.094   3.088  0.3130  0.3337  0.2128
18515THY    HM158957   5.339   7.141   2.991 -0.7260  0.8816  1.7899
18515THY    HM258958   5.249   7.015   3.065 -0.4030 -2.3184  1.5456
18515THY    HM358959   5.414   7.056   3.133  0.4461 -0.4634 -0.4550
18515THY    CA658960   5.126   7.240   3.179  0.2123  0.7271  0.4135
18515THY    HA658961   5.062   7.196   3.103  1.4873 -0.0300 -0.1854
18516THY      O58962   6.705   3.167   7.772 -0.4939  0.5587  0.0612
18516THY     HO58963   6.675   3.242   7.718 -1.4688 -0.3679 -0.9615
18516THY    CA158964   6.768   3.082   7.683 -0.3318 -0.2969  0.1579
18516THY    CA258965   6.726   2.950   7.670 -0.3427 -0.1917 -0.0518
18516THY    CP158966   6.626   2.888   7.776  0.3317 -0.2497  0.1153
18516THY    HP158967   6.580   2.964   7.840  0.7955  2.7101 -1.9219
18516THY    CP258968   6.696   2.798   7.880 -0.0266  0.2290 -0.0160
18516THY    HP258969   6.739   2.723   7.814 -0.6764 -0.5694  0.2990
18516THY    HP358970   6.630   2.759   7.958  0.1766  0.7866  0.7241
18516THY    HP458971   6.772   2.854   7.936 -1.7592  1.7177  0.9835
18516THY    CP358972   6.497   2.823   7.709 -0.3834  0.3029  0.2282
18516THY    HP558973   6.419   2.835   7.785  0.1495  0.6082  2.1223
18516THY    HP658974   6.500   2.716   7.685 -2.6127 -0.3056  0.2507
18516THY    HP758975   6.466   2.878   7.619  0.8761 -1.7021 -2.1540
18516THY    CA358976   6.790   2.875   7.566  0.7121 -0.3235  0.1973
18516THY    HA358977   6.772   2.769   7.551  0.4481 -2.6257  0.5238
18516THY    CA458978   6.874   2.941   7.470  0.2723  0.1070 -0.5431
18516THY    HA458979   6.925   2.892   7.387 -0.7579 -0.7883 -0.1447
18516THY    CA558980   6.905   3.082   7.482 -1.1663 -1.2183  0.7573
18516THY    CM158981   7.001   3.147   7.387  0.3570  0.6801 -0.8186
18516THY    HM158982   6.979   3.126   7.282 -0.4494  0.0668  2.4462
18516THY    HM258983   7.101   3.112   7.416  0.4063  1.8668  0.2223
18516THY    HM358984   7.014   3.256   7.395 -1.3779  0.0172 -0.5278
18516THY    CA658985   6.844   3.150   7.585  0.9624  0.4519  0.2285
18516THY    HA658986   6.870   3.256   7.581 -1.0956  1.5125  0.8165
18517THY      O58987   2.051   1.985   3.475  0.0851 -0.8028 -0.6034
18517THY     HO58988   2.043   1.898   3.518  1.0024  1.0203  0.1579
18517THY    CA158989   2.180   1.982   3.441 -0.4471  0.4819  0.7975
18517THY    CA258990   2.228   2.062   3.334  0.3454  0.8496  0.0851
18517THY    CP158991   2.129   2.120   3.237 -0.3306  0.9580  0.0838
18517THY    HP158992   2.038   2.153   3.288 -0.7794  0.4627 -0.3653
18517THY    CP258993   2.101   2.016   3.124 -0.0281  0.2571 -0.4044
18517THY    HP258994   2.043   1.934   3.167 -0.9095  0.9539  0.5641
18517THY    HP358995   2.197   1.993   3.076  0.0133  0.6890 -1.1317
18517THY    HP458996   2.042   2.051   3.038 -1.3805  1.3394  0.0387
18517THY    CP358997   2.167   2.247   3.161  0.8695 -0.5601 -0.1043
18517THY    HP558998   2.235   2.303   3.225 -0.2569 -0.9432  1.7767
18517THY    HP658999   2.074   2.302   3.144  1.0126  0.7507  0.5785
18517THY    HP759000   2.228   2.217   3.075  0.4274 -0.2905 -1.9400
18517THY    CA359001   2.363   2.055   3.307 -0.1470  0.3524 -0.6520
18517THY    HA359002   2.409   2.113   3.228 -2.2504  0.8825  1.9506
18517THY    CA459003   2.448   1.993   3.400  0.2108 -0.3831  0.3059
18517THY    HA459004   2.553   1.979   3.378  0.2354  1.0503 -2.4586
18517THY    CA559005   2.397   1.925   3.508 -0.2328 -0.5684 -1.0027
18517THY    CM159006   2.482   1.839   3.602  0.1483 -0.5615 -0.2990
18517THY    HM159007   2.471   1.730   3.602  0.7498 -2.0535 -0.3875
18517THY    HM259008   2.468   1.878   3.703 -0.2075  0.1614 -2.2020
18517THY    HM359009   2.586   1.864   3.577  0.1226  0.1884  0.6015
18517THY    CA659010   2.262   1.912   3.521  0.4045  0.3026  0.3053
18517THY    HA659011   2.223   1.852   3.603 -0.9059 -0.5921 -0.1213
18518THY      O59012   1.004   4.560   4.882 -0.0261  0.1383  0.1761
18518THY     HO59013   1.018   4.470   4.917 -0.8924 -1.5244 -0.6657
18518THY    CA159014   1.125   4.614   4.899  0.9672 -0.0976  0.2025
18518THY    CA259015   1.168   4.732   4.841 -0.5463  0.0357  0.3237
18518THY    CP159016   1.086   4.823   4.756 -0.7779  0.3559  0.0220
18518THY    HP159017   0.988   4.778   4.733 -0.5434 -1.4550  0.3381
18518THY    CP259018   1.135   4.847   4.611 -1.3140  0.3667  0.6228
18518THY    HP259019   1.184   4.755   4.576 -0.2012  0.6837  1.0673
18518THY    HP359020   1.214   4.924   4.616 -0.3342  1.0588 -0.3894
18518THY    HP459021   1.057   4.887   4.546 -1.2666  0.6643  1.2121
18518THY    CP359022   1.068   4.957   4.820 -0.4151 -0.8329  0.6378
18518THY    HP559023   0.999   5.014   4.757  0.2788 -0.6101  1.7534
18518THY    HP659024   1.157   5.021   4.812 -0.7510  0.9475  1.3820
18518THY    HP759025   1.037   4.952   4.925  2.7792  0.2672  1.2275
18518THY    CA359026   1.304   4.778   4.858  0.3547  0.4989  0.0682
18518THY    HA359027   1.332   4.878   4.829  1.3699  0.9011 -0.0866
18518THY    CA459028   1.383   4.700   4.940 -0.2627  0.3968  0.0255
18518THY    HA459029   1.483   4.738   4.959  0.0926 -1.6988  0.3006
18518THY    CA559030   1.342   4.580   4.983 -0.5613 -0.7248 -0.1275
18518THY    CM159031   1.442   4.496   5.059 -0.7512 -0.7670  0.3586
18518THY    HM159032   1.426   4.510   5.166  1.7825 -0.3512  0.4624
18518THY    HM259033   1.545   4.509   5.026  0.2963  2.3143  0.4911
18518THY    HM359034   1.427   4.392   5.026  1.0246 -1.6623  0.3566
18518THY    CA659035   1.214   4.533   4.958 -0.4558 -0.2928 -0.0537
18518THY    HA659036   1.195   4.431   4.990 -0.9221  1.5694  0.5959
18519THY      O59037   5.425   9.025   6.687  0.3147 -0.3819 -0.3022
18519THY     HO59038   5.461   8.990   6.770  1.4552  0.6841  3.0014
18519THY    CA159039   5.449   8.932   6.588 -0.4538  0.5725  0.4693
18519THY    CA259040   5.395   8.941   6.459  0.5435 -0.2335  0.4917
18519THY    CP159041   5.308   9.069   6.431 -0.3182  0.5963  1.0241
18519THY    HP159042   5.360   9.148   6.487  1.5996  1.4060 -0.7124
18519THY    CP259043   5.168   9.057   6.494  0.1284  0.0031  0.4047
18519THY    HP259044   5.103   9.132   6.448 -2.2032  1.9948 -0.2743
18519THY    HP359045   5.176   9.085   6.600  3.7421  0.2286 -0.9657
18519THY    HP459046   5.125   8.957   6.500  2.5799  0.3127 -0.7141
18519THY    CP359047   5.288   9.104   6.277  0.8147  0.8160  0.0957
18519THY    HP559048   5.227   9.195   6.274 -2.1631  1.8675 -1.7255
18519THY    HP659049   5.235   9.029   6.218 -0.6550  0.0801  1.6376
18519THY    HP759050   5.383   9.128   6.229 -0.6152 -2.1851  0.2126
18519THY    CA359051   5.424   8.851   6.351  0.7387 -0.5857  0.4359
18519THY    HA359052   5.378   8.866   6.254  0.1918 -0.1768  1.5446
18519THY    CA459053   5.510   8.743   6.379  0.5994  0.8873  0.4190
18519THY    HA459054   5.528   8.666   6.304  1.0224  0.8668  0.5384
18519THY    CA559055   5.575   8.738   6.499  0.5168 -1.0298  0.1943
18519THY    CM159056   5.659   8.620   6.522 -0.2648  0.4068 -0.3066
18519THY    HM159057   5.738   8.650   6.592 -1.4515  1.7353 -0.1970
18519THY    HM259058   5.722   8.609   6.433  0.8517  1.3379 -2.0029
18519THY    HM359059   5.607   8.524   6.535 -3.4477  1.0320  1.3821
18519THY    CA659060   5.546   8.833   6.604 -0.9230  0.5151 -0.7125
18519THY    HA659061   5.606   8.827   6.695  0.0210 -0.0436 -0.0071
18520THY      O59062   3.856   1.500   5.727 -0.2065 -0.5765 -0.1767
18520THY     HO59063   3.858   1.534   5.636  1.1101 -1.2896 -2.0128
18520THY    CA159064   3.799   1.375   5.703 -0.3244  0.5573  0.4362
18520THY    CA259065   3.734   1.297   5.803  0.2430  0.3257 -0.3626
18520THY    CP159066   3.738   1.354   5.950  0.2864  0.2964  0.1080
18520THY    HP159067   3.736   1.464   5.945  1.8614  0.8284  0.1782
18520THY    CP259068   3.866   1.313   6.011 -0.0901 -0.3613  0.3795
18520THY    HP259069   3.880   1.204   6.002  0.0749  1.0494  0.2580
18520THY    HP359070   3.866   1.342   6.117 -1.5743 -0.3562  0.4504
18520THY    HP459071   3.951   1.365   5.965  0.2505  1.9903  2.0504
18520THY    CP359072   3.625   1.295   6.033 -0.3215 -0.0261 -0.3021
18520THY    HP559073   3.616   1.351   6.127 -1.9919 -1.6770  2.4467
18520THY    HP659074   3.650   1.191   6.055 -0.4772 -0.0634 -0.3466
18520THY    HP759075   3.530   1.311   5.981  0.4565 -2.0474 -1.8558
18520THY    CA359076   3.683   1.171   5.771  1.0470 -0.1495 -0.3383
18520THY    HA359077   3.636   1.118   5.853 -0.2945  0.5550  1.7915
18520THY    CA459078   3.690   1.130   5.640  0.2849 -0.1274 -0.1920
18520THY    HA459079   3.632   1.043   5.610 -1.8963  0.1677  1.0813
18520THY    CA559080   3.760   1.206   5.539 -0.2236 -0.5125 -0.2898
18520THY    CM159081   3.774   1.165   5.395 -0.2433  0.7351  0.3328
18520THY    HM159082   3.713   1.227   5.328  0.7392 -1.3693 -0.8631
18520THY    HM259083   3.750   1.058   5.396  1.3518  0.8731 -0.0519
18520THY    HM359084   3.879   1.170   5.365 -0.3570  0.4816  1.4736
18520THY    CA659085   3.804   1.331   5.574 -0.3780  0.2784  0.5900
18520THY    HA659086   3.854   1.392   5.499  1.1280  0.2412 -0.6245
18521THY      O59087   2.997   9.006   3.186 -0.4518 -0.3300 -0.5122
18521THY     HO59088   2.933   8.954   3.237 -2.1229 -0.6357  1.1210
18521THY    CA159089   3.117   8.940   3.186  0.0255 -0.1176  0.3015
18521THY    CA259090   3.240   8.997   3.211  0.0153 -0.1399  0.0728
18521THY    CP159091   3.249   9.148   3.223 -0.4465 -0.3778 -0.4035
18521THY    HP159092   3.183   9.185   3.143 -2.6871  0.5659 -2.1124
18521THY    CP259093   3.390   9.210   3.203 -0.4603 -0.1404  0.5322
18521THY    HP259094   3.419   9.168   3.106  0.5097  0.9993 -1.6468
18521THY    HP359095   3.465   9.176   3.276  1.6376 -2.7081 -0.7980
18521THY    HP459096   3.387   9.319   3.196 -2.0028  1.2188  0.6147
18521THY    CP359097   3.205   9.209   3.359  0.0014 -0.2437 -0.2599
18521THY    HP559098   3.267   9.161   3.436 -0.8386 -0.1731 -1.2496
18521THY    HP659099   3.101   9.185   3.381 -0.0729  0.7673  0.8926
18521THY    HP759100   3.208   9.319   3.358 -1.8776 -0.9986 -0.1825
18521THY    CA359101   3.350   8.912   3.242 -0.3919  0.1939 -0.1520
18521THY    HA359102   3.446   8.952   3.271 -1.1453  2.0937  0.3543
18521THY    CA459103   3.337   8.772   3.234  0.5114 -0.3430  0.3033
18521THY    HA459104   3.419   8.706   3.259 -0.0519 -0.6577 -0.5224
18521THY    CA559105   3.218   8.715   3.208 -0.1099  0.2204  0.0105
18521THY    CM159106   3.203   8.568   3.233 -0.0619  0.4473 -0.7265
18521THY    HM159107   3.105   8.528   3.205 -0.8171  2.7602 -0.6095
18521THY    HM259108   3.209   8.548   3.340  0.4119  0.5800  0.0653
18521THY    HM359109   3.289   8.518   3.187  0.8776 -0.8912  1.9432
18521THY    CA659110   3.105   8.801   3.183  0.1221 -0.2193  0.2688
18521THY    HA659111   3.006   8.759   3.170  0.8658 -1.2808 -1.2381
18522THY      O59112   7.328   6.911   3.925 -0.2471  0.0946 -0.6292
18522THY     HO59113   7.302   6.956   4.007 -0.2996  1.1743 -2.5376
18522THY    CA159114   7.296   6.994   3.818 -0.4301 -0.5247  0.3324
18522THY    CA259115   7.290   7.132   3.834  0.1675  0.0613 -0.1506
18522THY    CP159116   7.314   7.197   3.976 -0.5531  0.2566  0.3298
18522THY    HP159117   7.329   7.127   4.059  0.4763  0.8739  1.2527
18522THY    CP259118   7.205   7.295   4.024 -0.6006  0.1089  0.4451
18522THY    HP259119   7.105   7.255   4.047 -0.3063  0.8205  0.1116
18522THY    HP359120   7.190   7.375   3.951  1.7801  0.0800  0.9167
18522THY    HP459121   7.244   7.340   4.115 -0.6387 -0.5508  1.8498
18522THY    CP359122   7.444   7.281   3.977  0.2903  0.0922  0.0205
18522THY    HP559123   7.428   7.387   3.951 -0.3961 -1.1053 -0.3593
18522THY    HP659124   7.520   7.252   3.904 -0.5835 -1.2389  0.9667
18522THY    HP759125   7.496   7.273   4.073  0.5324  0.0084  0.5522
18522THY    CA359126   7.270   7.214   3.717  0.2409 -0.7262  0.0695
18522THY    HA359127   7.270   7.322   3.721  0.2545  2.0850  0.0287
18522THY    CA459128   7.245   7.147   3.593 -0.7335  0.8134 -0.5542
18522THY    HA459129   7.216   7.208   3.508  2.0033  0.2613  0.1057
18522THY    CA559130   7.257   7.005   3.587  0.9591  0.2934  0.3557
18522THY    CM159131   7.247   6.937   3.457  0.2706  0.4403 -0.2551
18522THY    HM159132   7.340   6.925   3.401 -0.3227 -0.4000 -1.1345
18522THY    HM259133   7.179   6.978   3.381  0.3759  0.6944  0.3947
18522THY    HM359134   7.220   6.833   3.476  0.4853 -0.8339 -0.5635
18522THY    CA659135   7.279   6.929   3.699 -0.4706 -0.2649 -0.5152
18522THY    HA659136   7.307   6.825   3.700  1.6061  0.3548  0.0009
18523THY      O59137   6.734   4.782   5.296  0.2287  0.2832  0.2572
18523THY     HO59138   6.763   4.698   5.256 -0.6460 -1.2344  0.6486
18523THY    CA159139   6.849   4.828   5.354  0.2194 -0.4641 -0.6569
18523THY    CA259140   6.859   4.957   5.401 -0.5616 -0.4189 -0.3043
18523THY    CP159141   6.733   5.052   5.406 -0.2546  0.3647 -0.0180
18523THY    HP159142   6.648   4.988   5.380 -1.0755  1.1458  0.7266
18523THY    CP259143   6.739   5.169   5.305 -0.5553  0.8978  0.0389
18523THY    HP259144   6.831   5.228   5.298 -0.2631 -3.2223 -0.5833
18523THY    HP359145   6.667   5.249   5.323 -0.6200  0.4418  0.0910
18523THY    HP459146   6.734   5.124   5.205  0.5353  0.6675  0.4045
18523THY    CP359147   6.707   5.107   5.546  0.5980 -0.0976 -0.0874
18523THY    HP559148   6.728   5.032   5.623  2.4760 -0.3936  0.0818
18523THY    HP659149   6.607   5.150   5.553  1.5757 -3.1789  3.1844
18523THY    HP759150   6.784   5.185   5.550  3.2426 -2.9404 -2.2911
18523THY    CA359151   6.986   5.006   5.451  0.1737  0.2482  0.1593
18523THY    HA359152   6.994   5.107   5.489  0.9712  0.6672 -0.0525
18523THY    CA459153   7.089   4.920   5.467  0.4426 -0.2891 -0.3627
18523THY    HA459154   7.185   4.953   5.506 -0.2231  0.7606  0.4275
18523THY    CA559155   7.072   4.786   5.434  0.5049  0.5438 -0.1140
18523THY    CM159156   7.175   4.680   5.473  0.3498  0.2474 -0.1916
18523THY    HM159157   7.214   4.615   5.394 -0.5515  0.7087 -1.3273
18523THY    HM259158   7.136   4.612   5.550 -2.4753  0.1241  1.1529
18523THY    HM359159   7.253   4.736   5.526  1.4567 -0.9790 -0.5303
18523THY    CA659160   6.954   4.741   5.384  0.0473  0.2213 -0.2836
18523THY    HA659161   6.942   4.638   5.352 -2.1402 -0.8182  0.2245
18524THY      O59162   1.272   3.622   2.689  0.4934 -0.3765  0.5152
18524THY     HO59163   1.185   3.582   2.675 -0.4237  2.5696  1.2166
18524THY    CA159164   1.246   3.740   2.744  0.1155  0.1105  0.0576
18524THY    CA259165   1.349   3.814   2.806 -0.1640  0.6304 -0.1191
18524THY    CP159166   1.481   3.752   2.833 -0.3825 -0.2702 -0.8518
18524THY    HP159167   1.507   3.691   2.746 -0.6739 -2.0442  1.3882
18524THY    CP259168   1.487   3.669   2.968 -0.0346  0.4340 -0.1598
18524THY    HP259169   1.581   3.616   2.986 -1.6923  0.0401 -3.4680
18524THY    HP359170   1.405   3.599   2.986 -0.3331 -1.3748 -0.3357
18524THY    HP459171   1.488   3.734   3.056  1.0389 -0.3364  0.9130
18524THY    CP359172   1.606   3.845   2.836 -0.3074  1.0375  0.0548
18524THY    HP559173   1.619   3.915   2.919  1.4402  0.9241 -0.0926
18524THY    HP659174   1.605   3.916   2.752  0.2183  0.2080 -0.8978
18524THY    HP759175   1.702   3.793   2.824 -0.5649  1.5076 -0.5380
18524THY    CA359176   1.321   3.940   2.858  0.0747 -0.6918 -0.8955
18524THY    HA359177   1.389   4.002   2.916 -1.2693  1.3975 -1.2992
18524THY    CA459178   1.184   3.984   2.854 -0.0090  0.0718  0.1899
18524THY    HA459179   1.151   4.075   2.901  2.9025 -0.4498  1.6359
18524THY    CA559180   1.087   3.914   2.777  0.0299  0.5526 -0.9273
18524THY    CM159181   0.948   3.971   2.765 -0.1291  0.4184 -0.0432
18524THY    HM159182   0.880   3.890   2.738  1.7315 -1.8949 -0.9417
18524THY    HM259183   0.956   4.043   2.683  1.6742 -0.8768 -1.6321
18524THY    HM359184   0.917   4.017   2.860 -2.4834  0.0423 -0.7073
18524THY    CA659185   1.114   3.786   2.732  0.0949 -0.0406  1.0813
18524THY    HA659186   1.042   3.726   2.677  0.6026  0.1101  0.3172
18525THY      O59187   6.970   6.820   5.460  0.2095  0.3875 -0.5089
18525THY     HO59188   7.057   6.794   5.497 -0.8099  1.9998 -1.8445
18525THY    CA159189   6.977   6.950   5.433 -0.1854  0.3196 -0.1341
18525THY    CA259190   6.860   7.015   5.379  0.1458  0.1454 -0.3752
18525THY    CP159191   6.739   6.937   5.339 -0.0433  0.9743 -0.5028
18525THY    HP159192   6.746   6.833   5.374  0.2095 -0.3451 -0.9552
18525THY    CP259193   6.732   6.926   5.187 -0.5474 -0.0988  0.0930
18525THY    HP259194   6.824   6.879   5.151  0.2815  1.3401  0.5648
18525THY    HP359195   6.698   7.022   5.145 -0.0890  2.1613  1.3118
18525THY    HP459196   6.662   6.848   5.157  0.1813 -1.7967  0.0287
18525THY    CP359197   6.607   6.981   5.394  0.4451  0.8892  0.7261
18525THY    HP559198   6.616   6.972   5.502 -0.1570  0.7804 -2.2556
18525THY    HP659199   6.524   6.917   5.363  0.5937 -1.1060  1.4275
18525THY    HP759200   6.584   7.079   5.350 -1.1046  1.5844  0.6964
18525THY    CA359201   6.862   7.152   5.354 -0.1538 -0.1478  0.1856
18525THY    HA359202   6.768   7.197   5.323 -0.0706 -1.1115 -0.2747
18525THY    CA459203   6.987   7.221   5.370  0.5957 -0.6133  0.2579
18525THY    HA459204   6.983   7.329   5.363  2.0800 -2.0985  0.2494
18525THY    CA559205   7.102   7.156   5.421 -0.3088 -0.1767  0.6395
18525THY    CM159206   7.233   7.231   5.444 -0.3529  1.1058 -0.0293
18525THY    HM159207   7.226   7.249   5.551  0.2703  1.3755 -1.3083
18525THY    HM259208   7.239   7.328   5.394 -0.9046  1.3750  0.1427
18525THY    HM359209   7.322   7.171   5.421 -0.8989 -0.3743 -0.3116
18525THY    CA659210   7.092   7.022   5.457 -0.3307 -0.0926 -0.5969
18525THY    HA659211   7.180   6.974   5.499  2.0038 -2.9110  0.8909
18526THY      O59212   8.092   3.983   6.681 -0.1823  0.2900 -0.5690
18526THY     HO59213   8.122   4.057   6.735 -1.7599 -1.0719  1.1760
18526THY    CA159214   8.205   3.918   6.647 -0.2959  0.3356  0.9693
18526THY    CA259215   8.197   3.780   6.642  0.5127 -0.5329  0.9837
18526THY    CP159216   8.087   3.696   6.712  0.1898 -0.4831  0.3827
18526THY    HP159217   7.996   3.755   6.729 -0.7206 -4.0192  0.1871
18526THY    CP259218   8.135   3.646   6.839 -0.3921 -0.6351  0.3548
18526THY    HP259219   8.235   3.604   6.822  0.0367  0.0375  1.0735
18526THY    HP359220   8.076   3.563   6.880 -0.5874  2.8624  2.0319
18526THY    HP459221   8.123   3.722   6.917 -2.3293 -1.2873  0.7623
18526THY    CP359222   8.031   3.577   6.631 -0.0084  0.5070  0.0515
18526THY    HP559223   8.080   3.480   6.642  0.1176 -0.5217 -0.0137
18526THY    HP659224   8.027   3.594   6.522 -0.5228 -0.0405 -2.9349
18526THY    HP759225   7.925   3.562   6.654 -0.7371 -1.5500  1.4965
18526THY    CA359226   8.293   3.706   6.571 -0.6630 -0.5709 -0.7250
18526THY    HA359227   8.285   3.597   6.570  0.4462  1.3803 -0.8728
18526THY    CA459228   8.411   3.773   6.524  0.3292  0.7078  0.5072
18526THY    HA459229   8.488   3.714   6.474 -0.5205 -1.3547  1.0460
18526THY    CA559230   8.422   3.910   6.537  0.7575  0.9520 -0.0650
18526THY    CM159231   8.550   3.988   6.493 -0.4629 -1.4144  0.1846
18526THY    HM159232   8.525   4.092   6.469 -0.7273  1.2911  0.8057
18526THY    HM259233   8.612   3.940   6.416 -0.1336 -1.9582  1.4561
18526THY    HM359234   8.608   3.992   6.586 -0.1774 -1.4710 -1.6076
18526THY    CA659235   8.320   3.979   6.599 -0.1865  0.5617 -0.2909
18526THY    HA659236   8.335   4.086   6.609 -0.9827 -1.1098 -0.0086
18527THY      O59237   4.661   8.860   6.564  0.2388  0.9868  0.3220
18527THY     HO59238   4.639   8.944   6.521 -0.1106  2.3542  0.9602
18527THY    CA159239   4.779   8.823   6.508 -0.0070 -0.0784  0.9646
18527THY    CA259240   4.849   8.706   6.549  0.3253  0.2625 -0.5917
18527THY    CP159241   4.802   8.611   6.651  0.3359 -1.0677 -0.0005
18527THY    HP159242   4.736   8.665   6.720 -0.0205 -2.0360  0.8264
18527THY    CP259243   4.913   8.548   6.742  0.2773 -0.1260  0.5484
18527THY    HP259244   4.967   8.462   6.701  0.4791  0.7245  0.2544
18527THY    HP359245   4.879   8.506   6.838  2.1678 -0.2903 -1.5533
18527THY    HP459246   4.981   8.627   6.775  1.0334 -1.3836  0.4418
18527THY    CP359247   4.720   8.498   6.583 -0.6577  0.3111 -0.7876
18527THY    HP559248   4.641   8.525   6.513 -0.2384 -0.5808 -1.8003
18527THY    HP659249   4.684   8.427   6.659  2.3320 -0.0817 -2.9306
18527THY    HP759250   4.797   8.445   6.525 -1.5128 -2.2482  0.6320
18527THY    CA359251   4.970   8.681   6.482 -0.1696  0.3864  0.5446
18527THY    HA359252   5.027   8.600   6.525  1.4414  3.0318  2.9097
18527THY    CA459253   5.011   8.764   6.375 -0.6262  0.0113 -0.1359
18527THY    HA459254   5.109   8.752   6.331 -0.9203 -0.2298 -1.9332
18527THY    CA559255   4.927   8.867   6.325  0.4837 -0.2868 -0.5505
18527THY    CM159256   4.963   8.953   6.208 -0.1096  0.2916  0.6401
18527THY    HM159257   5.039   8.902   6.147 -0.7263 -0.1631  0.2483
18527THY    HM259258   4.995   9.054   6.238 -0.6095 -1.7538  1.4542
18527THY    HM359259   4.878   8.977   6.142  1.0142 -2.3488 -2.0216
18527THY    CA659260   4.810   8.891   6.394  0.8652  0.1488 -0.7722
18527THY    HA659261   4.750   8.976   6.363  1.7623 -0.6928 -0.4336
18528THY      O59262   3.921   8.755   5.592 -0.0830 -0.8155  0.4008
18528THY     HO59263   3.945   8.720   5.679 -2.1139 -0.6442 -0.7456
18528THY    CA159264   4.016   8.689   5.522  0.2698  1.0073 -0.5178
18528THY    CA259265   4.013   8.689   5.382 -0.3457 -0.0772 -0.4518
18528THY    CP159266   3.900   8.757   5.293  0.1337 -0.4131 -0.1658
18528THY    HP159267   3.826   8.803   5.359  2.4237  1.7824  0.6221
18528THY    CP259268   3.843   8.646   5.199  0.5179 -0.1622 -0.6132
18528THY    HP259269   3.759   8.692   5.146  0.9739  0.6916  1.3316
18528THY    HP359270   3.809   8.561   5.260 -3.5416 -1.1754  0.0938
18528THY    HP459271   3.911   8.608   5.122 -0.3017 -0.1108 -2.2358
18528THY    CP359272   3.959   8.878   5.229  0.6610  0.0149 -0.8761
18528THY    HP559273   4.050   8.870   5.170  0.3710 -0.5933  0.1793
18528THY    HP659274   3.963   8.961   5.300 -2.5687  0.7695 -1.2041
18528THY    HP759275   3.882   8.906   5.156  0.3722  0.8658  0.6952
18528THY    CA359276   4.111   8.602   5.322 -0.2643  0.2589 -0.1319
18528THY    HA359277   4.117   8.591   5.214  0.2201  0.3784 -1.2498
18528THY    CA459278   4.211   8.527   5.390  0.2116  0.0121 -0.1117
18528THY    HA459279   4.285   8.459   5.348  1.6233 -1.8357  2.4030
18528THY    CA559280   4.201   8.533   5.520  0.1957 -0.4226 -0.1853
18528THY    CM159281   4.303   8.465   5.606  0.6180 -0.6278 -0.1587
18528THY    HM159282   4.256   8.455   5.704 -2.6937 -1.8799  1.5407
18528THY    HM259283   4.400   8.514   5.616  0.6989  0.4371 -0.5059
18528THY    HM359284   4.331   8.366   5.566  3.4864  1.2597 -0.2283
18528THY    CA659285   4.101   8.602   5.587 -0.9771  0.2204 -0.2580
18528THY    HA659286   4.111   8.602   5.695  1.0464  0.0971 -1.9152
18529THY      O59287   8.714   2.510   3.766  0.1247  0.8113  0.2895
18529THY     HO59288   8.647   2.576   3.790  1.5934  2.9041  1.1558
18529THY    CA159289   8.809   2.591   3.710  0.2775  0.6426  0.5674
18529THY    CA259290   8.929   2.532   3.660  0.1921 -0.6447 -0.2906
18529THY    CP159291   8.971   2.384   3.699  1.1213 -0.1501  0.1700
18529THY    HP159292   8.895   2.346   3.768 -0.5826 -1.6556  0.7259
18529THY    CP259293   9.107   2.374   3.771  0.0579 -0.3328  0.6008
18529THY    HP259294   9.192   2.409   3.711  0.8741  1.4851  1.8963
18529THY    HP359295   9.120   2.268   3.794 -0.3638 -2.1741  0.1094
18529THY    HP459296   9.116   2.425   3.867  2.3770  1.4693 -2.7608
18529THY    CP359297   8.966   2.297   3.575  0.1749  0.5952 -0.6152
18529THY    HP559298   8.992   2.191   3.582  0.1494 -0.7801 -0.7358
18529THY    HP659299   9.031   2.342   3.498  2.3796  2.5149 -0.3194
18529THY    HP759300   8.866   2.302   3.531  0.0195  1.0585  0.8434
18529THY    CA359301   9.013   2.615   3.576 -0.0643  0.6169 -0.1368
18529THY    HA359302   9.112   2.588   3.541  0.1126  1.3329 -0.4425
18529THY    CA459303   8.983   2.750   3.555  0.2611  0.0862  0.1621
18529THY    HA459304   9.057   2.815   3.508 -1.0106  1.2830  2.6420
18529THY    CA559305   8.860   2.806   3.596 -0.5604  0.2354  0.6877
18529THY    CM159306   8.833   2.945   3.577 -0.0407  0.1347 -0.2743
18529THY    HM159307   8.736   2.973   3.618  0.0716 -0.1583  0.5992
18529THY    HM259308   8.820   2.969   3.471 -0.7173  0.2997  0.1133
18529THY    HM359309   8.908   3.006   3.629 -0.1030  2.1569 -1.8163
18529THY    CA659310   8.777   2.722   3.679  0.2043 -0.1309 -0.6523
18529THY    HA659311   8.686   2.766   3.717 -0.8145 -0.6653 -2.2184
18530THY      O59312   6.567   7.582   7.823  0.0748  0.2960  0.5050
18530THY     HO59313   6.536   7.670   7.853 -0.8229  0.2689  0.2106
18530THY    CA159314   6.705   7.581   7.859 -0.2678  0.1926  0.5436
18530THY    CA259315   6.792   7.475   7.823  0.5385  0.3206  0.6987
18530THY    CP159316   6.742   7.344   7.749 -0.0172 -0.7291 -0.2494
18530THY    HP159317   6.634   7.337   7.765 -0.1330 -0.6042  1.4093
18530THY    CP259318   6.807   7.209   7.797 -0.1172  0.2632  0.0153
18530THY    HP259319   6.900   7.181   7.748 -1.0133 -0.6101 -1.5689
18530THY    HP359320   6.735   7.135   7.760  0.0896 -3.3476  1.4496
18530THY    HP459321   6.812   7.207   7.907 -0.9279  0.3077 -2.1707
18530THY    CP359322   6.761   7.362   7.601  0.3143 -0.1623 -0.4565
18530THY    HP559323   6.757   7.467   7.569  0.2464  0.6185 -0.2126
18530THY    HP659324   6.689   7.299   7.548  0.9733  0.5366 -1.8213
18530THY    HP759325   6.864   7.331   7.580  0.4072 -0.2824 -0.0729
18530THY    CA359326   6.923   7.484   7.866 -0.5614  0.0803  0.6825
18530THY    HA359327   6.994   7.405   7.843 -1.1165  0.7187 -0.0127
18530THY    CA459328   6.961   7.593   7.940  0.1292  0.5178 -0.3079
18530THY    HA459329   7.059   7.595   7.986 -0.3334  1.5152 -0.3827
18530THY    CA559330   6.873   7.695   7.971  0.3444 -0.2728  0.5787
18530THY    CM159331   6.914   7.812   8.063 -0.2697  0.0714  0.3977
18530THY    HM159332   6.967   7.887   8.003  0.3471  0.3480  0.1919
18530THY    HM259333   6.978   7.780   8.146 -0.6532 -0.0211 -0.6562
18530THY    HM359334   6.836   7.851   8.129 -1.4268 -1.4568  0.7409
18530THY    CA659335   6.751   7.695   7.915  0.2414  0.2329 -0.6513
18530THY    HA659336   6.682   7.773   7.947 -1.5357 -0.0490 -2.0193
18531THY      O59337   5.317   3.863   7.125 -0.2521  0.1406  0.1026
18531THY     HO59338   5.310   3.820   7.212 -1.3591 -0.8705 -1.9325
18531THY    CA159339   5.443   3.887   7.094 -0.3328 -0.1374  0.0239
18531THY    CA259340   5.488   3.926   6.966  0.1289 -0.2374  0.7877
18531THY    CP159341   5.383   3.948   6.850 -0.2119 -0.1970  0.1861
18531THY    HP159342   5.294   3.885   6.858 -0.9954  1.4173  1.4306
18531THY    CP259343   5.434   3.909   6.706  0.0022  1.4692 -0.0374
18531THY    HP259344   5.471   3.806   6.707  2.4974  0.1571  0.7737
18531THY    HP359345   5.504   3.985   6.669  0.2005  1.7554 -0.0811
18531THY    HP459346   5.354   3.913   6.631  1.9658 -0.7551 -0.4287
18531THY    CP359347   5.331   4.092   6.843  0.5290  0.0383  0.2800
18531THY    HP559348   5.400   4.170   6.806 -0.1928 -1.1101  0.4045
18531THY    HP659349   5.302   4.131   6.941 -1.3527 -0.6885  0.8210
18531THY    HP759350   5.234   4.079   6.793  0.1348  1.0951 -0.9943
18531THY    CA359351   5.625   3.933   6.937 -0.4675  0.7534  0.3376
18531THY    HA359352   5.668   3.953   6.839  1.3586  1.0261 -1.8551
18531THY    CA459353   5.715   3.920   7.039 -0.2555  0.3652 -0.0854
18531THY    HA459354   5.822   3.922   7.019 -0.6521 -2.0243  0.4093
18531THY    CA559355   5.672   3.901   7.172 -0.4700  0.2583 -0.5760
18531THY    CM159356   5.786   3.889   7.273 -0.1275 -0.0515  0.4329
18531THY    HM159357   5.884   3.900   7.225 -0.0071  0.3055  1.0042
18531THY    HM259358   5.788   3.794   7.327  0.2697 -0.5590  0.1529
18531THY    HM359359   5.784   3.964   7.354  1.1812  1.4327 -1.0358
18531THY    CA659360   5.535   3.889   7.199 -0.0678  0.0774  0.4638
18531THY    HA659361   5.504   3.867   7.301  1.1403  0.7886  1.9485
18532THY      O59362   7.373   5.472   6.913 -0.0311 -0.1691 -0.0350
18532THY     HO59363   7.333   5.383   6.905 -1.3587  1.2983  0.3856
18532THY    CA159364   7.408   5.520   6.792 -0.2531  0.0489 -0.4290
18532THY    CA259365   7.479   5.645   6.782 -0.8317  0.5928 -0.2481
18532THY    CP159366   7.525   5.718   6.909  0.6590 -0.1861  0.3244
18532THY    HP159367   7.592   5.655   6.967 -0.6374 -0.4825 -1.4053
18532THY    CP259368   7.406   5.768   6.991 -0.1222 -0.4365  0.2165
18532THY    HP259369   7.433   5.769   7.097  1.8508 -0.9027 -0.4051
18532THY    HP359370   7.326   5.694   6.979  0.2213  0.6773 -0.3509
18532THY    HP459371   7.371   5.870   6.971  0.1537  0.9159  0.6021
18532THY    CP359372   7.609   5.841   6.886 -0.7066 -0.4912 -0.0792
18532THY    HP559373   7.557   5.927   6.842 -0.2620  1.4054  1.2347
18532THY    HP659374   7.700   5.822   6.828  0.6369  0.7532  2.1181
18532THY    HP759375   7.649   5.875   6.982  0.7467 -1.1391  0.1259
18532THY    CA359376   7.506   5.699   6.655 -0.1594 -0.2393 -0.0143
18532THY    HA359377   7.551   5.796   6.640  0.5132  2.4218  0.1716
18532THY    CA459378   7.472   5.620   6.546 -0.3126  0.4238  0.4112
18532THY    HA459379   7.509   5.657   6.451 -0.6184  0.3053  0.4177
18532THY    CA559380   7.417   5.493   6.555 -0.0840  0.6148 -0.2878
18532THY    CM159381   7.388   5.408   6.436 -0.2903  0.2887  0.5962
18532THY    HM159382   7.297   5.427   6.378  0.6023 -2.0498 -1.5958
18532THY    HM259383   7.386   5.305   6.472  1.0615  1.5535  0.9861
18532THY    HM359384   7.473   5.412   6.366  1.4000  2.1613 -0.4896
18532THY    CA659385   7.387   5.439   6.678  0.3913 -0.2167  0.8347
18532THY    HA659386   7.335   5.345   6.689  1.8940  0.5970  0.0567
18533THY      O59387   5.577   7.963   1.690 -0.1639 -0.5583 -1.1197
18533THY     HO59388   5.658   7.911   1.706 -0.3127  1.2663 -0.8647
18533THY    CA159389   5.523   7.974   1.816  0.0866 -0.2479  0.0972
18533THY    CA259390   5.392   8.036   1.827 -0.3741 -0.5197  0.9667
18533THY    CP159391   5.321   8.096   1.709  0.1692  0.0235  0.3279
18533THY    HP159392   5.363   8.060   1.615 -0.6184  0.1998 -1.1287
18533THY    CP259393   5.330   8.244   1.714 -0.0356  0.5037 -0.0047
18533THY    HP259394   5.430   8.287   1.705 -0.5804 -0.2106  1.1799
18533THY    HP359395   5.288   8.277   1.809  2.3966  1.4099  0.6749
18533THY    HP459396   5.278   8.290   1.629 -0.6912  1.3022  0.7626
18533THY    CP359397   5.177   8.047   1.695  0.7119  0.4576 -0.1826
18533THY    HP559398   5.168   7.941   1.668 -1.9075 -2.8829  0.7133
18533THY    HP659399   5.128   8.108   1.618 -0.8884  0.8761 -0.8789
18533THY    HP759400   5.119   8.066   1.787 -0.6098 -0.5232  0.7031
18533THY    CA359401   5.338   8.045   1.957 -0.1814 -0.0349 -0.5349
18533THY    HA359402   5.255   8.112   1.981  2.8960  2.8375  2.6843
18533THY    CA459403   5.415   7.998   2.071  0.0510  0.0141 -0.0551
18533THY    HA459404   5.372   8.003   2.170  1.0253  0.6426 -2.6589
18533THY    CA559405   5.537   7.925   2.056  0.6600 -0.0718 -0.3168
18533THY    CM159406   5.612   7.872   2.182 -0.2448 -0.2354 -0.6894
18533THY    HM159407   5.573   7.915   2.275 -1.1045 -1.4672  1.3494
18533THY    HM259408   5.722   7.879   2.178  0.1187  0.5845 -4.2762
18533THY    HM359409   5.596   7.765   2.194 -0.2978  0.0394 -0.6510
18533THY    CA659410   5.592   7.917   1.928 -0.2579 -0.3132 -0.3491
18533THY    HA659411   5.695   7.886   1.923  0.4514 -0.3622  1.8534
18534THY      O59412   3.255   4.597   5.374  0.1304  0.0654  0.4302
18534THY     HO59413   3.205   4.639   5.302 -0.0567 -1.4321 -2.1375
18534THY    CA159414   3.384   4.598   5.353  0.7301 -0.1840  0.6582
18534THY    CA259415   3.481   4.536   5.440 -0.5876  0.0217 -0.3338
18534THY    CP159416   3.442   4.465   5.571 -0.2044  0.0576 -0.6158
18534THY    HP159417   3.343   4.497   5.606  0.2055  0.8428 -0.1876
18534THY    CP259418   3.552   4.498   5.679  0.1346  0.1060 -0.3487
18534THY    HP259419   3.565   4.607   5.679 -1.1583  0.9292 -0.1685
18534THY    HP359420   3.653   4.461   5.659  0.6612  0.9945  0.5568
18534THY    HP459421   3.531   4.451   5.776  0.9601  0.4328 -0.0682
18534THY    CP359422   3.432   4.315   5.559  0.6600 -0.4165  0.2804
18534THY    HP559423   3.407   4.270   5.656 -3.0294 -0.7042  1.3693
18534THY    HP659424   3.522   4.276   5.509 -0.2758 -5.0300  3.3335
18534THY    HP759425   3.355   4.287   5.486 -1.2159  1.4803  0.2319
18534THY    CA359426   3.616   4.538   5.399 -0.4699 -0.2999 -0.2861
18534THY    HA359427   3.698   4.493   5.454 -1.2420 -0.5483 -2.1139
18534THY    CA459428   3.644   4.604   5.277 -0.7094 -0.1070 -0.6282
18534THY    HA459429   3.744   4.628   5.245 -0.8759 -1.0421 -1.1580
18534THY    CA559430   3.552   4.672   5.210  0.4736  0.3403 -0.2775
18534THY    CM159431   3.598   4.741   5.086  0.0675  0.0336  0.3571
18534THY    HM159432   3.538   4.826   5.052  2.5236 -1.8479  1.4874
18534THY    HM259433   3.605   4.675   4.999  0.7674  1.1415 -1.0941
18534THY    HM359434   3.699   4.780   5.099  0.0716 -1.7170  1.0217
18534THY    CA659435   3.419   4.666   5.240  0.0398  0.5416  0.1256
18534THY    HA659436   3.345   4.713   5.176 -0.5617  0.5451 -0.8063
18535THY      O59437   4.774   3.251   2.821 -0.5411  0.2398  0.3857
18535THY     HO59438   4.802   3.265   2.913 -0.8310  0.7853 -2.0751
18535THY    CA159439   4.861   3.311   2.741  0.3977  0.1618 -0.5115
18535THY    CA259440   4.851   3.309   2.601 -0.4391  0.1569  0.3932
18535THY    CP159441   4.763   3.217   2.520 -0.4499 -0.1376 -0.3735
18535THY    HP159442   4.688   3.170   2.584 -1.3442 -0.8780  0.0292
18535THY    CP259443   4.844   3.105   2.450 -0.0528 -0.1280 -0.4209
18535THY    HP259444   4.926   3.153   2.396  0.3954 -0.4662 -1.5355
18535THY    HP359445   4.777   3.055   2.380  0.2506 -1.5032  1.0324
18535THY    HP459446   4.882   3.042   2.531  1.3492 -0.1980  0.2929
18535THY    CP359447   4.668   3.284   2.427 -1.2051  0.5872 -0.2020
18535THY    HP559448   4.631   3.376   2.475  1.4272 -1.6391  2.2502
18535THY    HP659449   4.594   3.212   2.391  1.6115 -1.0518 -2.5145
18535THY    HP759450   4.733   3.315   2.344  0.2183  1.9031  0.4570
18535THY    CA359451   4.935   3.395   2.526 -0.2735  0.1879 -0.0770
18535THY    HA359452   4.927   3.396   2.418 -2.7610  0.3087 -0.5962
18535THY    CA459453   5.029   3.474   2.591  0.3680 -0.3040  0.4048
18535THY    HA459454   5.098   3.531   2.530 -0.0308 -0.5105  0.6650
18535THY    CA559455   5.041   3.471   2.725 -0.0083  0.1576  0.5542
18535THY    CM159456   5.145   3.553   2.794  0.2751 -0.4795 -0.5905
18535THY    HM159457   5.100   3.621   2.867  1.6827  1.3903 -1.5386
18535THY    HM259458   5.194   3.630   2.734  2.2132  0.6920 -0.8476
18535THY    HM359459   5.231   3.497   2.834  1.9194  0.9643  2.6609
18535THY    CA659460   4.961   3.391   2.803  0.3063  0.7826  0.3718
18535THY    HA659461   4.968   3.394   2.912 -2.3186  0.9926  2.2374
18536THY      O59462   4.691   6.486   5.704  0.1236  0.0444 -0.0214
18536THY     HO59463   4.770   6.539   5.725  1.9652  0.8131 -2.8542
18536THY    CA159464   4.641   6.554   5.596 -0.2489  0.2078  0.0074
18536THY    CA259465   4.533   6.510   5.523  0.3130  0.1931  0.5528
18536THY    CP159466   4.461   6.385   5.568  0.5210  0.4225  0.1532
18536THY    HP159467   4.492   6.371   5.673  2.7309  0.0844  1.8573
18536THY    CP259468   4.500   6.269   5.474  0.2635  0.6774  0.2068
18536THY    HP259469   4.462   6.171   5.505  0.0157 -1.6718 -0.5076
18536THY    HP359470   4.610   6.269   5.465  0.2806  0.7869 -1.0299
18536THY    HP459471   4.463   6.288   5.373  1.0433  0.7318  2.2804
18536THY    CP359472   4.304   6.400   5.566  0.3515  0.0101 -0.5701
18536THY    HP559473   4.255   6.304   5.583 -0.8903  0.1268  0.0688
18536THY    HP659474   4.272   6.427   5.464  4.1069 -1.1226  0.2306
18536THY    HP759475   4.258   6.474   5.633 -0.5047 -0.1857 -0.9078
18536THY    CA359476   4.493   6.578   5.406 -0.5817 -0.7353  0.1679
18536THY    HA359477   4.413   6.541   5.343 -1.2222  0.1621 -0.0091
18536THY    CA459478   4.552   6.693   5.372 -0.6744 -0.4194 -0.5442
18536THY    HA459479   4.518   6.747   5.285  3.0943 -0.4630  2.1509
18536THY    CA559480   4.648   6.751   5.457 -0.0514 -1.1274 -0.2180
18536THY    CM159481   4.713   6.879   5.427 -0.0267  0.3020  0.5883
18536THY    HM159482   4.805   6.858   5.372 -1.7028 -2.0026 -1.2853
18536THY    HM259483   4.724   6.950   5.510  1.0534  0.5629  0.1417
18536THY    HM359484   4.654   6.929   5.349 -1.9270  1.1462 -0.2144
18536THY    CA659485   4.700   6.680   5.561  0.2976 -0.0956 -0.0500
18536THY    HA659486   4.781   6.720   5.620  0.8355 -0.4316 -0.6253
18537THY      O59487   7.442   2.497   6.063  0.4762 -0.1540 -0.3753
18537THY     HO59488   7.512   2.435   6.089 -0.6674  2.0421 -0.8631
18537THY    CA159489   7.372   2.515   6.176 -0.4767 -0.3961 -0.4813
18537THY    CA259490   7.246   2.572   6.180 -0.2056  0.9589  0.0470
18537THY    CP159491   7.182   2.629   6.055 -0.2034 -0.4633 -0.1142
18537THY    HP159492   7.235   2.574   5.975 -1.5407 -0.8003 -0.9446
18537THY    CP259493   7.210   2.773   6.034 -0.5508 -0.0613 -0.9994
18537THY    HP259494   7.317   2.797   6.022 -1.2431 -3.1184  1.0487
18537THY    HP359495   7.167   2.838   6.111  0.3845  0.8827 -1.4574
18537THY    HP459496   7.158   2.793   5.940  1.8840 -1.7704 -2.1147
18537THY    CP359497   7.026   2.593   6.053 -0.4018  0.0910 -0.5936
18537THY    HP559498   7.001   2.492   6.087  0.5361 -0.7628 -1.1254
18537THY    HP659499   7.004   2.593   5.945  2.0620 -0.4877 -2.3676
18537THY    HP759500   6.969   2.673   6.102  0.6775  1.7888 -0.8195
18537THY    CA359501   7.178   2.581   6.303  0.1174  0.1286  0.3705
18537THY    HA359502   7.077   2.620   6.312  0.8042 -1.4814  2.7850
18537THY    CA459503   7.247   2.539   6.423 -0.2091 -0.0107  0.2937
18537THY    HA459504   7.196   2.538   6.519 -1.1431 -0.3374  3.5732
18537THY    CA559505   7.380   2.492   6.416  0.3885  0.2822 -0.2628
18537THY    CM159506   7.450   2.436   6.539  0.2944  0.4325  1.2596
18537THY    HM159507   7.414   2.494   6.625 -0.5023  1.9686 -1.3716
18537THY    HM259508   7.559   2.438   6.531  0.4172  1.4427 -0.3713
18537THY    HM359509   7.417   2.333   6.555  2.5199 -4.0134 -0.4224
18537THY    CA659510   7.440   2.480   6.292  1.2981 -0.4874 -0.3967
18537THY    HA659511   7.539   2.435   6.295  1.0817  1.8748 -0.8541
18538THY      O59512   4.820   7.212   3.082  0.5547 -0.1497 -0.0769
18538THY     HO59513   4.789   7.150   3.150  0.5352 -0.7808 -0.7638
18538THY    CA159514   4.774   7.163   2.962 -0.1403  0.3228  0.3685
18538THY    CA259515   4.834   7.198   2.840  1.2713  0.4445  0.1337
18538THY    CP159516   4.935   7.311   2.824 -0.4761 -0.1147  0.5122
18538THY    HP159517   4.921   7.378   2.909  1.7507  1.1181 -0.5094
18538THY    CP259518   4.896   7.396   2.709  0.2018  0.7240 -0.1790
18538THY    HP259519   4.895   7.352   2.609  0.5479 -0.6335  2.6857
18538THY    HP359520   4.966   7.480   2.699  0.9146  0.9123 -0.7408
18538THY    HP459521   4.795   7.433   2.729  0.0476  1.7785 -1.1150
18538THY    CP359522   5.082   7.257   2.807  0.5496  0.7104 -0.0783
18538THY    HP559523   5.145   7.345   2.824 -0.0589 -0.0797  0.5321
18538THY    HP659524   5.102   7.214   2.708  0.0176 -1.1067  3.5008
18538THY    HP759525   5.097   7.177   2.881 -0.9014  0.2499 -0.8183
18538THY    CA359526   4.793   7.129   2.722 -0.3245 -0.7234 -0.4139
18538THY    HA359527   4.832   7.154   2.623 -0.7523 -0.8879 -0.3971
18538THY    CA459528   4.684   7.041   2.734 -0.2989 -0.4347  1.1659
18538THY    HA459529   4.653   6.993   2.642 -1.5806  0.1801  0.7855
18538THY    CA559530   4.626   7.003   2.854  0.4372  1.1301 -0.1375
18538THY    CM159531   4.501   6.917   2.856 -0.0063 -0.1578 -0.3505
18538THY    HM159532   4.421   6.961   2.915 -2.6438 -2.0118 -2.3470
18538THY    HM259533   4.522   6.817   2.897  1.7810  0.5782  0.2865
18538THY    HM359534   4.462   6.918   2.753  0.0750 -0.2278 -1.9229
18538THY    CA659535   4.665   7.076   2.969 -0.1567  0.0372  0.0165
18538THY    HA659536   4.620   7.058   3.066  0.6772  0.1476 -1.6509
18539THY      O59537   5.877   8.672   5.122 -0.0432  0.0185 -0.7475
18539THY     HO59538   5.786   8.701   5.104 -0.0789 -0.2750 -1.0305
18539THY    CA159539   5.855   8.562   5.198 -0.6263  0.5130 -0.2747
18539THY    CA259540   5.962   8.504   5.267  0.8206  0.2386  0.3552
18539THY    CP159541   6.105   8.560   5.245  0.6171 -0.9100  0.3809
18539THY    HP159542   6.104   8.666   5.218 -0.7608  2.1976  1.2632
18539THY    CP259543   6.196   8.467   5.153  0.0490 -1.4412 -0.4313
18539THY    HP259544   6.144   8.454   5.058 -0.5577 -1.0114 -1.2878
18539THY    HP359545   6.196   8.364   5.192  2.9045 -2.8856 -1.0835
18539THY    HP459546   6.294   8.509   5.127 -0.3970 -2.5351 -0.0304
18539THY    CP359547   6.157   8.583   5.389  0.2628  0.3891 -0.8874
18539THY    HP559548   6.097   8.662   5.434 -1.0373  0.7100 -2.0241
18539THY    HP659549   6.257   8.629   5.387  0.1694 -0.7911 -0.7051
18539THY    HP759550   6.151   8.499   5.460 -0.1505  0.0069 -1.1844
18539THY    CA359551   5.930   8.397   5.353  0.3456  0.6167 -0.1281
18539THY    HA359552   6.005   8.339   5.406  1.1091  0.3398  0.5964
18539THY    CA459553   5.795   8.352   5.356 -0.5189  0.1356  0.3434
18539THY    HA459554   5.773   8.266   5.419 -0.9563  0.3174  0.5851
18539THY    CA559555   5.696   8.408   5.275  0.3281  0.5847 -0.1140
18539THY    CM159556   5.559   8.349   5.256 -0.2248  0.3312  0.5687
18539THY    HM159557   5.569   8.245   5.222 -0.0826 -0.0340  0.7026
18539THY    HM259558   5.497   8.402   5.183  1.4674  1.1032  3.8534
18539THY    HM359559   5.484   8.359   5.335 -2.4141 -1.6252  0.2922
18539THY    CA659560   5.725   8.521   5.201 -0.0976 -0.1739 -0.6008
18539THY    HA659561   5.647   8.568   5.141 -2.6094  3.7833  0.8100
18540THY      O59562   9.157   3.851   4.587  0.1843 -0.1172 -0.2116
18540THY     HO59563   9.167   3.790   4.512  3.7327  0.4287 -0.5680
18540THY    CA159564   9.026   3.863   4.613 -0.7218  0.0058 -0.1623
18540THY    CA259565   8.976   3.916   4.735 -0.3798  0.2653 -0.6357
18540THY    CP159566   9.072   3.965   4.841  0.3566 -0.1645 -0.0748
18540THY    HP159567   9.177   3.974   4.812  0.3846  0.5011  2.7047
18540THY    CP259568   9.071   3.857   4.953 -0.5619  0.3058 -0.3320
18540THY    HP259569   9.152   3.884   5.022 -0.1009 -0.5919  0.6421
18540THY    HP359570   9.085   3.759   4.906 -1.3377 -1.2471  0.2729
18540THY    HP459571   8.986   3.842   5.022  1.9271  3.9753  0.9717
18540THY    CP359572   9.039   4.097   4.913  0.0650  0.7592 -0.0182
18540THY    HP559573   9.115   4.117   4.989  0.1058 -0.0494  3.6523
18540THY    HP659574   8.941   4.106   4.961  0.5207  1.4980  1.3123
18540THY    HP759575   9.038   4.183   4.846  0.0977  1.6536  0.6872
18540THY    CA359576   8.841   3.921   4.748 -0.5675  0.2065 -0.3636
18540THY    HA359577   8.805   3.953   4.846  1.9358  1.0552  0.0403
18540THY    CA459578   8.753   3.902   4.642  0.0675 -0.3894 -0.2309
18540THY    HA459579   8.649   3.929   4.658 -0.0814 -0.6195 -0.6528
18540THY    CA559580   8.804   3.851   4.524  0.4900 -0.0561  0.5790
18540THY    CM159581   8.714   3.832   4.405 -0.3628  0.0622 -0.1814
18540THY    HM159582   8.611   3.819   4.437 -0.5997  0.5706  2.4341
18540THY    HM259583   8.754   3.768   4.325 -2.3244 -0.6251 -0.5961
18540THY    HM359584   8.714   3.927   4.351  0.0719 -0.0348 -0.2320
18540THY    CA659585   8.940   3.824   4.515 -0.3469  0.3268 -0.1705
18540THY    HA659586   8.986   3.794   4.421  0.5196  1.2492 -1.8861
18541THY      O59587   7.160   1.340   4.195  0.3850  0.5580  0.0083
18541THY     HO59588   7.064   1.357   4.190  0.7067 -2.1152  1.6749
18541THY    CA159589   7.217   1.466   4.215  0.3137  0.3565 -0.7917
18541THY    CA259590   7.357   1.483   4.234 -0.4457  0.0912 -0.4969
18541THY    CP159591   7.454   1.360   4.247 -0.3004 -0.0007  0.0925
18541THY    HP159592   7.410   1.287   4.179 -2.7358  1.2971  0.2270
18541THY    CP259593   7.439   1.298   4.390  0.1528 -0.1911 -0.3574
18541THY    HP259594   7.498   1.207   4.408  0.1631  1.7278 -0.0207
18541THY    HP359595   7.336   1.274   4.419  0.5155  0.4856 -1.1453
18541THY    HP459596   7.474   1.379   4.455 -0.0651 -1.5686  0.8782
18541THY    CP359597   7.602   1.386   4.216 -0.8116 -0.2887 -0.2132
18541THY    HP559598   7.662   1.444   4.288  0.7408 -0.9371 -0.9777
18541THY    HP659599   7.600   1.437   4.119  0.1089  1.7867  4.2853
18541THY    HP759600   7.652   1.290   4.204  1.2624  2.9264  0.3186
18541THY    CA359601   7.407   1.621   4.243 -0.0912 -0.6542 -0.1666
18541THY    HA359602   7.512   1.647   4.244 -0.0587  1.1054 -0.2305
18541THY    CA459603   7.315   1.725   4.249 -0.8239  0.6768 -0.7443
18541THY    HA459604   7.341   1.830   4.256  0.8008 -0.6667 -1.0123
18541THY    CA559605   7.177   1.700   4.231 -0.0500  0.4586 -0.2853
18541THY    CM159606   7.075   1.804   4.252  0.5292 -0.4807  0.5896
18541THY    HM159607   6.988   1.759   4.301  0.6438 -3.2176 -3.1644
18541THY    HM259608   7.059   1.860   4.159  1.8062 -1.1360 -0.0869
18541THY    HM359609   7.128   1.883   4.307  1.8308  1.2185 -1.3435
18541THY    CA659610   7.132   1.573   4.214  0.3479  0.7508 -0.5239
18541THY    HA659611   7.030   1.546   4.191  0.4682  1.0953 -1.2964
18542THY      O59612   3.204   5.467   3.837  0.2470 -0.2098  0.3281
18542THY     HO59613   3.161   5.466   3.750  0.2615 -0.2119 -0.3749
18542THY    CA159614   3.336   5.476   3.819  0.5077 -0.2878 -0.4725
18542THY    CA259615   3.425   5.477   3.926 -0.5763 -0.1957  0.5516
18542THY    CP159616   3.380   5.482   4.077  0.1210 -0.4133 -1.1848
18542THY    HP159617   3.273   5.460   4.085 -1.0561  0.5895  3.5546
18542THY    CP259618   3.412   5.615   4.150  0.2292  0.1058  0.3420
18542THY    HP259619   3.519   5.636   4.162  0.0598  1.2470  0.6229
18542THY    HP359620   3.376   5.604   4.253  0.0681  0.0256  0.0986
18542THY    HP459621   3.365   5.697   4.095 -0.0664 -1.7294 -0.9820
18542THY    CP359622   3.441   5.360   4.148 -0.0648  0.0171 -0.1507
18542THY    HP559623   3.388   5.337   4.242  0.4273 -0.2279 -2.5108
18542THY    HP659624   3.549   5.359   4.166 -0.3151  1.7109 -1.4480
18542THY    HP759625   3.417   5.272   4.088 -3.3758  1.4736 -0.4064
18542THY    CA359626   3.564   5.472   3.896 -0.1287 -0.0224  0.0202
18542THY    HA359627   3.637   5.491   3.973 -2.5311  2.2157  0.8357
18542THY    CA459628   3.602   5.469   3.763  0.5992 -0.8024 -0.1940
18542THY    HA459629   3.707   5.476   3.733  0.4924 -1.2666 -0.5349
18542THY    CA559630   3.512   5.497   3.664  0.0401  0.5488  0.7514
18542THY    CM159631   3.551   5.528   3.524  0.0683  0.1227  0.3075
18542THY    HM159632   3.466   5.574   3.472 -0.3302  1.0025  0.6026
18542THY    HM259633   3.571   5.435   3.471 -3.3392 -0.6797 -0.1022
18542THY    HM359634   3.635   5.598   3.525  0.0576 -0.8580  0.3395
18542THY    CA659635   3.380   5.491   3.691 -0.2312 -0.1620  0.7648
18542THY    HA659636   3.312   5.503   3.607 -0.0780 -0.2744  0.8474
18543THY      O59637   3.347   5.330   4.649  0.6723  0.0052  0.0240
18543THY     HO59638   3.250   5.331   4.646  0.5535  1.0390 -2.4607
18543THY    CA159639   3.379   5.204   4.661 -0.0682  0.6016  0.0946
18543THY    CA259640   3.442   5.154   4.771 -1.0827 -0.0300  0.1111
18543THY    CP159641   3.518   5.235   4.875 -0.2756  0.3562  0.5601
18543THY    HP159642   3.472   5.334   4.877  0.0625 -1.2670  0.7780
18543THY    CP259643   3.672   5.236   4.859 -0.8697  0.5515 -0.6725
18543THY    HP259644   3.729   5.258   4.951 -0.5069  0.8010 -2.5272
18543THY    HP359645   3.693   5.319   4.791 -0.3914  1.4100 -0.0698
18543THY    HP459646   3.701   5.137   4.824 -1.0790 -0.2503 -0.4541
18543THY    CP359647   3.490   5.199   5.021  0.1242 -0.2306 -0.1365
18543THY    HP559648   3.548   5.114   5.060  0.8315  0.9759  0.8638
18543THY    HP659649   3.385   5.189   5.049  1.1347  4.6487  0.0680
18543THY    HP759650   3.509   5.286   5.086 -2.9011  0.5579  0.0385
18543THY    CA359651   3.452   5.010   4.779  0.1380 -0.1023  0.5832
18543THY    HA359652   3.495   4.957   4.863 -1.0451 -0.2254 -0.6346
18543THY    CA459653   3.395   4.927   4.684  0.0420 -0.6566  0.5896
18543THY    HA459654   3.401   4.819   4.694  2.2429  1.7029  0.8410
18543THY    CA559655   3.333   4.976   4.570 -0.0385 -0.2504 -0.4258
18543THY    CM159656   3.272   4.888   4.467  0.6306 -0.3345 -0.0051
18543THY    HM159657   3.287   4.936   4.370  0.4791 -1.5156 -2.2191
18543THY    HM259658   3.163   4.884   4.480  0.6723  0.0481  0.0420
18543THY    HM359659   3.315   4.787   4.474  1.2493  1.4345  0.3242
18543THY    CA659660   3.322   5.116   4.565 -0.0089  0.6649  0.1405
18543THY    HA659661   3.271   5.164   4.482  3.2482 -0.1903  2.4187
18544THY      O59662   3.492   7.941   5.077  0.1066  0.3993  0.6728
18544THY     HO59663   3.432   7.952   5.153  1.1478  1.2867  0.2990
18544THY    CA159664   3.446   8.006   4.967 -0.1047  0.5311 -0.0442
18544THY    CA259665   3.522   8.001   4.850  0.3325  0.0036  0.3616
18544THY    CP159666   3.668   7.950   4.847 -0.1461 -0.2381 -0.6240
18544THY    HP159667   3.709   7.971   4.947 -2.5775  0.5761  0.7122
18544THY    CP259668   3.766   8.038   4.769 -0.1424  0.3723  0.3300
18544THY    HP259669   3.760   8.017   4.662  2.7243  0.2525 -0.3127
18544THY    HP359670   3.874   8.025   4.784  0.4480 -3.7337 -1.1490
18544THY    HP459671   3.741   8.141   4.799 -0.9479 -0.4678  0.3845
18544THY    CP359672   3.688   7.805   4.819  0.3701 -0.1012  0.2265
18544THY    HP559673   3.618   7.744   4.878  0.7589 -1.0203 -1.1781
18544THY    HP659674   3.792   7.774   4.835 -0.1410  1.5519 -0.7956
18544THY    HP759675   3.650   7.783   4.718 -1.1451  0.6149 -0.6036
18544THY    CA359676   3.462   8.049   4.736 -0.3946  0.1909  0.3280
18544THY    HA359677   3.518   8.038   4.643  0.8685  1.1777 -2.5693
18544THY    CA459678   3.328   8.095   4.742 -0.4894  0.4849 -0.4107
18544THY    HA459679   3.282   8.134   4.651 -0.0059  0.9003  1.1802
18544THY    CA559680   3.260   8.112   4.867  0.7824  0.3529 -0.3330
18544THY    CM159681   3.128   8.178   4.871  0.0112 -0.2040 -0.7127
18544THY    HM159682   3.107   8.245   4.787 -2.4316 -0.9400 -2.2770
18544THY    HM259683   3.121   8.243   4.960 -1.5602 -0.1322 -0.9624
18544THY    HM359684   3.050   8.101   4.875  0.5754 -0.4614 -1.3053
18544THY    CA659685   3.320   8.065   4.980 -0.0694  0.1615  0.0640
18544THY    HA659686   3.260   8.050   5.069  0.7084  0.2505 -3.1348
18545THY      O59687   6.405   5.468   6.939 -0.2386  0.4574 -0.1097
18545THY     HO59688   6.358   5.484   6.855 -2.1170  1.4792  0.0834
18545THY    CA159689   6.424   5.347   6.952 -0.1774  0.1547  0.5029
18545THY    CA259690   6.461   5.296   7.074 -0.1080 -0.6643  0.0524
18545THY    CP159691   6.494   5.385   7.193  0.1857 -0.6555 -0.5500
18545THY    HP159692   6.465   5.489   7.177 -2.2667  1.3353 -0.8314
18545THY    CP259693   6.645   5.384   7.219  0.1474  0.5317 -0.3003
18545THY    HP259694   6.671   5.371   7.325 -1.1458  0.7293 -1.6126
18545THY    HP359695   6.683   5.481   7.185  0.6299  3.3112  0.5711
18545THY    HP459696   6.697   5.302   7.167 -1.0085 -1.3618  0.1006
18545THY    CP359697   6.419   5.348   7.322  0.0174 -0.1578  0.9302
18545THY    HP559698   6.425   5.250   7.369 -0.9773  0.5097  1.1748
18545THY    HP659699   6.315   5.344   7.290 -0.3405  1.0906 -1.7859
18545THY    HP759700   6.433   5.425   7.399  0.2894  1.7535 -0.9583
18545THY    CA359701   6.484   5.159   7.094 -0.1773 -0.1205 -0.1070
18545THY    HA359702   6.513   5.122   7.192  0.5327 -0.8620 -1.5824
18545THY    CA459703   6.452   5.069   6.992 -0.0741  0.1019 -0.4726
18545THY    HA459704   6.468   4.963   7.011  2.7572  0.1576 -0.1112
18545THY    CA559705   6.409   5.119   6.866  0.4632  0.2370 -0.6149
18545THY    CM159706   6.381   5.029   6.748  0.1649 -0.0063  0.1627
18545THY    HM159707   6.275   5.001   6.744  0.5380 -0.3168 -1.2896
18545THY    HM259708   6.447   4.943   6.764 -1.0201  1.8014 -0.4788
18545THY    HM359709   6.410   5.069   6.650 -1.3117  0.0211  1.3567
18545THY    CA659710   6.390   5.254   6.850 -0.5807  0.2855 -0.4046
18545THY    HA659711   6.345   5.292   6.759 -0.6332 -0.0440 -1.2301
18546THY      O59712   5.697   5.352   2.865 -0.5009  0.2712  0.7774
18546THY     HO59713   5.633   5.406   2.915 -0.7756  2.0763 -1.0840
18546THY    CA159714   5.816   5.402   2.904  0.0854  0.6854  0.5427
18546THY    CA259715   5.928   5.314   2.909 -0.3426  0.2398  0.0644
18546THY    CP159716   5.906   5.170   2.859  0.5031 -0.0558  0.4835
18546THY    HP159717   5.841   5.172   2.771 -0.4277  0.6105  0.1899
18546THY    CP259718   5.835   5.093   2.975 -0.6323  0.1798  0.3474
18546THY    HP259719   5.760   5.155   3.027 -0.0849 -1.1311  2.1967
18546THY    HP359720   5.901   5.079   3.061 -0.6517  0.1238 -0.1042
18546THY    HP459721   5.788   5.000   2.942 -1.0623  1.5230  0.0721
18546THY    CP359722   6.036   5.095   2.821 -0.0892 -0.2836  0.0548
18546THY    HP559723   6.009   4.991   2.799 -1.5698 -0.5406  0.4667
18546THY    HP659724   6.112   5.096   2.900 -0.0660 -0.3068  0.0886
18546THY    HP759725   6.071   5.136   2.726 -0.0221 -0.8760 -1.3232
18546THY    CA359726   6.057   5.368   2.928  0.4549 -0.3533  0.2351
18546THY    HA359727   6.146   5.307   2.924  1.3468 -0.8959  1.5228
18546THY    CA459728   6.073   5.503   2.948  0.3862  0.3103  0.0147
18546THY    HA459729   6.174   5.542   2.948  1.1242  0.5780 -1.7982
18546THY    CA559730   5.967   5.590   2.933 -0.3807  0.6817 -0.1128
18546THY    CM159731   5.987   5.739   2.953  0.0670 -0.5963  0.5169
18546THY    HM159732   6.026   5.793   2.866  3.6464  0.0374 -0.8063
18546THY    HM259733   6.060   5.754   3.034 -0.9350  0.4519 -0.0997
18546THY    HM359734   5.893   5.785   2.986  1.2511  0.6205  2.1977
18546THY    CA659735   5.840   5.543   2.916  0.2948 -0.2715  0.0816
18546THY    HA659736   5.753   5.609   2.918 -1.9449  1.6737 -2.6971
18547THY      O59737   1.796   1.701   3.387 -0.1286  0.3221 -0.9270
18547THY     HO59738   1.753   1.788   3.398  2.9175 -1.3441  0.9669
18547THY    CA159739   1.865   1.687   3.498  0.6922 -0.2715 -0.1875
18547THY    CA259740   1.984   1.616   3.511  0.1605  0.0385  0.2707
18547THY    CP159741   2.050   1.545   3.399  0.4675 -0.4636 -0.6779
18547THY    HP159742   1.993   1.551   3.305  2.6316 -1.7814  0.4443
18547THY    CP259743   2.085   1.405   3.436 -0.0580 -0.2890 -0.0464
18547THY    HP259744   2.003   1.344   3.476 -1.0126  0.7767  1.8486
18547THY    HP359745   2.168   1.418   3.507 -0.2962 -0.5149  3.8891
18547THY    HP459746   2.117   1.350   3.346  1.0425  0.6217 -0.9583
18547THY    CP359747   2.176   1.621   3.357 -0.1522  0.4741  0.2544
18547THY    HP559748   2.235   1.642   3.447 -1.9109  1.5483  0.7749
18547THY    HP659749   2.146   1.714   3.307  0.6478 -1.0458 -0.2683
18547THY    HP759750   2.245   1.566   3.292 -2.2380 -0.5324 -1.2635
18547THY    CA359751   2.052   1.614   3.644 -0.1027 -0.4223  0.1827
18547THY    HA359752   2.148   1.565   3.661  0.5673  1.1512  1.9195
18547THY    CA459753   1.982   1.667   3.752 -0.1542 -0.7167 -0.9113
18547THY    HA459754   2.016   1.660   3.855 -0.8960 -0.3534  0.4082
18547THY    CA559755   1.863   1.736   3.733 -0.3440 -0.4176 -0.6666
18547THY    CM159756   1.774   1.779   3.849 -0.1242  0.2495  0.2931
18547THY    HM159757   1.686   1.840   3.822 -0.0543 -2.9233 -0.8594
18547THY    HM259758   1.834   1.825   3.928  0.4634  1.2726 -2.1127
18547THY    HM359759   1.739   1.691   3.904 -0.5161  1.7455  1.3296
18547THY    CA659760   1.812   1.759   3.604  0.3817  0.3659 -0.0434
18547THY    HA659761   1.717   1.810   3.597  0.9104 -0.8212  0.8195
18548THY      O59762   3.645   8.702   6.164 -0.1052 -0.6771 -0.2245
18548THY     HO59763   3.668   8.797   6.162  0.6297 -0.6315 -0.3927
18548THY    CA159764   3.576   8.673   6.277 -0.4159  0.0132  0.5614
18548THY    CA259765   3.604   8.557   6.356  0.0876  0.2100  0.0191
18548THY    CP159766   3.712   8.458   6.298  0.0313 -0.1722 -0.0056
18548THY    HP159767   3.720   8.463   6.189  0.5661 -0.0985  1.0582
18548THY    CP259768   3.689   8.312   6.330  0.3614  0.2283 -0.0998
18548THY    HP259769   3.600   8.263   6.290 -0.9384  3.6765 -0.8489
18548THY    HP359770   3.694   8.293   6.438 -0.4809 -0.0565 -2.2902
18548THY    HP459771   3.771   8.247   6.298 -2.4128  0.7420 -4.2248
18548THY    CP359772   3.847   8.497   6.363 -0.1879  0.0810 -0.7153
18548THY    HP559773   3.928   8.480   6.291  1.2656  0.0840  4.4807
18548THY    HP659774   3.852   8.432   6.451 -1.8436 -0.0221 -1.0279
18548THY    HP759775   3.845   8.603   6.393  0.4066  0.9118 -0.9271
18548THY    CA359776   3.525   8.538   6.470 -0.9143  0.1034  0.1537
18548THY    HA359777   3.539   8.452   6.534 -0.2295 -0.9557 -0.5454
18548THY    CA459778   3.423   8.628   6.503 -0.1174  0.2699 -0.1844
18548THY    HA459779   3.373   8.620   6.599  0.9753  0.8145 -0.6405
18548THY    CA559780   3.408   8.745   6.426  0.1189 -0.9027 -0.2434
18548THY    CM159781   3.317   8.840   6.485 -0.1274 -0.4158 -0.2536
18548THY    HM159782   3.349   8.897   6.572 -1.4997  1.1972 -1.8053
18548THY    HM259783   3.236   8.780   6.529  2.3889  1.2574 -2.6659
18548THY    HM359784   3.280   8.904   6.404  1.0371 -1.8655 -1.3330
18548THY    CA659785   3.481   8.760   6.315 -0.0366  0.7065 -0.2709
18548THY    HA659786   3.475   8.852   6.259  1.0807 -0.8151 -1.0815
18549THY      O59787   0.975   4.759   7.245 -0.1234 -0.0939  0.3378
18549THY     HO59788   0.929   4.819   7.307  0.6603  1.1106 -0.2631
18549THY    CA159789   0.908   4.764   7.120  1.0952 -0.0545 -0.7904
18549THY    CA259790   0.960   4.698   7.009 -0.4238  0.1593  0.2380
18549THY    CP159791   1.099   4.638   7.013 -0.6528 -0.2069  0.8317
18549THY    HP159792   1.134   4.608   7.113  0.8623 -1.8139 -3.7510
18549THY    CP259793   1.199   4.743   6.953  0.8010 -0.4613  1.0395
18549THY    HP259794   1.298   4.698   6.955 -0.4400  1.7933 -1.9015
18549THY    HP359795   1.195   4.828   7.022  0.8241 -0.6415  1.1873
18549THY    HP459796   1.171   4.758   6.848 -1.1007 -0.5358 -2.0856
18549THY    CP359797   1.103   4.504   6.945 -0.3596  0.3632 -0.0066
18549THY    HP559798   1.107   4.518   6.836 -1.7281  0.0084 -1.9803
18549THY    HP659799   1.010   4.447   6.960  0.3466  3.0020 -0.6006
18549THY    HP759800   1.190   4.447   6.981 -1.2231  1.7463 -0.4871
18549THY    CA359801   0.885   4.701   6.888  1.0592  0.4561  0.7669
18549THY    HA359802   0.921   4.640   6.806 -1.0376  2.0826 -3.0664
18549THY    CA459803   0.760   4.766   6.887 -0.0599  0.3539 -0.0749
18549THY    HA459804   0.700   4.776   6.797 -0.0441  0.3134 -0.3332
18549THY    CA559805   0.708   4.826   7.011 -0.2040  0.5888 -0.2291
18549THY    CM159806   0.575   4.889   7.018  0.6601  0.3035  0.6422
18549THY    HM159807   0.545   4.928   6.919 -1.7455  0.4741 -0.5871
18549THY    HM259808   0.583   4.972   7.088  1.5498  2.6739 -1.3218
18549THY    HM359809   0.488   4.826   7.041  0.7484  1.0555  0.7874
18549THY    CA659810   0.786   4.828   7.121  0.1830  0.1480 -0.3348
18549THY    HA659811   0.754   4.876   7.213  0.9198  0.4281 -0.3694
18550THY      O59812   1.430   7.240   1.969 -0.5970 -0.6901  0.3453
18550THY     HO59813   1.351   7.202   2.011  0.6865  0.6767 -0.9204
18550THY    CA159814   1.491   7.333   2.041 -0.0595 -0.3072 -0.0363
18550THY    CA259815   1.627   7.327   2.070 -0.3919 -0.1161  0.8418
18550THY    CP159816   1.709   7.195   2.057 -0.5377  0.2113 -0.0897
18550THY    HP159817   1.663   7.142   1.973  0.0542 -0.0671 -0.1700
18550THY    CP259818   1.695   7.117   2.187 -0.1840 -0.3648 -0.3211
18550THY    HP259819   1.730   7.015   2.167  1.2704  1.5069 -0.2577
18550THY    HP359820   1.590   7.111   2.216 -0.2271 -0.1766  1.0066
18550THY    HP459821   1.763   7.167   2.257 -3.0214  0.9717  1.9344
18550THY    CP359822   1.856   7.210   2.026 -0.1917  0.3813 -0.0994
18550THY    HP559823   1.908   7.114   2.022 -0.7244 -0.3476 -0.3659
18550THY    HP659824   1.914   7.277   2.090 -0.4578  2.0699 -1.4125
18550THY    HP759825   1.865   7.261   1.930 -0.9177  0.0952 -0.4952
18550THY    CA359826   1.682   7.432   2.145 -0.5049  0.6797  0.0572
18550THY    HA359827   1.782   7.433   2.188 -0.0581 -0.3236  0.3070
18550THY    CA459828   1.611   7.548   2.160  0.9462 -0.1826 -0.6270
18550THY    HA459829   1.648   7.632   2.219  1.4685  1.0094 -1.6693
18550THY    CA559830   1.477   7.559   2.121  0.1738  0.5134  0.6363
18550THY    CM159831   1.404   7.692   2.151  0.1703  0.0968  0.0359
18550THY    HM159832   1.423   7.744   2.245  0.5525 -1.4792  2.9565
18550THY    HM259833   1.298   7.664   2.151  0.3587  1.2135 -0.7418
18550THY    HM359834   1.422   7.765   2.071 -1.8127 -1.7707 -1.3925
18550THY    CA659835   1.414   7.447   2.065 -0.1908 -0.2552 -0.0997
18550THY    HA659836   1.307   7.445   2.043 -0.2383 -0.4134  1.9860
18551THY      O59837   2.201   5.715   4.769 -0.5815 -0.1849  0.5396
18551THY     HO59838   2.137   5.747   4.835 -0.1333 -0.0743  1.2090
18551THY    CA159839   2.203   5.586   4.787  0.8938  0.2465  0.2632
18551THY    CA259840   2.124   5.500   4.704 -0.0002  0.0453 -0.4068
18551THY    CP159841   2.047   5.548   4.578 -0.6568 -0.5066 -0.6883
18551THY    HP159842   2.001   5.644   4.606 -0.4197 -0.3663 -0.6140
18551THY    CP259843   1.945   5.453   4.508 -0.2212 -0.7676  0.2753
18551THY    HP259844   1.885   5.517   4.442 -1.4978 -0.1150 -0.2224
18551THY    HP359845   1.878   5.415   4.586 -2.6778 -2.5614  0.6774
18551THY    HP459846   1.993   5.373   4.450 -0.1020 -1.6053  0.9310
18551THY    CP359847   2.161   5.593   4.485 -0.4567  0.1325  0.6466
18551THY    HP559848   2.230   5.510   4.466 -3.1184 -0.0972 -1.6719
18551THY    HP659849   2.215   5.682   4.518  1.8452 -1.7214  0.0453
18551THY    HP759850   2.110   5.601   4.388  2.6625 -1.6457  0.2832
18551THY    CA359851   2.136   5.363   4.726 -0.2395  0.3636 -0.3523
18551THY    HA359852   2.090   5.294   4.656  0.1408 -1.5232  1.2281
18551THY    CA459853   2.215   5.316   4.833  0.6304 -0.1711  0.1179
18551THY    HA459854   2.219   5.209   4.851 -1.1853  0.0827  0.0607
18551THY    CA559855   2.295   5.399   4.910 -0.5537  0.0328 -0.2507
18551THY    CM159856   2.382   5.348   5.022  0.7717 -0.3067  0.5990
18551THY    HM159857   2.332   5.299   5.107  1.6567 -0.1841 -0.1269
18551THY    HM259858   2.445   5.427   5.064  3.7849 -0.7175 -1.4095
18551THY    HM359859   2.453   5.276   4.980  1.9380  0.0255  1.5289
18551THY    CA659860   2.277   5.538   4.895  0.2011 -0.0227 -0.4903
18551THY    HA659861   2.334   5.609   4.954  1.2936  1.1349 -2.2515
18552THY      O59862   7.367   5.170   2.456 -0.0688 -0.4332  0.7619
18552THY     HO59863   7.288   5.172   2.513  0.2814  0.0799  0.2418
18552THY    CA159864   7.444   5.275   2.483 -0.1368 -0.4158  0.5663
18552THY    CA259865   7.582   5.271   2.457  0.4439  0.1987 -0.0247
18552THY    CP159866   7.644   5.148   2.400  0.1085  0.1600  0.3616
18552THY    HP159867   7.573   5.081   2.351  1.0776 -0.5728 -0.1617
18552THY    CP259868   7.728   5.068   2.498 -0.6594 -0.2391  1.0142
18552THY    HP259869   7.668   5.018   2.575  3.0847  1.2812 -1.5670
18552THY    HP359870   7.791   5.128   2.564  0.1962  1.1325 -1.2643
18552THY    HP459871   7.789   4.990   2.452  0.2016  0.4596  1.2600
18552THY    CP359872   7.730   5.186   2.282 -0.2268 -0.0095 -0.0996
18552THY    HP559873   7.677   5.256   2.217  2.1656 -0.0993  1.7699
18552THY    HP659874   7.766   5.097   2.229 -0.0995 -0.9086  0.4761
18552THY    HP759875   7.815   5.242   2.322 -0.9354  1.2632  0.1056
18552THY    CA359876   7.661   5.392   2.485 -0.2323  0.0106 -0.5912
18552THY    HA359877   7.764   5.396   2.450 -1.1175 -2.8313 -0.0580
18552THY    CA459878   7.586   5.506   2.534 -0.2620  0.2081  0.1676
18552THY    HA459879   7.641   5.597   2.556 -0.3960 -0.4218  0.4081
18552THY    CA559880   7.450   5.502   2.562 -0.5912 -0.0390 -0.1927
18552THY    CM159881   7.379   5.611   2.614 -0.0391 -0.0960 -0.8845
18552THY    HM159882   7.273   5.595   2.636 -0.0906 -1.0170 -1.9031
18552THY    HM259883   7.384   5.700   2.550 -0.4888 -0.1725 -0.9144
18552THY    HM359884   7.421   5.652   2.707 -0.6589  0.7351 -2.0589
18552THY    CA659885   7.383   5.385   2.544  0.0733  0.2710  0.1013
18552THY    HA659886   7.279   5.375   2.575 -0.2115 -1.2107 -2.2713
18553THY      O59887   6.782   4.405   7.063  0.1341  0.3595  0.0803
18553THY     HO59888   6.837   4.479   7.093  3.1270  1.7570 -2.4681
18553THY    CA159889   6.868   4.298   7.061 -0.0095 -0.1883  0.5930
18553THY    CA259890   6.821   4.173   7.024 -0.2993  0.3946 -0.1513
18553THY    CP159891   6.676   4.147   6.998  0.2826 -0.1060  0.2818
18553THY    HP159892   6.631   4.211   7.075  1.0512  0.3922  0.2432
18553THY    CP259893   6.625   4.007   7.008  0.5233 -1.0441 -0.3246
18553THY    HP259894   6.639   3.941   6.922 -1.2687 -1.3314 -0.3792
18553THY    HP359895   6.518   4.019   7.027  0.8161 -0.4749  1.7623
18553THY    HP459896   6.669   3.957   7.095  3.0993 -2.2815 -0.3260
18553THY    CP359897   6.624   4.188   6.864 -0.3278  0.1760 -0.0693
18553THY    HP559898   6.647   4.291   6.837  2.0996 -3.6205 -1.3816
18553THY    HP659899   6.516   4.175   6.851 -0.2623 -0.4331 -0.0246
18553THY    HP759900   6.677   4.127   6.790 -1.9033 -1.1400  0.1129
18553THY    CA359901   6.917   4.066   6.995  0.0007 -0.4091  0.3414
18553THY    HA359902   6.888   3.970   6.953  1.5563  1.5272 -1.0868
18553THY    CA459903   7.048   4.084   7.041 -0.2900  0.3836  0.1858
18553THY    HA459904   7.119   4.002   7.030 -2.0769  0.8333 -1.5073
18553THY    CA559905   7.094   4.210   7.082  0.0572 -0.7422 -0.0412
18553THY    CM159906   7.237   4.240   7.120  0.5253  0.4508 -0.2017
18553THY    HM159907   7.255   4.343   7.154 -1.1595 -0.3837  0.4014
18553THY    HM259908   7.305   4.206   7.041  0.4401  0.9768 -1.6614
18553THY    HM359909   7.249   4.185   7.214  4.4662 -0.9581 -2.1462
18553THY    CA659910   7.001   4.312   7.099 -0.4842  0.5300  0.2049
18553THY    HA659911   7.040   4.403   7.144 -2.6189  0.2150  1.3317
18554THY      O59912   6.740   4.869   1.925 -0.2836 -0.1275 -0.0380
18554THY     HO59913   6.821   4.921   1.943 -0.4366 -0.5784  0.3654
18554THY    CA159914   6.666   4.880   2.042  0.6189  0.4659  0.1676
18554THY    CA259915   6.555   4.798   2.069  0.3269  0.5290 -0.2790
18554THY    CP159916   6.513   4.690   1.967  0.0781  0.0799 -0.1578
18554THY    HP159917   6.592   4.700   1.891  1.5735  1.3604 -1.6519
18554THY    CP259918   6.370   4.716   1.904 -0.8569  0.6628 -0.4478
18554THY    HP259919   6.367   4.816   1.858  0.4009 -0.3139 -0.8445
18554THY    HP359920   6.297   4.723   1.986 -2.9927 -1.1707 -0.2614
18554THY    HP459921   6.348   4.641   1.828 -1.2040  1.8878 -1.6212
18554THY    CP359922   6.508   4.548   2.018 -0.7823 -0.1439 -0.1640
18554THY    HP559923   6.433   4.541   2.098 -0.7866 -0.2842 -2.1880
18554THY    HP659924   6.600   4.513   2.066 -0.8780 -0.5498 -0.9987
18554THY    HP759925   6.493   4.475   1.938 -0.8424  0.2629 -0.6028
18554THY    CA359926   6.494   4.809   2.193  0.3088 -0.2981 -0.4895
18554THY    HA359927   6.409   4.746   2.218 -1.7041 -2.2472  1.2626
18554THY    CA459928   6.538   4.916   2.275  0.5288  0.1193 -0.5232
18554THY    HA459929   6.474   4.934   2.362 -0.4928 -1.0794  2.1021
18554THY    CA559930   6.645   5.005   2.249 -0.2585  0.2655 -0.4664
18554THY    CM159931   6.673   5.127   2.326  0.0419 -0.1048 -0.1290
18554THY    HM159932   6.619   5.212   2.282  0.1939  2.4699  1.4189
18554THY    HM259933   6.780   5.146   2.337 -0.2852  2.5283  0.5904
18554THY    HM359934   6.638   5.125   2.430  1.4964  0.4112 -2.8795
18554THY    CA659935   6.705   4.987   2.125  0.1579 -0.7440  0.1239
18554THY    HA659936   6.786   5.052   2.094 -2.0860 -1.6387  2.6945
18555THY      O59937   3.252   8.527   4.651 -0.2339  0.5288 -0.6220
18555THY     HO59938   3.299   8.546   4.734 -0.3397  0.6764 -1.0007
18555THY    CA159939   3.317   8.596   4.548 -0.4887 -0.0835  0.5237
18555THY    CA259940   3.258   8.710   4.492  0.6506 -0.5933  0.6471
18555THY    CP159941   3.121   8.754   4.544  0.3670 -0.3061  0.7362
18555THY    HP159942   3.064   8.676   4.594  0.6942 -0.2556  0.5299
18555THY    CP259943   3.024   8.793   4.433  0.6033 -0.4683 -0.1835
18555THY    HP259944   2.926   8.822   4.472  0.3861  0.4113 -1.9716
18555THY    HP359945   3.003   8.708   4.367  0.5688  1.0483 -1.3976
18555THY    HP459946   3.070   8.874   4.375  1.2830 -2.4807 -1.9113
18555THY    CP359947   3.126   8.864   4.652 -0.4450  0.4060 -0.0781
18555THY    HP559948   3.177   8.820   4.738 -1.9382 -0.5810 -4.1309
18555THY    HP659949   3.026   8.894   4.684 -0.9426 -0.6871 -0.4992
18555THY    HP759950   3.176   8.952   4.610 -0.2576  0.9149  0.0603
18555THY    CA359951   3.329   8.775   4.394 -0.8135 -0.2526 -0.5131
18555THY    HA359952   3.282   8.855   4.337 -2.0083  0.8169 -0.4393
18555THY    CA459953   3.445   8.714   4.343 -0.5100  0.2452 -0.1112
18555THY    HA459954   3.491   8.754   4.253  0.5934  0.3470 -1.0818
18555THY    CA559955   3.499   8.599   4.395 -0.4122  0.5889 -0.1115
18555THY    CM159956   3.614   8.518   4.323 -0.3564  0.1724 -0.2717
18555THY    HM159957   3.599   8.509   4.214 -1.4265  0.3044 -0.2158
18555THY    HM259958   3.614   8.414   4.357 -0.0103 -2.7089 -1.3217
18555THY    HM359959   3.711   8.561   4.350  0.4671 -0.7983 -1.4338
18555THY    CA659960   3.436   8.539   4.503  0.3095 -0.3130  0.1457
18555THY    HA659961   3.463   8.445   4.549 -1.9181  0.4535 -0.1734
18556THY      O59962   2.104   8.505   3.153 -0.5562 -0.1998  0.0810
18556THY     HO59963   2.032   8.518   3.089 -1.2531  0.8854  2.1177
18556THY    CA159964   2.189   8.607   3.134 -0.5071 -0.4082  0.1121
18556THY    CA259965   2.329   8.586   3.153  0.9664 -0.0740 -0.8765
18556THY    CP159966   2.397   8.458   3.203 -0.3912  0.7560 -0.0692
18556THY    HP159967   2.317   8.388   3.231 -0.1809  1.8589  0.1125
18556THY    CP259968   2.487   8.474   3.335  0.2219 -0.2289 -0.2862
18556THY    HP259969   2.545   8.567   3.342  0.3488 -0.3293 -0.3587
18556THY    HP359970   2.567   8.400   3.339 -0.4376  0.0804 -0.9954
18556THY    HP459971   2.417   8.468   3.419 -0.8166 -0.7927  2.3632
18556THY    CP359972   2.496   8.398   3.097 -0.2809  0.1858  0.6020
18556THY    HP559973   2.449   8.384   3.000  1.6939 -0.8632  0.9427
18556THY    HP659974   2.543   8.305   3.130  0.7428  0.3817  1.1696
18556THY    HP759975   2.579   8.470   3.098  2.9402  3.8884 -2.6179
18556THY    CA359976   2.408   8.698   3.128  0.3331 -0.2358 -0.3292
18556THY    HA359977   2.516   8.692   3.130  0.4125  0.2129  0.9843
18556THY    CA459978   2.354   8.819   3.084 -0.2548 -0.2267 -0.3819
18556THY    HA459979   2.415   8.906   3.062  0.5720  1.3158 -0.5275
18556THY    CA559980   2.226   8.830   3.057  0.5029 -0.2322  0.7561
18556THY    CM159981   2.174   8.963   3.006 -0.0074  0.3300 -0.3522
18556THY    HM159982   2.138   8.945   2.904  0.3837 -0.3410  2.2869
18556THY    HM259983   2.252   9.039   2.999 -0.9326  1.3121  0.7295
18556THY    HM359984   2.090   9.001   3.065 -0.6848 -0.5864 -0.3861
18556THY    CA659985   2.141   8.724   3.081  0.2117 -0.2811 -0.5610
18556THY    HA659986   2.034   8.741   3.085  0.7058  2.4621  3.1130
18557THY      O59987   1.754   6.479   5.146  0.6157 -0.3478 -0.3642
18557THY     HO59988   1.723   6.542   5.078 -1.8419 -1.0453 -2.1505
18557THY    CA159989   1.644   6.467   5.221 -0.1477  0.0492 -0.1504
18557THY    CA259990   1.626   6.352   5.306  0.3537  0.3641 -0.0896
18557THY    CP159991   1.733   6.240   5.308 -0.2391 -0.4350  0.8295
18557THY    HP159992   1.833   6.276   5.283 -0.0462  0.5984  1.0316
18557THY    CP259993   1.690   6.130   5.205 -0.1887 -0.2087  0.0502
18557THY    HP259994   1.593   6.083   5.226 -1.0266 -1.8128  0.9881
18557THY    HP359995   1.771   6.055   5.200 -0.6626  0.8628 -0.5659
18557THY    HP459996   1.686   6.183   5.110  1.7366 -1.8815 -2.5482
18557THY    CP359997   1.741   6.177   5.442 -0.1787 -0.2106 -0.2157
18557THY    HP559998   1.657   6.109   5.456 -0.2618  1.2081  0.1514
18557THY    HP659999   1.762   6.259   5.511 -0.1593 -1.4451  0.8467
18557THY    HP760000   1.830   6.112   5.437  1.0385  0.2778  1.3456
18557THY    CA360001   1.503   6.347   5.380 -0.2986 -0.6488 -0.4341
18557THY    HA360002   1.496   6.257   5.441 -1.1837  0.6999  0.5211
18557THY    CA460003   1.414   6.448   5.377 -0.2153  0.0758 -0.4053
18557THY    HA460004   1.331   6.446   5.446  0.1223  0.5411  0.9153
18557THY    CA560005   1.437   6.561   5.291 -0.1756  0.2226 -0.5740
18557THY    CM160006   1.354   6.692   5.292  0.7044 -0.3318  0.1329
18557THY    HM160007   1.414   6.782   5.309  0.0087 -1.1957  0.7770
18557THY    HM260008   1.269   6.684   5.361 -0.2665 -1.3132  1.5436
18557THY    HM360009   1.309   6.714   5.194  1.3301 -0.0752  2.8637
18557THY    CA660010   1.555   6.570   5.216  0.6457 -0.4388 -0.6126
18557THY    HA660011   1.575   6.663   5.164 -0.1738 -1.0911 -0.7873
18558THY      O60012   7.884   3.874   7.601 -0.1250  0.1532 -0.0561
18558THY     HO60013   7.865   3.824   7.682  1.9015  0.2192 -0.7698
18558THY    CA160014   7.845   3.799   7.494 -0.1217 -0.3442 -0.0241
18558THY    CA260015   7.909   3.792   7.372  0.6296 -0.2296 -0.1281
18558THY    CP160016   8.043   3.868   7.351 -0.2278  0.0345  0.1946
18558THY    HP160017   8.077   3.905   7.449  0.4607 -0.3489  0.6143
18558THY    CP260018   8.030   3.992   7.262 -0.0156 -0.0832  0.7624
18558THY    HP260019   8.128   4.041   7.255 -0.2992 -0.6688  1.2659
18558THY    HP360020   7.958   4.060   7.309  0.3478  2.2863 -0.3881
18558THY    HP460021   7.991   3.972   7.161 -0.6707  0.3926 -0.4405
18558THY    CP360022   8.159   3.778   7.307 -0.1774 -0.4836  0.3688
18558THY    HP560023   8.255   3.831   7.313 -0.0670  1.2278  0.0306
18558THY    HP660024   8.145   3.740   7.206 -1.0425  0.3306 -1.5960
18558THY    HP760025   8.161   3.682   7.361  1.7860  1.2508  1.2894
18558THY    CA360026   7.858   3.712   7.270  0.1998  0.4563  0.1865
18558THY    HA360027   7.912   3.713   7.176  1.0917  0.9537  0.5426
18558THY    CA460028   7.731   3.645   7.287 -0.0045 -0.0837 -0.2842
18558THY    HA460029   7.683   3.590   7.206 -0.4043 -1.7037  2.2684
18558THY    CA560030   7.673   3.652   7.410  0.1140 -0.4219 -0.1057
18558THY    CM160031   7.543   3.582   7.437 -1.1551 -0.9284 -0.1929
18558THY    HM160032   7.572   3.476   7.447 -0.5548  1.3406  0.1332
18558THY    HM260033   7.475   3.588   7.352 -1.3950 -0.6781  0.7038
18558THY    HM360034   7.489   3.619   7.524 -2.7990 -2.2562  0.6395
18558THY    CA660035   7.728   3.724   7.519  0.5870  0.7309 -0.4054
18558THY    HA660036   7.688   3.717   7.619 -1.2929  0.0063 -0.6012
18559THY      O60037   6.611   7.979   3.662  0.0459 -0.0585  0.0091
18559THY     HO60038   6.532   7.924   3.669 -0.2226 -1.4920  0.1860
18559THY    CA160039   6.708   7.932   3.741  0.4970 -0.1872  0.1264
18559THY    CA260040   6.833   7.992   3.764  0.2490  0.5461 -0.5244
18559THY    CP160041   6.880   8.116   3.681 -0.1758  0.3289  0.7604
18559THY    HP160042   6.792   8.167   3.639 -0.4221 -0.9472 -0.6494
18559THY    CP260043   6.987   8.082   3.577 -0.1877 -0.4751 -0.2332
18559THY    HP260044   7.067   8.040   3.640 -0.8799  0.5854 -0.0043
18559THY    HP360045   7.023   8.169   3.522 -1.6480 -0.7824  0.2160
18559THY    HP460046   6.943   8.013   3.504  0.2318 -1.0064  0.0610
18559THY    CP360047   6.929   8.226   3.773  0.4263  0.2854 -0.3499
18559THY    HP560048   6.869   8.240   3.864 -2.0982 -1.4089  0.7693
18559THY    HP660049   6.932   8.329   3.736 -0.9555  0.8253 -0.0902
18559THY    HP760050   7.032   8.201   3.800  0.3237  0.1271 -0.9538
18559THY    CA360051   6.920   7.941   3.856  0.0199  0.1046 -0.1180
18559THY    HA360052   7.020   7.975   3.881  0.1998 -2.8405  1.9079
18559THY    CA460053   6.884   7.821   3.923  0.2970 -0.1392  0.1451
18559THY    HA460054   6.962   7.773   3.982 -0.5348  1.5715  0.7985
18559THY    CA560055   6.757   7.773   3.917  0.2330 -0.2754 -0.5797
18559THY    CM160056   6.729   7.642   3.988  0.4862 -0.8250 -0.7953
18559THY    HM160057   6.808   7.570   3.964  1.3340  1.7628 -0.8193
18559THY    HM260058   6.631   7.606   3.954  1.0249 -2.3361 -0.9279
18559THY    HM360059   6.734   7.653   4.097  1.0065 -0.7664 -1.5613
18559THY    CA660060   6.662   7.834   3.831 -0.1914 -0.1918  0.4196
18559THY    HA660061   6.562   7.794   3.813  0.1507 -3.4920  0.7996
18560THY      O60062   5.146   1.404   3.291  0.0552  0.2161 -0.0434
18560THY     HO60063   5.100   1.482   3.256 -1.4000  1.6031 -0.2392
18560THY    CA160064   5.218   1.373   3.181  0.2783  0.2235  0.2312
18560THY    CA260065   5.328   1.281   3.190 -0.0940 -0.2455  0.7116
18560THY    CP160066   5.362   1.207   3.315 -0.5733  0.3192  0.0052
18560THY    HP160067   5.285   1.226   3.390 -0.0466  0.6889  0.7125
18560THY    CP260068   5.490   1.269   3.366  0.5550  0.0790 -0.3043
18560THY    HP260069   5.575   1.267   3.297  1.1703  0.8083  0.2338
18560THY    HP360070   5.528   1.219   3.456 -0.2529 -0.7497 -2.5663
18560THY    HP460071   5.462   1.366   3.409 -1.0453  1.2992 -1.2616
18560THY    CP360072   5.373   1.059   3.309  0.9580  0.3478  0.6531
18560THY    HP560073   5.406   1.011   3.401  0.8049 -1.5149 -3.4591
18560THY    HP660074   5.450   1.020   3.242  0.7041  0.6874 -0.4609
18560THY    HP760075   5.279   1.019   3.269  1.9406 -0.1068 -1.3318
18560THY    CA360076   5.403   1.262   3.076 -0.5464 -0.6937  0.2587
18560THY    HA360077   5.484   1.190   3.077 -1.3359  0.6298 -0.6487
18560THY    CA460078   5.383   1.341   2.961 -0.5945  0.0963  0.6341
18560THY    HA460079   5.440   1.325   2.871 -0.1663  0.7304 -1.7695
18560THY    CA560080   5.279   1.430   2.956 -0.5951  0.4940  0.0042
18560THY    CM160081   5.251   1.501   2.825 -0.3630  0.0848 -0.0588
18560THY    HM160082   5.235   1.430   2.743  1.6264 -1.2210  0.8921
18560THY    HM260083   5.341   1.548   2.784 -0.6296 -1.5485 -0.9125
18560THY    HM360084   5.165   1.568   2.826 -1.4478  1.9913 -1.3722
18560THY    CA660085   5.197   1.448   3.069  0.3256  0.5752 -0.3786
18560THY    HA660086   5.116   1.519   3.061 -0.3403  3.6568 -0.6378
18561THY      O60087   4.382   5.428   6.910 -0.4415 -0.0745 -0.4250
18561THY     HO60088   4.454   5.471   6.860  0.2380  2.5806  1.8726
18561THY    CA160089   4.321   5.348   6.827 -0.3823 -1.2588  0.1767
18561THY    CA260090   4.331   5.212   6.849 -0.6110  0.2649  1.1217
18561THY    CP160091   4.413   5.158   6.960 -1.1267 -0.1466  0.0589
18561THY    HP160092   4.465   5.237   7.016 -0.1572  2.0973 -2.0235
18561THY    CP260093   4.525   5.060   6.915  0.0322 -0.4414 -0.4966
18561THY    HP260094   4.612   5.076   6.980  1.4900 -2.6077  0.7348
18561THY    HP360095   4.557   5.086   6.814  3.4520 -0.2937 -3.4508
18561THY    HP460096   4.474   4.963   6.908 -0.2089 -0.8930 -0.3412
18561THY    CP360097   4.334   5.077   7.058  0.0944  0.2413 -0.0716
18561THY    HP560098   4.402   5.012   7.115  2.3186 -2.2045 -0.0326
18561THY    HP660099   4.270   5.004   7.007 -0.7367 -0.0546  0.8414
18561THY    HP760100   4.266   5.140   7.116 -1.1479 -1.0422 -0.1835
18561THY    CA360101   4.249   5.127   6.764 -0.2973 -0.6067 -0.5915
18561THY    HA360102   4.247   5.020   6.785  0.3968 -0.6816 -0.6225
18561THY    CA460103   4.183   5.187   6.653  0.8635 -0.1480  0.0759
18561THY    HA460104   4.122   5.119   6.594  0.0519  1.8391 -1.0065
18561THY    CA560105   4.181   5.321   6.629  0.6191 -0.3681 -0.2435
18561THY    CM160106   4.091   5.370   6.524 -0.3407 -0.1590 -0.9454
18561THY    HM160107   3.985   5.354   6.546 -0.4365 -0.4950 -0.7769
18561THY    HM260108   4.107   5.318   6.429 -1.7730 -0.7210 -0.4163
18561THY    HM360109   4.115   5.477   6.522  1.9245 -1.7476 -1.4175
18561THY    CA660110   4.248   5.407   6.722  0.3058 -0.0134  1.3207
18561THY    HA660111   4.236   5.515   6.726 -0.8929 -0.2514  1.2098
18562THY      O60112   5.859   3.272   6.441  0.3727  0.1373  0.4659
18562THY     HO60113   5.885   3.318   6.359  1.5437  0.0126 -0.3854
18562THY    CA160114   5.978   3.250   6.508  0.2536 -0.1270  0.3323
18562THY    CA260115   5.983   3.175   6.623  0.2615 -0.3442  0.6145
18562THY    CP160116   5.853   3.126   6.687 -0.0366  0.3324  0.3978
18562THY    HP160117   5.770   3.176   6.636 -1.4985 -0.2424 -2.4512
18562THY    CP260118   5.842   3.166   6.834 -0.1529  0.4157 -0.1492
18562THY    HP260119   5.740   3.151   6.871 -0.3844 -0.7128 -1.6292
18562THY    HP360120   5.878   3.269   6.849  1.3360 -0.2568 -0.5467
18562THY    HP460121   5.915   3.116   6.898 -0.6160  0.3395 -0.9334
18562THY    CP360122   5.847   2.973   6.677  0.3921 -0.3496  0.5997
18562THY    HP560123   5.780   2.942   6.759 -0.0756 -1.2363 -0.8085
18562THY    HP660124   5.930   2.909   6.707 -2.3646  0.3232 -3.0145
18562THY    HP760125   5.805   2.941   6.581 -0.8855  0.7227 -1.1413
18562THY    CA360126   6.105   3.131   6.683 -0.0412 -0.5147 -1.0650
18562THY    HA360127   6.107   3.066   6.770 -1.7439 -1.0970 -1.9776
18562THY    CA460128   6.220   3.156   6.607  0.1921  0.0222 -0.1984
18562THY    HA460129   6.317   3.117   6.639  0.2793 -0.7920 -0.6954
18562THY    CA560130   6.215   3.225   6.485  0.3064  0.1543 -0.0332
18562THY    CM160131   6.341   3.236   6.398  0.1687  0.2148  0.3662
18562THY    HM160132   6.387   3.136   6.397 -1.1447  0.0034 -0.2524
18562THY    HM260133   6.407   3.311   6.442  0.8099 -1.9934  1.2010
18562THY    HM360134   6.323   3.255   6.291  3.0290 -0.6865 -1.3421
18562THY    CA660135   6.095   3.274   6.437 -0.1367 -0.6637 -0.4547
18562THY    HA660136   6.102   3.339   6.351  1.8237 -0.5979 -0.4907
18563THY      O60137   0.996   2.960   3.824  0.1415  0.8207  0.3232
18563THY     HO60138   1.065   3.020   3.789  0.4938 -1.0470 -1.0683
18563THY    CA160139   0.890   3.042   3.828 -0.1901 -0.4735  0.2979
18563THY    CA260140   0.766   3.000   3.877  0.0237 -0.3421 -0.0879
18563THY    CP160141   0.750   2.864   3.936  1.3335 -0.3204  0.4263
18563THY    HP160142   0.847   2.835   3.977  1.0773  0.4510  0.6350
18563THY    CP260143   0.693   2.772   3.830 -0.3003 -0.1679 -0.4193
18563THY    HP260144   0.755   2.754   3.742 -0.8780 -0.5426 -0.6019
18563THY    HP360145   0.604   2.814   3.781  1.0688 -2.0063  0.4386
18563THY    HP460146   0.649   2.681   3.874 -1.2135  0.3099  0.2332
18563THY    CP360147   0.658   2.855   4.062  0.3615  0.0083  0.2162
18563THY    HP560148   0.698   2.926   4.134  1.8951 -0.9815  0.3961
18563THY    HP660149   0.665   2.751   4.097  3.3215  1.0713  0.6950
18563THY    HP760150   0.555   2.878   4.032  0.5227 -0.3674  0.4399
18563THY    CA360151   0.651   3.082   3.856  0.3760  0.4576  0.5882
18563THY    HA360152   0.552   3.055   3.891 -0.7728 -1.7247  1.6717
18563THY    CA460153   0.668   3.209   3.793  0.0200 -0.0616 -0.2677
18563THY    HA460154   0.586   3.266   3.750 -1.0501  0.4645 -1.3766
18563THY    CA560155   0.794   3.259   3.762 -0.0580 -0.5968  0.9329
18563THY    CM160156   0.814   3.379   3.672  0.4595 -0.6519 -0.0715
18563THY    HM160157   0.811   3.475   3.724 -0.7808 -0.6138 -0.1206
18563THY    HM260158   0.726   3.374   3.607 -2.1534  2.7280 -2.4036
18563THY    HM360159   0.910   3.366   3.620  0.0531 -1.7528  1.1553
18563THY    CA660160   0.907   3.172   3.774  0.3998 -0.3467 -0.2548
18563THY    HA660161   1.003   3.194   3.730 -0.5643 -1.8015  1.2940
18564THY      O60162   8.713   1.265   2.502 -0.0023  0.4594  0.1380
18564THY     HO60163   8.746   1.350   2.535 -0.8226 -2.7288  1.8640
18564THY    CA160164   8.822   1.190   2.471 -0.1061 -0.4911 -0.0782
18564THY    CA260165   8.799   1.056   2.435  0.1013 -0.0858  0.8056
18564THY    CP160166   8.669   0.977   2.431  0.4144 -0.6886  0.2379
18564THY    HP160167   8.587   1.048   2.451  0.2539  1.5552 -0.4907
18564THY    CP260168   8.646   0.883   2.549  0.0900  0.0110 -0.3490
18564THY    HP260169   8.679   0.945   2.634 -0.1395 -0.2466  0.1352
18564THY    HP360170   8.715   0.798   2.544 -0.1096  1.5764 -0.6328
18564THY    HP460171   8.544   0.847   2.562  0.0371 -1.1177 -0.6452
18564THY    CP360172   8.648   0.904   2.293 -0.1308 -0.1937  0.3546
18564THY    HP560173   8.543   0.873   2.291 -0.1045 -1.2989  0.2778
18564THY    HP660174   8.704   0.811   2.279 -1.0565  1.1506 -0.4448
18564THY    HP760175   8.664   0.981   2.216  2.3144 -0.3419 -0.2178
18564THY    CA360176   8.909   0.982   2.402 -0.6227  0.8058  0.2092
18564THY    HA360177   8.901   0.881   2.365  0.3843  0.8506  0.1026
18564THY    CA460178   9.036   1.042   2.391 -0.8576 -0.2134  0.4158
18564THY    HA460179   9.127   0.993   2.357 -0.4531  0.5369  0.6311
18564THY    CA560180   9.057   1.170   2.440  0.0788 -0.1077 -0.2760
18564THY    CM160181   9.194   1.219   2.469 -0.4003 -0.2565 -0.2651
18564THY    HM160182   9.219   1.211   2.576  1.3052 -0.7447 -2.1371
18564THY    HM260183   9.226   1.320   2.441  1.8697  0.9356 -0.5749
18564THY    HM360184   9.270   1.152   2.427 -0.3800 -2.8137  1.2012
18564THY    CA660185   8.949   1.248   2.483 -0.0729  0.5984  0.3157
18564THY    HA660186   8.964   1.350   2.517  1.3119  1.9156 -0.2834
18565THY      O60187   9.370   0.863   2.366  0.3395  0.6919 -0.0474
18565THY     HO60188   9.454   0.906   2.340  0.4554  1.6754  0.3434
18565THY    CA160189   9.364   0.879   2.503 -1.0243  0.1375  0.8639
18565THY    CA260190   9.295   0.794   2.587  0.0821 -0.2591 -0.0685
18565THY    CP160191   9.222   0.677   2.518  0.1189 -0.7989  0.4716
18565THY    HP160192   9.203   0.688   2.411 -1.3660 -0.8409 -1.8586
18565THY    CP260193   9.084   0.655   2.579 -0.6855 -0.0740  0.0047
18565THY    HP260194   9.038   0.753   2.562  0.8977 -1.9871  0.4851
18565THY    HP360195   9.087   0.621   2.683  0.5954  0.1010  0.5983
18565THY    HP460196   9.023   0.587   2.517 -0.2599 -3.5589  2.5141
18565THY    CP360197   9.307   0.554   2.524 -0.0464 -0.8299  0.9242
18565THY    HP560198   9.343   0.527   2.624 -5.0358  0.9798 -0.2078
18565THY    HP660199   9.388   0.563   2.450  0.5478 -0.7747 -2.7272
18565THY    HP760200   9.242   0.477   2.481  0.6187 -1.2331  0.5811
18565THY    CA360201   9.306   0.813   2.728 -0.2049  0.3020 -0.1811
18565THY    HA360202   9.261   0.740   2.794 -2.0169 -0.2025  0.4164
18565THY    CA460203   9.367   0.928   2.778 -0.2673  0.4482 -0.3482
18565THY    HA460204   9.383   0.940   2.885 -0.2891  0.1884  3.0265
18565THY    CA560205   9.427   1.024   2.689 -0.0745 -1.1673 -0.2105
18565THY    CM160206   9.504   1.143   2.747 -0.6508  0.4060 -0.0080
18565THY    HM160207   9.540   1.116   2.846 -1.1727  0.4552 -0.5530
18565THY    HM260208   9.438   1.231   2.750 -0.1154 -1.9688  0.5606
18565THY    HM360209   9.586   1.180   2.685 -0.9007 -0.9507 -1.6052
18565THY    CA660210   9.429   0.990   2.553 -0.3279 -0.2942  0.2636
18565THY    HA660211   9.479   1.062   2.488  0.8342  0.4065  0.1209
18566THY      O60212   4.748   1.947   7.598  0.0377 -0.0838 -0.0951
18566THY     HO60213   4.748   2.016   7.529  3.0975 -2.3449 -2.0882
18566THY    CA160214   4.624   1.936   7.651 -0.3816  0.1365  0.1212
18566THY    CA260215   4.587   1.832   7.736  0.9861 -0.5620  0.2110
18566THY    CP160216   4.689   1.724   7.761  0.0953 -0.3878 -0.0518
18566THY    HP160217   4.793   1.757   7.763 -0.2028  1.0821  0.9011
18566THY    CP260218   4.696   1.611   7.655 -0.2319 -0.4239 -0.2089
18566THY    HP260219   4.604   1.552   7.653 -1.4650 -0.5261  1.6221
18566THY    HP360220   4.776   1.541   7.682 -1.4520  1.1259 -1.0730
18566THY    HP460221   4.722   1.647   7.555  2.7852  0.0880 -0.6997
18566THY    CP360222   4.664   1.668   7.910  0.5504  0.8691  0.2953
18566THY    HP560223   4.755   1.626   7.954  0.0275  3.5421  1.7415
18566THY    HP660224   4.575   1.603   7.908  0.1447 -1.1626  0.8381
18566THY    HP760225   4.639   1.751   7.977 -2.7501 -0.1572  0.2906
18566THY    CA360226   4.455   1.819   7.786 -0.1803  0.6213 -0.1660
18566THY    HA360227   4.423   1.738   7.851  0.6652  0.2868 -0.7877
18566THY    CA460228   4.365   1.924   7.758 -0.0118 -0.1128 -0.5764
18566THY    HA460229   4.266   1.926   7.802 -1.1945 -2.5548  2.1899
18566THY    CA560230   4.405   2.037   7.682 -0.0531 -0.0744  0.2552
18566THY    CM160231   4.307   2.152   7.668  0.5856  1.1502 -0.2402
18566THY    HM160232   4.302   2.181   7.562  1.5313  1.1431 -0.0622
18566THY    HM260233   4.358   2.239   7.711  0.8096 -2.0199  1.3461
18566THY    HM360234   4.206   2.135   7.708  0.4270  0.5764 -0.6768
18566THY    CA660235   4.532   2.041   7.628 -1.0673 -0.3428 -0.3236
18566THY    HA660236   4.554   2.124   7.561 -1.5281 -1.2939 -0.9515
18567THY      O60237   7.321   5.851   2.833  0.0915  0.5904 -0.4544
18567THY     HO60238   7.406   5.818   2.866  0.1904 -1.1622 -2.1102
18567THY    CA160239   7.297   5.983   2.865  0.3638 -0.4022  0.8224
18567THY    CA260240   7.188   6.045   2.802 -0.4988 -0.6258  0.2293
18567THY    CP160241   7.085   5.956   2.720  0.1378 -0.3924  0.3507
18567THY    HP160242   7.117   5.851   2.718 -0.5025  1.0066  0.1091
18567THY    CP260243   7.056   6.005   2.573 -0.0749  0.0755  0.3991
18567THY    HP260244   7.021   5.924   2.507 -1.6561 -2.5358  2.9908
18567THY    HP360245   7.157   6.025   2.535  0.1787 -0.3389 -1.4438
18567THY    HP460246   6.987   6.090   2.572 -1.7164  2.1548 -0.8108
18567THY    CP360247   6.958   5.950   2.794 -0.5820 -0.2466  0.2845
18567THY    HP560248   6.899   5.871   2.746  1.8131  0.1749 -1.9265
18567THY    HP660249   6.904   6.045   2.798 -0.3042  0.6290  0.4102
18567THY    HP760250   6.967   5.922   2.899 -0.5221 -0.3759 -0.2034
18567THY    CA360251   7.174   6.183   2.805  0.6185  0.0766  0.0070
18567THY    HA360252   7.090   6.228   2.753 -0.1165  2.2763  1.3277
18567THY    CA460253   7.255   6.258   2.885  0.7361  0.7043 -0.1435
18567THY    HA460254   7.251   6.366   2.898 -0.3370 -0.8902  0.0556
18567THY    CA560255   7.367   6.194   2.945  0.3205  0.3846 -0.3273
18567THY    CM160256   7.463   6.270   3.032  0.4017  0.1739 -0.3700
18567THY    HM160257   7.558   6.290   2.981 -0.8621 -2.0089  0.3582
18567THY    HM260258   7.482   6.213   3.123 -1.8074 -0.2998 -2.0126
18567THY    HM360259   7.418   6.368   3.052 -2.1457 -2.8905 -0.7330
18567THY    CA660260   7.393   6.060   2.936  0.0349  0.6544  0.2337
18567THY    HA660261   7.483   6.024   2.985 -0.6104  2.5835  1.1046
18568THY      O60262   5.938   7.758   4.593 -0.5336 -0.0199 -0.1399
18568THY     HO60263   5.934   7.849   4.627  1.3044  0.2525 -0.1097
18568THY    CA160264   5.909   7.680   4.691  0.9103 -0.3709 -0.0446
18568THY    CA260265   5.920   7.538   4.679  0.3389 -0.2374  0.1983
18568THY    CP160266   5.936   7.471   4.544  0.3549 -0.1122 -0.0422
18568THY    HP160267   5.932   7.540   4.459  0.1024  1.0603  1.4628
18568THY    CP260268   5.811   7.393   4.509  0.3130 -0.2515 -0.6361
18568THY    HP260269   5.821   7.334   4.417  0.1104  0.1172 -1.2627
18568THY    HP360270   5.725   7.461   4.515  1.2501 -1.8780  0.7777
18568THY    HP460271   5.799   7.312   4.582 -0.6693  0.4056  0.0802
18568THY    CP360272   6.064   7.392   4.532  0.6829 -0.9900 -0.1182
18568THY    HP560273   6.147   7.459   4.560 -0.0455 -0.0849  0.4233
18568THY    HP660274   6.081   7.342   4.435 -0.4727 -0.8788 -0.7467
18568THY    HP760275   6.070   7.315   4.610 -0.5882 -0.8257 -0.0669
18568THY    CA360276   5.885   7.459   4.792  0.0854  0.1977 -0.0026
18568THY    HA360277   5.887   7.350   4.787  2.1941  0.3849 -0.0199
18568THY    CA460278   5.870   7.522   4.914  0.6818  0.5676 -0.4749
18568THY    HA460279   5.838   7.462   4.999 -1.7866 -1.4593 -2.2266
18568THY    CA560280   5.867   7.661   4.926 -0.5903  0.1736 -0.1600
18568THY    CM160281   5.826   7.724   5.054 -0.1787  0.8989  0.6875
18568THY    HM160282   5.882   7.674   5.133  0.9223 -0.7464 -0.8258
18568THY    HM260283   5.719   7.704   5.066 -0.2954 -2.1563 -1.2011
18568THY    HM360284   5.860   7.829   5.059  1.4786  0.8079  0.1803
18568THY    CA660285   5.887   7.737   4.814 -1.0442 -0.3046 -0.0924
18568THY    HA660286   5.888   7.845   4.827 -0.3311  1.4731 -0.2900
18569THY      O60287   0.979   0.143   3.425  0.3115 -0.9563  0.2970
18569THY     HO60288   0.956   0.151   3.519 -2.5402 -1.3261 -1.7726
18569THY    CA160289   0.974   0.270   3.376 -0.1343  0.1447  0.4889
18569THY    CA260290   1.015   0.304   3.241 -0.2164  0.3579 -0.3693
18569THY    CP160291   1.069   0.196   3.144 -0.3090  0.5431  0.6615
18569THY    HP160292   1.055   0.102   3.198 -2.0730 -0.6210  0.1969
18569THY    CP260293   1.216   0.211   3.121 -0.1386 -0.5865 -0.5863
18569THY    HP260294   1.268   0.178   3.211 -4.4064  1.8702 -1.3686
18569THY    HP360295   1.236   0.315   3.092  1.1856 -0.7475 -0.8753
18569THY    HP460296   1.262   0.137   3.054 -1.8611 -2.3280 -0.1722
18569THY    CP360297   0.978   0.189   3.014  0.2842 -0.4670 -0.2324
18569THY    HP560298   1.007   0.109   2.945  0.9896 -0.4722  0.0241
18569THY    HP660299   0.997   0.284   2.962 -0.2799 -1.1396 -0.4753
18569THY    HP760300   0.876   0.173   3.053  0.3580 -0.2385 -0.1533
18569THY    CA360301   1.007   0.442   3.200  0.1537 -0.0258 -0.1138
18569THY    HA360302   1.043   0.469   3.100 -3.5771 -1.6225 -0.4858
18569THY    CA460303   0.948   0.533   3.283 -0.1991 -0.0655  0.2488
18569THY    HA460304   0.944   0.639   3.262  0.4044 -0.1693  0.2564
18569THY    CA560305   0.922   0.497   3.417  0.0130 -0.0676 -0.6654
18569THY    CM160306   0.884   0.603   3.519 -0.2302 -0.7980 -0.2142
18569THY    HM160307   0.776   0.622   3.520 -0.1803  1.0613  0.2180
18569THY    HM260308   0.926   0.698   3.486  0.8065  1.8952  0.3736
18569THY    HM360309   0.914   0.582   3.623  0.5101 -1.1071 -0.7438
18569THY    CA660310   0.937   0.369   3.464 -0.3889 -0.1820 -0.3965
18569THY    HA660311   0.907   0.343   3.565  0.9663  0.6254  1.0541
18570THY      O60312   3.764   5.912   6.278  0.7869  0.8919  0.6067
18570THY     HO60313   3.708   5.958   6.213 -0.0097  1.2563  0.1754
18570THY    CA160314   3.812   6.020   6.352 -0.2335 -0.8609  0.1550
18570THY    CA260315   3.928   6.002   6.434  0.0906  0.7257  0.7826
18570THY    CP160316   4.009   5.871   6.440 -0.3021  0.0201  0.5033
18570THY    HP160317   3.951   5.788   6.400  1.1929  1.6149 -1.4323
18570THY    CP260318   4.038   5.817   6.586 -0.3980 -0.5870  0.1635
18570THY    HP260319   4.058   5.710   6.580 -1.0860 -1.8928  0.0830
18570THY    HP360320   3.944   5.817   6.643 -0.0904 -0.0661  0.8709
18570THY    HP460321   4.122   5.874   6.627  0.5620 -2.2245 -0.0058
18570THY    CP360322   4.132   5.885   6.349  0.2674 -0.4912 -0.0514
18570THY    HP560323   4.173   5.985   6.369  1.0723  1.6428 -0.7511
18570THY    HP660324   4.084   5.873   6.251 -1.2306  0.4150 -1.9172
18570THY    HP760325   4.206   5.811   6.378 -0.5433  0.5268 -0.4930
18570THY    CA360326   3.972   6.115   6.508 -0.2004  0.0069 -0.1243
18570THY    HA360327   4.058   6.105   6.573  2.2080 -2.9680  0.0442
18570THY    CA460328   3.886   6.229   6.517 -0.3301  0.4869  0.4164
18570THY    HA460329   3.912   6.309   6.586  2.3214 -2.0384  1.9142
18570THY    CA560330   3.771   6.235   6.444  0.4282  0.4411 -0.5191
18570THY    CM160331   3.672   6.341   6.468  0.1207 -0.0837 -0.5024
18570THY    HM160332   3.689   6.411   6.551 -1.8405 -1.8428  2.2690
18570THY    HM260333   3.579   6.285   6.485  0.1271 -0.5998 -0.6727
18570THY    HM360334   3.653   6.398   6.377  0.7809  0.0464 -0.0630
18570THY    CA660335   3.735   6.131   6.353 -0.8740 -0.4959  0.4017
18570THY    HA660336   3.641   6.143   6.299 -1.5741  0.6965  0.4343
18571THY      O60337   0.670   5.516   2.294  1.0114  0.1887 -0.4436
18571THY     HO60338   0.627   5.548   2.375 -1.2608 -1.0473 -0.1626
18571THY    CA160339   0.584   5.425   2.240 -0.7183  0.2851  0.5872
18571THY    CA260340   0.639   5.307   2.173 -0.6756  0.5411  0.5894
18571THY    CP160341   0.792   5.288   2.162  0.1554  0.3793 -0.1613
18571THY    HP160342   0.834   5.342   2.249 -1.1542  0.8181  0.1773
18571THY    CP260343   0.852   5.338   2.038 -0.4907  0.0452  0.4074
18571THY    HP260344   0.962   5.343   2.046 -0.4747  0.0399  0.0786
18571THY    HP360345   0.827   5.444   2.027  1.6321  1.7846  1.1633
18571THY    HP460346   0.816   5.288   1.948 -3.7652  0.9758  0.8677
18571THY    CP360347   0.833   5.136   2.174 -0.2240  0.9927  0.2601
18571THY    HP560348   0.941   5.127   2.191  0.3273 -1.5964  1.1825
18571THY    HP660349   0.806   5.079   2.085 -1.0494  0.6945  1.0959
18571THY    HP760350   0.766   5.090   2.248 -2.3003 -0.3001  1.0846
18571THY    CA360351   0.548   5.216   2.133 -0.1167 -0.1898  0.1237
18571THY    HA360352   0.576   5.126   2.077  2.0908  0.7721  0.1697
18571THY    CA460353   0.410   5.225   2.162 -0.8223  0.7681  0.2209
18571THY    HA460354   0.341   5.143   2.149 -1.1416 -0.2131  0.6364
18571THY    CA560355   0.367   5.338   2.228  0.4768  0.2597  0.2202
18571THY    CM160356   0.221   5.357   2.256  1.2142  0.1401  0.3773
18571THY    HM160357   0.167   5.277   2.205  0.0436  1.3894  0.3226
18571THY    HM260358   0.179   5.451   2.218  0.8636 -0.7698 -0.1369
18571THY    HM360359   0.204   5.341   2.363 -2.4773 -0.4495 -0.4025
18571THY    CA660360   0.452   5.443   2.264  0.0753 -0.1152 -0.0100
18571THY    HA660361   0.419   5.536   2.309  0.2149 -2.0117  0.9903
18572THY      O60362   2.039   0.297   2.153  0.1961  0.0723  0.3693
18572THY     HO60363   1.949   0.265   2.136 -0.2386  1.4608  0.7990
18572THY    CA160364   2.124   0.274   2.053 -0.0974 -0.3623  0.2277
18572THY    CA260365   2.246   0.348   2.050 -0.3520 -0.3860  0.5407
18572THY    CP160366   2.277   0.442   2.167 -0.3296  0.0662 -0.4314
18572THY    HP160367   2.231   0.399   2.257  1.2071  2.0935  1.9013
18572THY    CP260368   2.207   0.587   2.155 -0.5648 -0.2267  0.0878
18572THY    HP260369   2.098   0.583   2.167 -0.6006 -0.1662  0.9489
18572THY    HP360370   2.226   0.626   2.055  2.6279  0.5089  0.7489
18572THY    HP460371   2.234   0.655   2.238 -1.2439 -0.4621  0.6574
18572THY    CP360372   2.429   0.447   2.208 -0.4141 -0.2625 -0.5528
18572THY    HP560373   2.488   0.488   2.126 -0.0044  0.5934  0.6463
18572THY    HP660374   2.454   0.349   2.249 -0.6840  0.8455 -0.1804
18572THY    HP760375   2.437   0.513   2.296  0.7282 -0.4073 -0.4875
18572THY    CA360376   2.332   0.320   1.946  0.4502  0.6317 -0.1780
18572THY    HA360377   2.424   0.374   1.928  0.5526 -0.0928 -0.5887
18572THY    CA460378   2.292   0.241   1.837 -0.7606 -0.4347 -0.0093
18572THY    HA460379   2.352   0.246   1.747 -0.0251  0.1273  2.8249
18572THY    CA560380   2.167   0.172   1.837  0.5522  0.8204 -0.3007
18572THY    CM160381   2.113   0.092   1.723 -0.1064  0.6074 -0.0062
18572THY    HM160382   2.197   0.037   1.680  0.2681  1.5072 -0.1522
18572THY    HM260383   2.074   0.159   1.645  0.0330  2.4067  2.2748
18572THY    HM360384   2.031   0.021   1.741  1.2251 -1.9709 -2.4059
18572THY    CA660385   2.086   0.195   1.944  0.6243  0.2160 -0.7633
18572THY    HA660386   1.982   0.166   1.931  0.8574 -1.8693 -0.8500
18573THY      O60387   6.912   4.829   7.260  0.3917 -0.2319 -0.3866
18573THY     HO60388   6.821   4.806   7.281 -0.1303  0.0036  1.6440
18573THY    CA160389   6.943   4.759   7.151 -0.0928  0.6189  0.3844
18573THY    CA260390   7.064   4.702   7.128 -0.2570 -0.5071 -0.3617
18573THY    CP160391   7.167   4.723   7.237 -0.8825  0.7715  0.1053
18573THY    HP160392   7.128   4.766   7.330  0.6633  1.2273  0.5875
18573THY    CP260393   7.279   4.828   7.209  0.8638  0.3388 -0.2203
18573THY    HP260394   7.338   4.840   7.301  1.2088  0.3557 -1.8332
18573THY    HP360395   7.231   4.924   7.190  1.4950 -1.8674 -0.2861
18573THY    HP460396   7.346   4.817   7.123  0.0749 -0.3519  0.2673
18573THY    CP360397   7.243   4.595   7.276 -0.2601 -0.1238 -0.1628
18573THY    HP560398   7.313   4.569   7.195  1.3111  1.6886 -1.9562
18573THY    HP660399   7.190   4.507   7.314 -0.4442 -0.5215 -0.2222
18573THY    HP760400   7.319   4.611   7.354 -1.9086  1.4403  0.3236
18573THY    CA360401   7.090   4.631   7.016  0.5258 -0.0796 -0.2269
18573THY    HA360402   7.188   4.589   6.993  0.3894 -0.2915 -0.4297
18573THY    CA460403   6.994   4.611   6.921 -0.6114 -0.0945  0.2584
18573THY    HA460404   7.012   4.555   6.830  0.8751  1.0869 -1.2666
18573THY    CA560405   6.870   4.687   6.935 -0.5918  0.2794  0.1663
18573THY    CM160406   6.772   4.685   6.818 -0.7782  0.1663  0.7012
18573THY    HM160407   6.826   4.643   6.733  1.1729  1.9910 -0.7081
18573THY    HM260408   6.749   4.790   6.796  0.4497 -1.8336  0.5923
18573THY    HM360409   6.682   4.625   6.838 -0.0398 -1.6341 -1.0849
18573THY    CA660410   6.848   4.760   7.051  0.5834 -0.1995  0.2641
18573THY    HA660411   6.760   4.823   7.060  0.3981 -2.1615  0.3467
18574THY      O60412   1.657   1.954   3.335  0.1375  0.2986  0.1055
18574THY     HO60413   1.655   1.902   3.253 -3.4065  0.4096 -0.1778
18574THY    CA160414   1.679   2.076   3.292 -0.6525  0.6671  0.4434
18574THY    CA260415   1.665   2.181   3.386  0.0762 -0.0290  0.0737
18574THY    CP160416   1.632   2.148   3.531  1.0540  0.5265 -1.2922
18574THY    HP160417   1.602   2.043   3.545  2.1162  0.5607 -1.6053
18574THY    CP260418   1.515   2.239   3.581 -0.3595 -0.3915 -0.6548
18574THY    HP260419   1.474   2.182   3.665 -0.3758 -1.8582 -2.9329
18574THY    HP360420   1.441   2.253   3.501  1.2842 -1.9714 -0.5907
18574THY    HP460421   1.551   2.339   3.608  0.3845 -0.9677 -0.7610
18574THY    CP360422   1.756   2.163   3.623 -0.2666  0.2409 -0.1624
18574THY    HP560423   1.801   2.258   3.594  0.2798 -1.9774 -1.0304
18574THY    HP660424   1.831   2.088   3.595 -1.3461  0.1036 -1.2147
18574THY    HP760425   1.743   2.158   3.732 -1.0328  0.3371  2.6620
18574THY    CA360426   1.681   2.314   3.332 -0.3550 -0.0126 -1.2262
18574THY    HA360427   1.665   2.406   3.388  3.2224 -2.0463  0.8160
18574THY    CA460428   1.720   2.339   3.199  0.4934 -0.2177  0.0875
18574THY    HA460429   1.740   2.441   3.170 -0.4668 -1.2800 -0.0043
18574THY    CA560430   1.733   2.225   3.117 -0.8102  0.2804  0.3727
18574THY    CM160431   1.782   2.244   2.975 -0.0021 -0.4263  0.6100
18574THY    HM160432   1.891   2.252   2.963  0.1869  1.7508  1.8167
18574THY    HM260433   1.741   2.338   2.937  0.1632  1.6668  1.5763
18574THY    HM360434   1.747   2.161   2.911  1.6087 -1.6042  0.7828
18574THY    CA660435   1.702   2.096   3.159 -0.0220 -0.2595 -0.1579
18574THY    HA660436   1.725   2.016   3.090  2.4124  0.3291 -0.0548
18575THY      O60437   2.824   6.066   5.743 -0.4689 -0.4074  0.0571
18575THY     HO60438   2.736   6.066   5.786 -0.4800 -0.4070 -0.9939
18575THY    CA160439   2.895   6.164   5.811 -0.2436  1.3165 -0.0836
18575THY    CA260440   3.032   6.188   5.784 -0.3970 -0.1504 -0.5102
18575THY    CP160441   3.114   6.107   5.683  0.7916  0.2393 -0.0704
18575THY    HP160442   3.076   6.005   5.671 -0.3505 -0.4293  0.4195
18575THY    CP260443   3.268   6.101   5.712  0.7202  0.1980  0.0061
18575THY    HP260444   3.320   6.039   5.639  0.6823  1.6494 -1.8122
18575THY    HP360445   3.279   6.044   5.805  2.1264 -0.4893 -0.8912
18575THY    HP460446   3.331   6.191   5.702 -0.2823 -3.3028  0.4673
18575THY    CP360447   3.095   6.170   5.544  0.0672  0.0263 -0.2504
18575THY    HP560448   3.102   6.280   5.544 -2.6808 -0.8442 -0.0050
18575THY    HP660449   2.990   6.152   5.521  0.3706 -0.2517 -1.7284
18575THY    HP760450   3.167   6.134   5.470  0.7190  1.5685 -2.3125
18575THY    CA360451   3.095   6.288   5.858 -0.5886 -0.7649  0.0701
18575THY    HA360452   3.193   6.329   5.833 -1.9200  0.1728  4.3904
18575THY    CA460453   3.027   6.348   5.963 -0.1949  0.5308  0.1693
18575THY    HA460454   3.069   6.431   6.020  0.3951  0.6995 -0.2417
18575THY    CA560455   2.898   6.305   5.995  0.3454  0.6119  0.2149
18575THY    CM160456   2.820   6.367   6.108 -0.4053  0.0449  0.4275
18575THY    HM160457   2.821   6.322   6.208 -0.0116  0.6063  1.6436
18575THY    HM260458   2.712   6.374   6.090 -0.3035 -2.0189 -1.8327
18575THY    HM360459   2.854   6.470   6.124 -0.2763  0.9978  0.2474
18575THY    CA660460   2.828   6.217   5.916 -0.2215 -0.5695  0.2171
18575THY    HA660461   2.730   6.183   5.947  0.1000 -0.3257 -0.5024
18576THY      O60462   2.951   8.485   4.850 -0.1812 -0.0951 -1.0239
18576THY     HO60463   2.983   8.467   4.760  0.3499  0.0344 -0.7488
18576THY    CA160464   2.814   8.470   4.853  0.5571 -0.2553 -0.7733
18576THY    CA260465   2.746   8.405   4.956 -0.0795 -0.0851  0.5204
18576THY    CP160466   2.818   8.373   5.082 -0.0755  0.0113  0.5198
18576THY    HP160467   2.927   8.386   5.073  0.0622  1.0807  0.1995
18576THY    CP260468   2.792   8.234   5.146  0.1834 -0.6082  0.0804
18576THY    HP260469   2.837   8.148   5.094  0.7246  2.6383 -1.7974
18576THY    HP360470   2.685   8.226   5.167  0.3085  0.6504  1.3031
18576THY    HP460471   2.841   8.225   5.244  0.3541 -0.7538 -0.7424
18576THY    CP360472   2.778   8.478   5.183 -0.0174 -0.0781 -0.1778
18576THY    HP560473   2.670   8.471   5.202 -0.5750 -2.3000  1.3009
18576THY    HP660474   2.792   8.579   5.143 -2.0785  0.8129  0.5093
18576THY    HP760475   2.819   8.461   5.283 -1.5726  0.8599  1.2066
18576THY    CA360476   2.608   8.389   4.951  0.1691  0.1107 -0.2902
18576THY    HA360477   2.557   8.342   5.034  2.2471  2.0235  0.6196
18576THY    CA460478   2.534   8.435   4.842 -0.5484 -0.2269  0.3352
18576THY    HA460479   2.428   8.413   4.832 -0.5354 -0.5351  0.4003
18576THY    CA560480   2.605   8.507   4.742  0.2358 -0.5774  0.5045
18576THY    CM160481   2.535   8.547   4.619 -0.3994 -0.6234 -0.0029
18576THY    HM160482   2.426   8.539   4.625 -0.6392  1.2828  3.1627
18576THY    HM260483   2.576   8.486   4.538 -1.1417 -0.1237 -1.1992
18576THY    HM360484   2.550   8.655   4.607  1.9757  1.3708 -0.0112
18576THY    CA660485   2.747   8.522   4.739 -0.1963  0.4122 -0.6314
18576THY    HA660486   2.800   8.567   4.656 -1.5143 -0.5934 -0.8794
18577THY      O60487   4.794   7.625   3.267  0.8254  0.0310  0.0805
18577THY     HO60488   4.853   7.563   3.221  0.7254 -0.8820  0.6365
18577THY    CA160489   4.663   7.599   3.237 -0.0197 -0.0239  0.4207
18577THY    CA260490   4.555   7.656   3.312  0.3333  0.2334  0.4376
18577THY    CP160491   4.586   7.747   3.428  0.0281  0.5636 -0.4646
18577THY    HP160492   4.668   7.813   3.399  0.1251  1.9847  0.0926
18577THY    CP260493   4.627   7.670   3.557 -0.2354 -0.4044  0.0450
18577THY    HP260494   4.627   7.738   3.643  0.6026 -0.2407 -0.1505
18577THY    HP360495   4.728   7.628   3.550 -0.2895 -0.4522 -0.0789
18577THY    HP460496   4.555   7.588   3.566  0.6772  1.4979 -0.5980
18577THY    CP360497   4.466   7.837   3.468 -0.7275  0.0557  0.3486
18577THY    HP560498   4.383   7.791   3.522 -1.0366 -1.6029 -1.1493
18577THY    HP660499   4.418   7.887   3.383  0.4456 -1.2628 -0.6944
18577THY    HP760500   4.510   7.913   3.534 -3.2529  0.7760  1.2884
18577THY    CA360501   4.429   7.596   3.302  0.3347 -0.0769 -0.1945
18577THY    HA360502   4.346   7.632   3.362  1.1433  1.9838 -1.5909
18577THY    CA460503   4.406   7.514   3.196 -0.2165  0.3187  0.1228
18577THY    HA460504   4.304   7.482   3.174  0.2442 -1.2999 -0.3581
18577THY    CA560505   4.500   7.471   3.105  0.1035 -0.2671 -0.2512
18577THY    CM160506   4.472   7.373   3.003  1.0881 -0.4064  0.2722
18577THY    HM160507   4.375   7.325   3.018  1.2202  1.9678  0.6274
18577THY    HM260508   4.548   7.296   3.022 -1.2080  0.8064 -1.8578
18577THY    HM360509   4.480   7.412   2.901 -1.7218 -0.2765  1.3966
18577THY    CA660510   4.635   7.514   3.128 -0.3932 -0.2471  0.5536
18577THY    HA660511   4.715   7.486   3.060 -0.9225 -0.5939 -0.1391
18578THY      O60512   0.971   4.649   4.227 -0.7939  0.7824  0.5635
18578THY     HO60513   0.976   4.731   4.279 -0.4653  0.0382  1.0349
18578THY    CA160514   0.931   4.551   4.302 -0.0607  0.4553 -0.0317
18578THY    CA260515   0.952   4.410   4.270 -0.2795  1.2656  0.2794
18578THY    CP160516   1.025   4.364   4.141  0.2082 -0.7945 -0.5657
18578THY    HP160517   1.049   4.441   4.067  0.6341 -0.1999 -0.1167
18578THY    CP260518   0.955   4.268   4.065  0.0401 -0.2173  0.3106
18578THY    HP260519   0.993   4.250   3.963  0.5461 -0.0715  0.5359
18578THY    HP360520   0.853   4.306   4.052  0.2322  0.8226  1.2307
18578THY    HP460521   0.934   4.172   4.112  1.4714  1.4251  0.7584
18578THY    CP360522   1.164   4.327   4.183  0.5379  0.0814 -0.2528
18578THY    HP560523   1.164   4.238   4.247  1.1103  0.6849  0.1615
18578THY    HP660524   1.219   4.409   4.232 -1.0216  0.3446  0.6868
18578THY    HP760525   1.233   4.310   4.100 -0.7613 -1.2210  0.6501
18578THY    CA360526   0.915   4.312   4.363  0.2649 -0.4060 -0.2462
18578THY    HA360527   0.916   4.205   4.349 -0.0621  0.9183 -0.4339
18578THY    CA460528   0.848   4.358   4.476  0.3305 -0.4166 -0.2886
18578THY    HA460529   0.793   4.286   4.535 -2.2617 -0.8360  1.2090
18578THY    CA560530   0.834   4.496   4.507  0.1234 -0.3812  0.1154
18578THY    CM160531   0.748   4.530   4.625  0.1102  0.2603 -0.1846
18578THY    HM160532   0.725   4.441   4.685  0.0630 -0.1372 -0.4426
18578THY    HM260533   0.652   4.575   4.596  0.3249 -0.8206 -0.4051
18578THY    HM360534   0.809   4.598   4.685 -1.9823  1.1195  1.0405
18578THY    CA660535   0.875   4.592   4.416  0.1292 -0.1682 -0.2668
18578THY    HA660536   0.853   4.697   4.428  3.2514 -1.1455  0.6041
18579THY      O60537   2.362   4.155   6.226  0.4426  0.0169 -0.0988
18579THY     HO60538   2.420   4.230   6.247 -0.7134  1.0406  0.5463
18579THY    CA160539   2.417   4.046   6.279 -0.2935 -0.2071 -0.2491
18579THY    CA260540   2.385   3.918   6.234  0.2327 -0.9769  0.3984
18579THY    CP160541   2.286   3.906   6.120  0.2475 -0.0933  0.3925
18579THY    HP160542   2.285   3.994   6.055  2.4839  0.2614  0.7284
18579THY    CP260543   2.143   3.888   6.181  0.4705 -0.0817  0.3449
18579THY    HP260544   2.066   3.884   6.103  0.7083 -0.3564  0.9534
18579THY    HP360545   2.122   3.966   6.256  0.8428 -0.7585  1.1075
18579THY    HP460546   2.142   3.793   6.236  0.5101  0.8251  0.8530
18579THY    CP360547   2.305   3.781   6.024 -0.4959 -0.7553  0.3133
18579THY    HP560548   2.273   3.821   5.927  0.0192 -0.2978  1.9020
18579THY    HP660549   2.264   3.684   6.052  1.3431 -1.5849 -0.7596
18579THY    HP760550   2.413   3.766   6.018 -0.2998 -0.0862  1.3335
18579THY    CA360551   2.433   3.807   6.303 -0.2060 -0.0012  0.2891
18579THY    HA360552   2.407   3.707   6.271  0.1495  2.5998 -0.7301
18579THY    CA460553   2.519   3.832   6.417 -0.3431 -0.5595 -0.1153
18579THY    HA460554   2.562   3.748   6.470  0.8005  1.1482  1.4583
18579THY    CA560555   2.554   3.964   6.448  0.0913  0.5072  0.5402
18579THY    CM160556   2.642   3.989   6.567  0.1062  0.5301  0.0781
18579THY    HM160557   2.591   4.001   6.663 -0.6175 -0.0784  2.4169
18579THY    HM260558   2.706   4.078   6.558  2.1859  1.4803 -1.2251
18579THY    HM360559   2.714   3.908   6.584 -0.2903  4.1719  0.3381
18579THY    CA660560   2.507   4.069   6.378 -0.7707 -0.8188  0.3273
18579THY    HA660561   2.535   4.167   6.416  1.4334  0.9105 -0.8837
18580THY      O60562   4.320   2.115   2.776  0.3207 -0.3867 -0.1412
18580THY     HO60563   4.234   2.142   2.741  0.3894 -0.8551 -0.5185
18580THY    CA160564   4.334   2.174   2.898  0.4207  0.5067  0.5063
18580THY    CA260565   4.391   2.106   3.006  0.2542 -0.1049  0.1825
18580THY    CP160566   4.425   1.962   2.983 -0.6201 -0.0423  0.7797
18580THY    HP160567   4.356   1.921   2.908  0.9294 -1.9029  1.4546
18580THY    CP260568   4.418   1.866   3.102 -0.5113 -0.1475  0.4446
18580THY    HP260569   4.319   1.852   3.146 -0.4692 -0.9753 -3.8599
18580THY    HP360570   4.478   1.905   3.185 -0.0339  1.0793 -2.6181
18580THY    HP460571   4.455   1.766   3.075  0.5521 -1.3929  1.1442
18580THY    CP360572   4.562   1.926   2.924 -0.2394  0.2631  0.2180
18580THY    HP560573   4.568   1.818   2.903 -2.2645  0.1652  0.0748
18580THY    HP660574   4.641   1.962   2.990 -0.3437 -0.6314  2.2158
18580THY    HP760575   4.575   1.976   2.827  1.1409  1.6964  2.8475
18580THY    CA360576   4.431   2.177   3.119  0.3660 -0.3387  0.0243
18580THY    HA360577   4.485   2.132   3.202  0.6604  0.1435  1.2211
18580THY    CA460578   4.387   2.314   3.128 -0.0215 -0.2912 -0.3376
18580THY    HA460579   4.405   2.379   3.213 -0.6580 -0.9321  0.6969
18580THY    CA560580   4.317   2.376   3.021 -0.3394 -0.0906 -0.2077
18580THY    CM160581   4.285   2.524   3.025  0.2627 -0.6965  0.4333
18580THY    HM160582   4.316   2.580   2.936  1.6749 -1.2322 -1.1013
18580THY    HM260583   4.347   2.569   3.103  3.3408 -2.3877 -0.5711
18580THY    HM360584   4.181   2.542   3.053  0.4717  0.4862 -0.1045
18580THY    CA660585   4.292   2.306   2.906 -0.2863  0.7337  0.6024
18580THY    HA660586   4.247   2.341   2.814 -0.7466  0.0128 -1.7104
18581THY      O60587   2.743   1.289   6.952  0.6348  0.5222  0.1268
18581THY     HO60588   2.741   1.302   7.048  0.7507  0.3820  1.3202
18581THY    CA160589   2.815   1.187   6.924  0.1326  0.2016  0.4907
18581THY    CA260590   2.856   1.163   6.793 -0.1162 -0.7649 -0.0052
18581THY    CP160591   2.824   1.264   6.683  0.3970 -0.2508 -0.2384
18581THY    HP160592   2.753   1.344   6.709  0.5862 -0.4584 -0.0019
18581THY    CP260593   2.753   1.200   6.562  0.3034 -0.2487  0.3950
18581THY    HP260594   2.816   1.119   6.523  1.7595  0.3466  1.1964
18581THY    HP360595   2.735   1.259   6.472 -0.5507 -1.5045 -1.6628
18581THY    HP460596   2.654   1.165   6.594  0.5655 -0.3730 -0.4767
18581THY    CP360597   2.942   1.343   6.626 -0.0602  0.3651 -0.0361
18581THY    HP560598   2.904   1.405   6.543 -1.1469 -0.9903 -2.3470
18581THY    HP660599   3.017   1.280   6.577  0.9145  2.0163 -0.1946
18581THY    HP760600   2.990   1.405   6.702  2.7855 -2.5102  1.5921
18581THY    CA360601   2.954   1.061   6.770 -0.5082 -0.4631  0.0503
18581THY    HA360602   2.990   1.041   6.670  1.1061  0.0723  0.0886
18581THY    CA460603   2.991   0.973   6.875 -0.0093 -0.5936  0.2283
18581THY    HA460604   3.060   0.890   6.863 -0.1358  0.8734 -0.1262
18581THY    CA560605   2.932   0.984   6.999  0.2709  0.1711 -0.1939
18581THY    CM160606   2.970   0.888   7.103  0.5952 -0.3175  0.2435
18581THY    HM160607   2.929   0.787   7.094 -0.1818 -2.3347  0.6843
18581THY    HM260608   2.946   0.924   7.204  0.6742  0.3296 -1.4324
18581THY    HM360609   3.078   0.869   7.101  1.0896  2.1294  2.2639
18581THY    CA660610   2.851   1.097   7.025  0.2747 -0.3463  0.0891
18581THY    HA660611   2.821   1.108   7.129  1.2503 -0.1083  0.6244
18582THY      O60612   0.948   2.642   7.549  0.0193 -0.3553 -0.1706
18582THY     HO60613   1.025   2.690   7.584 -0.3548  1.5836 -0.8987
18582THY    CA160614   0.855   2.737   7.534 -0.3365 -0.0531 -0.1326
18582THY    CA260615   0.734   2.714   7.472  0.0021  0.7176  0.1174
18582THY    CP160616   0.711   2.565   7.430  0.7405  0.4853 -0.5542
18582THY    HP160617   0.811   2.519   7.423  1.7831 -0.3793  1.7217
18582THY    CP260618   0.638   2.552   7.298  0.1512 -0.3394  0.1156
18582THY    HP260619   0.538   2.595   7.309  0.7550 -0.9451  1.7733
18582THY    HP360620   0.623   2.447   7.271 -0.7362  1.8728 -0.3759
18582THY    HP460621   0.671   2.605   7.207 -1.1212 -0.2390  1.1341
18582THY    CP360622   0.622   2.493   7.538  0.5324  0.0704  0.1363
18582THY    HP560623   0.606   2.386   7.519 -1.2393  0.7271  0.2535
18582THY    HP660624   0.522   2.538   7.532  0.4167  1.4880  0.1233
18582THY    HP760625   0.655   2.514   7.640 -0.0073  0.3097 -0.1437
18582THY    CA360626   0.639   2.809   7.452 -0.1286  0.1696  0.7319
18582THY    HA360627   0.547   2.785   7.399  0.3385 -0.3923  0.1340
18582THY    CA460628   0.666   2.934   7.510 -0.4943 -0.2229 -0.0194
18582THY    HA460629   0.585   3.007   7.504 -2.5458  0.7022 -2.0918
18582THY    CA560630   0.786   2.964   7.568 -0.9363 -0.2504  0.2250
18582THY    CM160631   0.818   3.100   7.615  0.0690  0.3124 -0.3159
18582THY    HM160632   0.901   3.145   7.560 -0.4611  0.3158  0.7043
18582THY    HM260633   0.851   3.092   7.719  2.1426 -0.4315 -2.4090
18582THY    HM360634   0.728   3.164   7.607 -0.4666 -1.5183 -1.2345
18582THY    CA660635   0.885   2.860   7.582  0.0578 -0.2453 -0.1141
18582THY    HA660636   0.983   2.883   7.623 -0.2837  0.8802 -0.5724
18583THY      O60637   7.299   3.937   5.910 -0.3195  0.7203 -0.4635
18583THY     HO60638   7.337   3.856   5.948 -1.8283  0.0326 -1.5412
18583THY    CA160639   7.291   4.027   6.013 -0.5618  0.4264  0.2615
18583THY    CA260640   7.282   4.165   5.982  0.0432  0.0328  0.0820
18583THY    CP160641   7.322   4.218   5.839  0.1889 -0.6453  0.1353
18583THY    HP160642   7.340   4.143   5.762 -2.0138  0.4540 -1.6711
18583THY    CP260643   7.455   4.303   5.855  0.0837  0.2922  0.5075
18583THY    HP260644   7.429   4.390   5.916  2.6305 -0.4235  1.8910
18583THY    HP360645   7.481   4.349   5.759  0.4841  0.7736  1.3009
18583THY    HP460646   7.529   4.237   5.902  0.7254 -0.3867  0.7196
18583THY    CP360647   7.214   4.298   5.768  0.2495  0.2022 -0.2672
18583THY    HP560648   7.148   4.226   5.718 -0.0196 -0.7373  0.6127
18583THY    HP660649   7.248   4.371   5.694 -0.6447  0.6240  0.6025
18583THY    HP760650   7.158   4.363   5.836  0.2827 -0.2007  0.1909
18583THY    CA360651   7.269   4.256   6.087 -0.6947 -0.4133 -0.2871
18583THY    HA360652   7.261   4.362   6.069 -1.1939 -0.8322 -0.3927
18583THY    CA460653   7.255   4.211   6.223 -0.4434  0.1545 -0.0760
18583THY    HA460654   7.235   4.276   6.308  2.0276  0.5912  0.2040
18583THY    CA560655   7.268   4.075   6.249  0.3520 -0.1789  0.0679
18583THY    CM160656   7.277   4.029   6.394  0.7525 -0.1678 -0.3765
18583THY    HM160657   7.369   4.055   6.447  1.6392 -1.2651 -1.1501
18583THY    HM260658   7.285   3.920   6.382 -0.6906 -0.4181 -0.4778
18583THY    HM360659   7.187   4.037   6.455  1.1548  0.4188 -0.2701
18583THY    CA660660   7.285   3.984   6.145  0.6134 -0.4361 -0.2610
18583THY    HA660661   7.291   3.879   6.171  2.0416  0.2494 -0.0414
18584THY      O60662   4.073   0.764   2.369 -0.3056  0.3176  0.1804
18584THY     HO60663   4.125   0.817   2.432  1.7686 -0.3643 -0.9637
18584THY    CA160664   4.083   0.630   2.402  0.2356  0.0581 -0.2925
18584THY    CA260665   4.067   0.528   2.309  0.4107 -0.6256 -0.1380
18584THY    CP160666   4.077   0.566   2.159  0.4463  0.4140 -0.0621
18584THY    HP160667   4.055   0.672   2.147 -2.6301  1.4843 -0.4811
18584THY    CP260668   3.964   0.499   2.080  0.6308 -0.2915 -0.4471
18584THY    HP260669   3.967   0.528   1.974 -0.4260 -0.2118  0.0040
18584THY    HP360670   3.869   0.526   2.126 -0.1634 -3.8783  4.3271
18584THY    HP460671   3.984   0.392   2.093  0.9324 -0.0492 -0.3629
18584THY    CP360672   4.204   0.522   2.086  0.6386  0.0973  0.0922
18584THY    HP560673   4.210   0.548   1.980  1.1299  0.1408  0.1711
18584THY    HP660674   4.202   0.413   2.098  0.7428 -1.1704 -0.0652
18584THY    HP760675   4.291   0.558   2.142  0.0263  0.0294  1.7590
18584THY    CA360676   4.091   0.398   2.354 -0.4170  0.4632 -0.4906
18584THY    HA360677   4.097   0.316   2.283  0.0349  0.6751 -0.6480
18584THY    CA460678   4.094   0.370   2.491 -0.0144 -0.2495  0.1424
18584THY    HA460679   4.084   0.268   2.527  1.2239 -1.4102 -0.4168
18584THY    CA560680   4.101   0.477   2.581  0.1494 -0.5928  0.1555
18584THY    CM160681   4.116   0.456   2.730  0.5241 -0.3067  0.2103
18584THY    HM160682   4.159   0.357   2.751  1.2120 -0.2289  0.5138
18584THY    HM260683   4.023   0.479   2.782  0.2019 -0.0807 -1.5132
18584THY    HM360684   4.196   0.517   2.773 -0.7603  3.4867 -0.5039
18584THY    CA660685   4.099   0.608   2.534  0.3920  0.0520 -0.2988
18584THY    HA660686   4.095   0.692   2.602  0.5296  0.4960 -0.6454
18585THY      O60687   7.160   4.909   2.230  0.1832 -0.2075  0.2076
18585THY     HO60688   7.223   4.983   2.241 -0.5573  0.9090  0.6928
18585THY    CA160689   7.196   4.809   2.316 -0.4350  0.0804  0.4141
18585THY    CA260690   7.115   4.696   2.339  0.5196  0.1930 -0.7893
18585THY    CP160691   6.987   4.680   2.258  0.3559  1.2260 -0.5416
18585THY    HP160692   6.963   4.778   2.213 -1.7272  0.6824 -1.2553
18585THY    CP260693   6.868   4.631   2.334  0.5542  0.1938  0.2669
18585THY    HP260694   6.852   4.693   2.423 -0.1612 -0.4323  1.0040
18585THY    HP360695   6.881   4.527   2.366  0.3171  0.0318  0.1860
18585THY    HP460696   6.773   4.630   2.280 -0.0921  1.2856 -0.8638
18585THY    CP360697   7.016   4.600   2.124 -0.4695 -0.3989  0.1115
18585THY    HP560698   7.109   4.633   2.077 -1.4047 -2.8912 -0.6096
18585THY    HP660699   6.930   4.600   2.056  0.2042 -1.2665  0.2046
18585THY    HP760700   7.035   4.496   2.151  1.0898 -0.1375  0.4474
18585THY    CA360701   7.150   4.607   2.444 -0.2827 -0.1389 -0.5263
18585THY    HA360702   7.079   4.533   2.482 -2.3467  2.1067  2.3854
18585THY    CA460703   7.271   4.625   2.515 -0.4820  0.1385  0.0460
18585THY    HA460704   7.303   4.554   2.591 -3.2386  0.9170 -0.4870
18585THY    CA560705   7.349   4.741   2.484  0.2089  0.2492  0.4728
18585THY    CM160706   7.484   4.753   2.545 -0.2805  0.3357 -0.1294
18585THY    HM160707   7.486   4.731   2.652  4.5230  0.0458 -2.5120
18585THY    HM260708   7.516   4.858   2.536 -2.5847  1.6069  0.7511
18585THY    HM360709   7.556   4.687   2.495  0.0365  1.1603 -0.4155
18585THY    CA660710   7.315   4.835   2.387  0.0037  0.3930  0.1005
18585THY    HA660711   7.368   4.928   2.369 -2.3824 -2.5574  1.0535
18586THY      O60712   3.343   4.078   3.789  0.1429 -0.3960 -0.3638
18586THY     HO60713   3.314   4.153   3.844 -0.1264 -1.4137  0.3093
18586THY    CA160714   3.321   4.121   3.664 -0.3046 -0.6995 -0.2333
18586THY    CA260715   3.351   4.048   3.550 -0.0732 -0.1725  0.2433
18586THY    CP160716   3.426   3.912   3.556  0.4987 -0.2951  0.1831
18586THY    HP160717   3.464   3.906   3.658 -0.5768  0.3047  2.3347
18586THY    CP260718   3.549   3.908   3.470 -0.1384  1.0344 -0.3681
18586THY    HP260719   3.605   3.816   3.493 -0.1546  1.1153 -0.3576
18586THY    HP360720   3.612   3.995   3.489 -0.5613  0.7777 -0.0013
18586THY    HP460721   3.520   3.915   3.364 -1.3584  1.4139  0.6138
18586THY    CP360722   3.333   3.793   3.535  0.5514  0.6987  0.7136
18586THY    HP560723   3.253   3.803   3.610 -1.8836 -1.4821 -0.8270
18586THY    HP660724   3.390   3.702   3.553 -0.9159  0.8437 -0.2163
18586THY    HP760725   3.289   3.786   3.435 -0.1966  1.1241 -1.2668
18586THY    CA360726   3.311   4.095   3.426  0.3712 -0.5009 -0.5119
18586THY    HA360727   3.321   4.037   3.335  2.1513 -1.5425  1.3399
18586THY    CA460728   3.228   4.201   3.420 -0.1129  0.6984  0.0185
18586THY    HA460729   3.186   4.227   3.324  1.3606  0.2234  0.7328
18586THY    CA560730   3.183   4.269   3.533  0.0245 -0.3054 -0.5069
18586THY    CM160731   3.083   4.374   3.525 -0.0906  0.6802  0.4551
18586THY    HM160732   3.131   4.467   3.557 -1.2173  1.2721  0.8547
18586THY    HM260733   3.007   4.346   3.600 -0.0558  0.0577 -1.4170
18586THY    HM360734   3.046   4.392   3.423  1.7911  0.2369  2.1772
18586THY    CA660735   3.235   4.230   3.655 -0.3266  0.5634 -0.1458
18586THY    HA660736   3.195   4.279   3.744  1.1946  1.9974 -1.3923
18587THY      O60737   5.133   3.735   6.982  0.0368  0.0243  0.0492
18587THY     HO60738   5.194   3.794   7.029 -0.0306 -0.3420  0.4177
18587THY    CA160739   5.032   3.819   6.954 -0.2918  0.3593  0.1453
18587THY    CA260740   4.923   3.780   6.873 -0.5049 -0.9041 -0.1415
18587THY    CP160741   4.917   3.628   6.830  0.2146  0.2853  0.2950
18587THY    HP160742   5.012   3.576   6.847  0.1500 -0.3086 -0.0187
18587THY    CP260743   4.884   3.624   6.681  0.1317 -0.1661 -0.4236
18587THY    HP260744   4.957   3.684   6.626 -0.5718 -0.3700  0.2653
18587THY    HP360745   4.790   3.674   6.655  1.5236 -1.2083  1.7913
18587THY    HP460746   4.898   3.521   6.645  0.9927  0.4842 -0.5422
18587THY    CP360747   4.805   3.548   6.908 -0.1687 -0.5829 -0.8544
18587THY    HP560748   4.790   3.445   6.875 -1.3312 -2.0914 -0.2346
18587THY    HP660749   4.710   3.600   6.892 -0.1871 -1.3206 -1.1041
18587THY    HP760750   4.830   3.555   7.015 -3.4047  0.2030  0.3948
18587THY    CA360751   4.817   3.861   6.845 -0.3600 -0.3390  0.9368
18587THY    HA360752   4.727   3.839   6.788 -1.9230  1.9388  0.9482
18587THY    CA460753   4.810   3.993   6.898 -0.0509  0.5554  0.3186
18587THY    HA460754   4.747   4.076   6.867  0.7566 -0.7633  0.4736
18587THY    CA560755   4.918   4.029   6.981 -0.2987 -0.1227 -0.5143
18587THY    CM160756   4.936   4.174   7.012  0.4748 -0.7289 -0.2567
18587THY    HM160757   5.004   4.192   7.096  0.9618 -1.3900  1.1398
18587THY    HM260758   4.847   4.231   7.037  2.4229 -0.1467  2.7484
18587THY    HM360759   4.971   4.234   6.927 -3.1483 -0.0398  3.2679
18587THY    CA660760   5.032   3.947   7.002 -0.4309 -0.5118 -0.1100
18587THY    HA660761   5.108   3.981   7.072 -0.5315  0.9112 -2.5176
18588THY      O60762   2.816   2.051   7.447 -0.2663 -0.0355 -0.1404
18588THY     HO60763   2.901   2.022   7.484  0.1133  0.0488  1.0132
18588THY    CA160764   2.820   2.161   7.366  0.5796 -0.3062  0.3234
18588THY    CA260765   2.711   2.197   7.287  0.5390  0.5864  1.4569
18588THY    CP160766   2.585   2.110   7.293 -0.0795 -0.0224  0.1235
18588THY    HP160767   2.581   2.049   7.383  2.3097 -1.2390 -2.0510
18588THY    CP260768   2.578   2.009   7.179  0.2683  0.1560 -0.0804
18588THY    HP260769   2.641   1.923   7.202 -0.7854  0.2999 -0.8254
18588THY    HP360770   2.614   2.059   7.088 -0.7982  1.0533  2.4594
18588THY    HP460771   2.477   1.971   7.162 -0.5681 -0.4632  2.2325
18588THY    CP360772   2.458   2.200   7.286  0.2154 -0.4143 -0.1963
18588THY    HP560773   2.464   2.272   7.203  0.4684 -0.5632 -0.3861
18588THY    HP660774   2.440   2.257   7.378 -2.5534 -1.1558  0.2578
18588THY    HP760775   2.372   2.133   7.277 -0.6465  2.3041  0.4289
18588THY    CA360776   2.730   2.308   7.202 -0.5111  0.5149  0.2231
18588THY    HA360777   2.658   2.353   7.134  0.5324  0.2369  1.5187
18588THY    CA460778   2.854   2.383   7.207 -1.2365 -0.0384  0.3269
18588THY    HA460779   2.858   2.477   7.151 -0.5331  0.0351  0.3397
18588THY    CA560780   2.955   2.341   7.287  0.0146 -0.3201  1.0003
18588THY    CM160781   3.079   2.417   7.290  0.0965 -0.7083 -0.1749
18588THY    HM160782   3.063   2.510   7.346  0.7373  1.2429 -1.1799
18588THY    HM260783   3.107   2.441   7.187  1.1931 -0.3605  0.1016
18588THY    HM360784   3.170   2.365   7.322  0.1110  0.7798  0.7111
18588THY    CA660785   2.939   2.234   7.374  0.0450  0.3576  0.6057
18588THY    HA660786   3.013   2.198   7.445  2.4299 -2.2064  0.1236
18589THY      O60787   5.541   3.321   6.152 -0.9380  0.0222 -0.3199
18589THY     HO60788   5.514   3.247   6.209 -3.4050 -0.9385 -0.2561
18589THY    CA160789   5.429   3.404   6.148 -0.3658  0.6608  0.2954
18589THY    CA260790   5.391   3.463   6.029  0.1353 -0.2000  0.5267
18589THY    CP160791   5.463   3.425   5.890 -0.4808  0.0347 -0.1510
18589THY    HP160792   5.557   3.372   5.907 -0.7360 -2.0130 -1.4100
18589THY    CP260793   5.500   3.557   5.812 -0.3455  0.3707  0.0917
18589THY    HP260794   5.407   3.590   5.765 -0.0009  0.7096  1.6326
18589THY    HP360795   5.570   3.532   5.732  0.0196  1.3752 -2.3642
18589THY    HP460796   5.548   3.635   5.873 -0.7718 -0.3537  0.9351
18589THY    CP360797   5.368   3.331   5.819  0.6209  0.1286 -0.6212
18589THY    HP560798   5.367   3.242   5.882  0.3002 -1.3553 -1.7041
18589THY    HP660799   5.409   3.292   5.725  1.4515  0.6276 -0.9870
18589THY    HP760800   5.270   3.379   5.812  1.0608 -1.1531  0.1332
18589THY    CA360801   5.279   3.552   6.031  0.8952 -0.4011  0.3253
18589THY    HA360802   5.260   3.609   5.940  0.6864 -1.2751 -1.0672
18589THY    CA460803   5.202   3.566   6.151  0.0080  0.3855  0.1136
18589THY    HA460804   5.109   3.622   6.149  0.2961 -3.4658  0.6832
18589THY    CA560805   5.238   3.493   6.261 -0.8523  0.3466 -0.1332
18589THY    CM160806   5.145   3.500   6.385  0.1798 -1.4730  0.3064
18589THY    HM160807   5.161   3.584   6.453  0.3174  1.5502 -1.9939
18589THY    HM260808   5.162   3.406   6.439  4.3424 -1.1854  1.0435
18589THY    HM360809   5.040   3.481   6.356 -0.4553  1.8992 -2.1194
18589THY    CA660810   5.351   3.419   6.259 -1.1445 -0.1235  0.2165
18589THY    HA660811   5.383   3.371   6.352 -0.3548  0.7432  2.3129
18590THY      O60812   8.508   4.529   5.701  0.5014 -0.0863 -0.6037
18590THY     HO60813   8.483   4.526   5.794 -1.0854 -0.5023 -0.9444
18590THY    CA160814   8.595   4.439   5.664  0.2246  0.5721 -0.7217
18590THY    CA260815   8.643   4.423   5.537  0.8080  0.2480  0.6948
18590THY    CP160816   8.601   4.515   5.418  0.6395 -0.7204  0.2817
18590THY    HP160817   8.536   4.597   5.450  1.1550  2.4269 -0.4244
18590THY    CP260818   8.529   4.440   5.300 -0.2732  0.1096 -0.1892
18590THY    HP260819   8.592   4.369   5.245  1.1310  0.5667  0.6497
18590THY    HP360820   8.496   4.511   5.223  0.8992 -0.2995 -0.0536
18590THY    HP460821   8.446   4.386   5.345  0.4061  1.0037 -0.5119
18590THY    CP360822   8.732   4.574   5.355  0.2660 -0.1846 -0.2594
18590THY    HP560823   8.791   4.630   5.429 -1.3513 -0.1471  1.4859
18590THY    HP660824   8.699   4.640   5.274  0.5251  0.8694  1.2129
18590THY    HP760825   8.783   4.488   5.310 -1.4788 -2.1653 -0.3180
18590THY    CA360826   8.700   4.296   5.506  0.4698 -0.2485 -0.2247
18590THY    HA360827   8.736   4.279   5.405 -1.3846 -1.0593  0.3707
18590THY    CA460828   8.733   4.201   5.604 -0.1244 -0.3013 -0.0855
18590THY    HA460829   8.794   4.113   5.585 -2.0261 -0.7572 -1.3441
18590THY    CA560830   8.694   4.228   5.737  0.3898 -0.5907 -0.0251
18590THY    CM160831   8.735   4.136   5.850 -0.1552  0.2704 -0.1451
18590THY    HM160832   8.662   4.064   5.888 -0.2565 -0.9202 -0.7024
18590THY    HM260833   8.767   4.196   5.936  0.0666 -0.1814  0.4063
18590THY    HM360834   8.821   4.079   5.814  0.2157 -1.6495  1.5132
18590THY    CA660835   8.620   4.344   5.764  0.7572 -0.1996  0.0828
18590THY    HA660836   8.587   4.346   5.867 -1.0735 -0.6019 -3.1834
18591THY      O60837   7.506   1.363   2.255  0.3863 -0.1850  0.0392
18591THY     HO60838   7.412   1.388   2.250  0.0706  1.1234 -0.7483
18591THY    CA160839   7.505   1.251   2.182  0.7149 -0.7280 -0.0426
18591THY    CA260840   7.606   1.224   2.088  0.2065  0.0517  0.0727
18591THY    CP160841   7.724   1.328   2.076  0.0260  0.1078  0.2165
18591THY    HP160842   7.725   1.401   2.158 -0.7592 -0.2608  0.6557
18591THY    CP260843   7.712   1.409   1.936 -0.6671  0.1111 -0.3493
18591THY    HP260844   7.734   1.347   1.848  2.6194 -1.9299  3.2785
18591THY    HP360845   7.779   1.496   1.935 -0.4164 -1.8106 -0.5113
18591THY    HP460846   7.611   1.448   1.925 -0.4102  0.7940  0.5490
18591THY    CP360847   7.869   1.265   2.095 -0.1965  0.4602 -0.3472
18591THY    HP560848   7.881   1.175   2.034  0.1533  0.7002 -0.4622
18591THY    HP660849   7.873   1.229   2.198 -1.7135  0.9866  0.8505
18591THY    HP760850   7.951   1.337   2.086 -0.0848 -1.9702 -0.6784
18591THY    CA360851   7.594   1.107   2.003  1.2859 -0.2784  0.0289
18591THY    HA360852   7.678   1.070   1.945  1.6434  0.6404 -0.6182
18591THY    CA460853   7.474   1.034   2.011  0.4672  0.8867  0.1620
18591THY    HA460854   7.446   0.941   1.962 -0.1446  0.8819  0.3467
18591THY    CA560855   7.377   1.068   2.102 -0.2230  0.1155  0.3663
18591THY    CM160856   7.254   0.987   2.098  0.1845 -0.2946 -0.1273
18591THY    HM160857   7.277   0.880   2.095 -2.2716 -0.5991 -0.7087
18591THY    HM260858   7.203   1.018   2.006  0.1181  0.0700  0.8928
18591THY    HM360859   7.201   1.007   2.192  3.1902  1.9456 -1.8750
18591THY    CA660860   7.388   1.184   2.187  0.3596 -0.2616  0.2798
18591THY    HA660861   7.312   1.215   2.258  0.8778  0.3965  0.0650
18592THY      O60862   7.114   8.242   6.722  0.0875  0.4030  0.4162
18592THY     HO60863   7.124   8.180   6.796  3.3341 -0.0920  0.1560
18592THY    CA160864   6.978   8.280   6.710  0.1029  0.8394  0.2307
18592THY    CA260865   6.929   8.360   6.603  0.0789 -0.1171  0.1566
18592THY    CP160866   7.017   8.391   6.481 -0.6109  0.3850  0.9673
18592THY    HP160867   7.115   8.411   6.525 -0.3636 -0.4370  1.6249
18592THY    CP260868   6.974   8.515   6.409  0.0712 -0.1549 -0.3379
18592THY    HP260869   6.967   8.590   6.489  0.4970 -0.3273 -0.1077
18592THY    HP360870   6.874   8.504   6.365 -0.9472  2.1946 -1.0179
18592THY    HP460871   7.050   8.554   6.340  0.3478  0.7851  0.8262
18592THY    CP360872   7.024   8.261   6.388 -0.1376  0.6497 -0.0471
18592THY    HP560873   7.076   8.187   6.450  0.2516  0.7455  0.3095
18592THY    HP660874   7.086   8.284   6.301  0.2321  0.6610 -0.9416
18592THY    HP760875   6.922   8.226   6.367  0.0826 -0.0893 -0.2649
18592THY    CA360876   6.786   8.385   6.598 -0.9901 -0.5680 -0.0039
18592THY    HA360877   6.736   8.436   6.517  1.2338 -1.8462  0.2812
18592THY    CA460878   6.707   8.339   6.700 -0.4219 -0.5041  0.8519
18592THY    HA460879   6.599   8.347   6.704 -0.4580 -0.6175  0.4657
18592THY    CA560880   6.765   8.260   6.801  0.4896 -0.6804  0.0817
18592THY    CM160881   6.671   8.208   6.908 -0.0249  0.0361  0.6979
18592THY    HM160882   6.681   8.101   6.928 -1.3687  0.6569  0.6651
18592THY    HM260883   6.571   8.229   6.869  1.2788 -2.9394  1.9854
18592THY    HM360884   6.686   8.259   7.004 -0.2464  1.9578 -2.5693
18592THY    CA660885   6.899   8.230   6.804 -0.2349  0.4910 -0.0954
18592THY    HA660886   6.936   8.163   6.881 -3.8759  2.4260 -0.1310
18593THY      O60887   8.277   0.701   6.035  0.3615 -0.2999 -0.1103
18593THY     HO60888   8.251   0.635   5.968  0.8804  0.0238 -0.6515
18593THY    CA160889   8.307   0.632   6.149 -0.5961  0.7631  0.4047
18593THY    CA260890   8.404   0.672   6.237 -0.2273  0.4619 -0.5695
18593THY    CP160891   8.474   0.809   6.211 -0.5281  0.2411  0.2594
18593THY    HP160892   8.414   0.879   6.152  1.2934  2.1837  3.8009
18593THY    CP260893   8.603   0.799   6.121  0.7569  0.1995  0.3763
18593THY    HP260894   8.639   0.901   6.105 -1.4424 -1.1357  1.0228
18593THY    HP360895   8.575   0.760   6.023 -0.3388  0.7618 -0.3076
18593THY    HP460896   8.679   0.737   6.169  0.5210  0.8227  0.5604
18593THY    CP360897   8.508   0.881   6.342 -0.8948 -0.0545  0.5481
18593THY    HP560898   8.602   0.843   6.382 -0.1739 -0.9254  1.3820
18593THY    HP660899   8.431   0.858   6.417  1.2148  1.7201 -1.2777
18593THY    HP760900   8.517   0.990   6.331 -0.9294  0.1070  0.5685
18593THY    CA360901   8.437   0.589   6.347 -0.1224  0.1195 -0.8616
18593THY    HA360902   8.523   0.613   6.409 -0.3633 -0.1441  0.7560
18593THY    CA460903   8.372   0.469   6.361 -0.0762 -0.4183 -0.8098
18593THY    HA460904   8.396   0.409   6.448  1.2120  0.5564  1.0265
18593THY    CA560905   8.268   0.432   6.273 -0.2940 -0.1673 -0.6205
18593THY    CM160906   8.186   0.311   6.292 -0.0049  0.3769 -0.1639
18593THY    HM160907   8.080   0.339   6.306  0.4078  0.2110  1.5710
18593THY    HM260908   8.234   0.246   6.366  1.9079  1.9330  2.8144
18593THY    HM360909   8.185   0.253   6.199 -0.7487 -0.0182  0.4587
18593THY    CA660910   8.249   0.509   6.164 -0.2138 -0.7009  0.1746
18593THY    HA660911   8.165   0.482   6.101 -0.3884  0.0775 -1.1733
18594THY      O60912   1.755   8.074   7.193 -0.0291 -0.3194  0.7043
18594THY     HO60913   1.689   8.145   7.198 -2.0758 -1.7291 -0.9545
18594THY    CA160914   1.807   8.083   7.318 -0.7475  0.3389  0.7160
18594THY    CA260915   1.948   8.071   7.337 -0.3060 -0.7549  0.4311
18594THY    CP160916   2.046   8.005   7.235  0.0973 -0.1252 -0.4030
18594THY    HP160917   1.997   7.966   7.145  0.7674 -0.7884  0.2663
18594THY    CP260918   2.123   7.889   7.294  0.2792 -0.2748  0.4698
18594THY    HP260919   2.167   7.844   7.204 -0.1537 -1.2145  1.8577
18594THY    HP360920   2.053   7.814   7.333  1.4199 -0.0156 -0.4924
18594THY    HP460921   2.203   7.908   7.366 -1.4312  1.7665  0.2545
18594THY    CP360922   2.148   8.114   7.190 -0.1935  1.3868  1.3010
18594THY    HP560923   2.087   8.196   7.149  1.3812  1.5450  2.6191
18594THY    HP660924   2.222   8.080   7.116  0.9363  0.8631  4.5125
18594THY    HP760925   2.211   8.154   7.271  1.0061  1.6343 -0.9774
18594THY    CA360926   1.997   8.117   7.456  0.2309  0.1585 -0.6248
18594THY    HA360927   2.102   8.108   7.480  0.0407  0.8737 -0.9742
18594THY    CA460928   1.910   8.164   7.558 -0.7333  0.4271 -0.3946
18594THY    HA460929   1.955   8.188   7.654  0.8559 -0.6478  1.1744
18594THY    CA560930   1.777   8.186   7.537  0.7395  0.0490  0.4754
18594THY    CM160931   1.676   8.239   7.635 -0.1605  0.1216 -0.7484
18594THY    HM160932   1.707   8.227   7.739  1.1089 -0.0075  1.0637
18594THY    HM260933   1.572   8.212   7.613  0.5353 -1.8296 -2.1423
18594THY    HM360934   1.691   8.345   7.613  0.8995 -0.6863 -1.0480
18594THY    CA660935   1.725   8.147   7.412 -0.6141 -0.4662 -0.4174
18594THY    HA660936   1.621   8.168   7.390 -0.8074  0.6256 -0.1851
18595THY      O60937   5.789   1.096   4.487 -0.2238  0.2187  0.0530
18595THY     HO60938   5.779   1.104   4.391 -0.4759 -0.0905 -2.9343
18595THY    CA160939   5.788   1.223   4.533 -0.1798 -0.1095 -0.8036
18595THY    CA260940   5.729   1.247   4.654 -0.0754 -0.1262 -0.7130
18595THY    CP160941   5.700   1.132   4.743 -0.5560 -0.1439  0.1992
18595THY    HP160942   5.653   1.052   4.684 -4.3266  0.1739  1.9641
18595THY    CP260943   5.592   1.161   4.841  0.4909  0.7922  0.2268
18595THY    HP260944   5.497   1.192   4.795  1.0177 -1.1514 -0.8132
18595THY    HP360945   5.622   1.245   4.905  0.0395  0.5346  0.5892
18595THY    HP460946   5.567   1.076   4.906  0.4495  1.6660  0.8955
18595THY    CP360947   5.822   1.069   4.814 -0.5199 -0.2485  0.0232
18595THY    HP560948   5.801   0.993   4.890  1.1806  0.7962  0.5317
18595THY    HP660949   5.887   1.141   4.866  1.2457 -1.4674 -0.6182
18595THY    HP760950   5.889   1.024   4.741  0.3612  2.1701 -2.8903
18595THY    CA360951   5.713   1.385   4.690  0.3880  0.4795  0.6797
18595THY    HA360952   5.674   1.412   4.788  1.0918  0.9250  0.1191
18595THY    CA460953   5.768   1.486   4.612 -0.0079 -0.1742 -0.3440
18595THY    HA460954   5.739   1.589   4.630 -1.5662 -0.5034 -0.6981
18595THY    CA560955   5.828   1.453   4.490  0.2186  0.1461 -0.0092
18595THY    CM160956   5.865   1.567   4.395  0.3793  0.3375 -0.0906
18595THY    HM160957   5.936   1.637   4.440  0.6609 -0.6491  0.2603
18595THY    HM260958   5.774   1.620   4.364 -1.2884  2.3481 -1.5630
18595THY    HM360959   5.919   1.539   4.304 -0.5296 -0.4361  0.6180
18595THY    CA660960   5.838   1.323   4.454 -0.3794 -0.0034 -0.5743
18595THY    HA660961   5.876   1.304   4.354 -0.6899 -0.8813  2.7201
18596THY      O60962   0.459   2.127   5.959  0.5148 -0.3721 -0.7910
18596THY     HO60963   0.459   2.056   6.027  0.5166  2.8028  2.0116
18596THY    CA160964   0.551   2.210   6.002  0.1884 -0.3720 -0.3466
18596THY    CA260965   0.572   2.340   5.948  0.3602 -0.2363  0.4903
18596THY    CP160966   0.481   2.392   5.832  0.0371 -0.2967 -0.2208
18596THY    HP160967   0.393   2.330   5.818  0.3971  0.0831 -0.8253
18596THY    CP260968   0.552   2.362   5.698  0.0502 -0.2648  0.4418
18596THY    HP260969   0.612   2.272   5.716 -2.2729  2.2898 -0.7139
18596THY    HP360970   0.615   2.443   5.662  1.5557 -0.8908 -0.9423
18596THY    HP460971   0.472   2.351   5.624 -0.1536 -0.0699  0.6150
18596THY    CP360972   0.433   2.538   5.838 -0.3360 -0.5025 -0.0851
18596THY    HP560973   0.365   2.538   5.924  1.0129  0.6164  1.0036
18596THY    HP660974   0.373   2.576   5.755 -0.1835 -0.6067 -0.0695
18596THY    HP760975   0.517   2.608   5.851 -0.3912  1.9897 -0.3850
18596THY    CA360976   0.676   2.422   5.992  0.5340 -0.1331 -0.2795
18596THY    HA360977   0.694   2.522   5.952 -2.6014  2.8806  1.7311
18596THY    CA460978   0.762   2.373   6.101  0.5560  0.0740  0.6008
18596THY    HA460979   0.848   2.432   6.129  0.1993 -1.9042  2.1803
18596THY    CA560980   0.734   2.250   6.155  0.5425  0.0030 -0.2206
18596THY    CM160981   0.813   2.193   6.268  0.3545 -0.5567  0.2729
18596THY    HM160982   0.919   2.179   6.246  0.2890  0.7904 -3.5142
18596THY    HM260983   0.781   2.090   6.288  1.7513 -1.7968 -0.4346
18596THY    HM360984   0.805   2.251   6.361 -2.2664  1.6390 -3.2489
18596THY    CA660985   0.625   2.170   6.109 -0.0802 -0.8741 -0.0303
18596THY    HA660986   0.595   2.086   6.171  0.9000  1.7607  1.4298
18597THY      O60987   4.312   7.119   5.581 -0.1171 -0.2729  0.0198
18597THY     HO60988   4.272   7.207   5.571  3.0168 -1.2839  1.5004
18597THY    CA160989   4.221   7.069   5.679  0.0568 -0.6138  0.0837
18597THY    CA260990   4.277   6.985   5.780  0.1200  0.2644 -0.2234
18597THY    CP160991   4.430   6.949   5.790  0.1783  0.1250  0.5499
18597THY    HP160992   4.478   6.961   5.692 -0.7498 -0.5153 -0.7646
18597THY    CP260993   4.458   6.808   5.831  0.1097 -0.8410  0.3418
18597THY    HP260994   4.551   6.778   5.780  0.4698  0.3827 -0.7051
18597THY    HP360995   4.380   6.737   5.801 -0.0649  1.2506 -0.3943
18597THY    HP460996   4.479   6.785   5.936  0.9069 -0.7537  1.4231
18597THY    CP360997   4.488   7.055   5.878 -0.0490 -0.1368 -0.2823
18597THY    HP560998   4.483   7.147   5.817 -2.1148  0.8209  0.3077
18597THY    HP660999   4.586   7.019   5.908 -1.1599  0.6652 -2.8898
18597THY    HP761000   4.422   7.073   5.963  0.0345  0.2927 -1.9211
18597THY    CA361001   4.189   6.952   5.884  0.0740 -0.0198  0.0710
18597THY    HA361002   4.223   6.897   5.971  1.8938  0.9834  2.5806
18597THY    CA461003   4.052   6.994   5.883 -0.5971  0.0624  0.0120
18597THY    HA461004   3.986   6.954   5.960 -0.8307  0.1337  0.5355
18597THY    CA561005   3.999   7.063   5.773 -0.0848  0.2432 -0.4590
18597THY    CM161006   3.850   7.095   5.769 -0.3041  0.4508  0.2491
18597THY    HM161007   3.817   7.109   5.665 -1.2697  0.5055 -1.3999
18597THY    HM261008   3.825   7.187   5.823 -2.8422  0.9995 -0.6821
18597THY    HM361009   3.805   7.010   5.822  0.4402  0.3164 -0.2464
18597THY    CA661010   4.087   7.111   5.678  0.0922  0.0621 -0.8879
18597THY    HA661011   4.046   7.156   5.587  0.8912  0.8769  1.7065
18598THY      O61012   1.055   8.650   7.716 -0.4097  0.1648 -0.0098
18598THY     HO61013   0.981   8.614   7.767  1.6010  3.2798 -0.0742
18598THY    CA161014   1.077   8.576   7.602 -1.4037  0.8223 -0.4092
18598THY    CA261015   1.208   8.561   7.541  0.3711  0.1619  0.0981
18598THY    CP161016   1.329   8.635   7.604  0.1323 -0.1527  0.3967
18598THY    HP161017   1.305   8.727   7.658  2.8088 -0.1259  1.1640
18598THY    CP261018   1.426   8.682   7.494  0.6607 -0.4740  0.4992
18598THY    HP261019   1.476   8.598   7.445  0.5207  0.1952  0.0176
18598THY    HP361020   1.501   8.743   7.545  0.7996  1.7239 -1.3704
18598THY    HP461021   1.377   8.740   7.415 -1.9488  0.2298 -0.5628
18598THY    CP361022   1.398   8.548   7.704  0.7272  0.1877  0.5234
18598THY    HP561023   1.330   8.506   7.779  2.4858  2.9446  2.3287
18598THY    HP661024   1.476   8.608   7.752  1.7694 -1.1346  0.2808
18598THY    HP761025   1.446   8.461   7.657  1.1057  1.2783  0.1284
18598THY    CA361026   1.218   8.471   7.431  0.6267 -0.3746  1.0949
18598THY    HA361027   1.313   8.450   7.383  1.5438  1.5630  0.5952
18598THY    CA461028   1.106   8.414   7.373 -0.0253  0.3806 -0.5094
18598THY    HA461029   1.118   8.360   7.280  0.7953  0.5509 -0.6365
18598THY    CA561030   0.983   8.445   7.429  0.8677  0.6975 -0.1113
18598THY    CM161031   0.854   8.410   7.349 -0.6507  0.2165  0.5161
18598THY    HM161032   0.789   8.498   7.342 -1.7422  0.1118 -0.2772
18598THY    HM261033   0.795   8.335   7.403  1.7308 -0.8450 -2.2900
18598THY    HM361034   0.876   8.360   7.254 -2.6039 -0.3332  0.5820
18598THY    CA661035   0.968   8.523   7.546 -0.2147 -0.4442  0.3278
18598THY    HA661036   0.868   8.545   7.582  0.4756  3.2629 -1.7548
18599THY      O61037   7.529   8.967   5.873  0.1471 -0.2768  0.4976
18599THY     HO61038   7.547   8.893   5.813 -0.5056 -0.2094  0.2762
18599THY    CA161039   7.438   9.051   5.826  0.6732 -0.2666  0.0242
18599THY    CA261040   7.395   9.156   5.911 -0.3869 -0.4161  0.0528
18599THY    CP161041   7.476   9.185   6.043  0.0775 -0.5644  0.0395
18599THY    HP161042   7.581   9.154   6.034  0.0471  2.1167 -1.1273
18599THY    CP261043   7.417   9.114   6.166  0.1191 -0.4714  0.0647
18599THY    HP261044   7.430   9.007   6.146 -1.6348 -1.3052 -0.0158
18599THY    HP361045   7.309   9.130   6.176  0.2707  0.9531  0.3446
18599THY    HP461046   7.464   9.146   6.260 -1.3217  0.5411 -0.6895
18599THY    CP361047   7.475   9.329   6.080  0.1559 -0.4075  0.0800
18599THY    HP561048   7.565   9.354   6.138  1.0620 -2.8023  2.9109
18599THY    HP661049   7.378   9.357   6.122 -0.2185 -0.2994 -1.3291
18599THY    HP761050   7.488   9.393   5.992 -1.4323 -0.6678  0.0786
18599THY    CA361051   7.294   9.234   5.862  1.0531 -0.2003 -0.5875
18599THY    HA361052   7.262   9.319   5.921 -0.4189 -0.9441 -0.5784
18599THY    CA461053   7.223   9.198   5.749  0.6436 -0.1327 -0.4333
18599THY    HA461054   7.134   9.258   5.730 -0.0201  2.7376 -0.3820
18599THY    CA561055   7.265   9.091   5.673  0.4991  0.0803 -0.2870
18599THY    CM161056   7.187   9.064   5.543 -0.0896 -0.1861  0.1731
18599THY    HM161057   7.186   9.157   5.485 -2.2787  0.9008  0.9041
18599THY    HM261058   7.083   9.028   5.553 -0.4317 -1.1308  0.8672
18599THY    HM361059   7.237   8.991   5.478 -0.3355 -0.4296  0.2189
18599THY    CA661060   7.382   9.023   5.702  0.3695 -0.7706  0.9313
18599THY    HA661061   7.415   8.930   5.657  0.3561  3.9817 -1.6793
18600THY      O61062   3.099   1.909   4.727 -0.0385 -0.1437  0.6230
18600THY     HO61063   3.143   1.826   4.705 -0.2222 -2.3527  1.0673
18600THY    CA161064   3.142   1.952   4.849  0.0274  0.7177 -0.2919
18600THY    CA261065   3.195   2.079   4.859  0.2052  0.1043  0.5328
18600THY    CP161066   3.212   2.165   4.739 -0.0458 -0.3117 -0.2540
18600THY    HP161067   3.235   2.099   4.654 -0.2934  0.1385 -0.9233
18600THY    CP261068   3.325   2.270   4.744 -0.0163  0.3754  0.9512
18600THY    HP261069   3.339   2.287   4.637 -1.0334 -0.3588 -2.1167
18600THY    HP361070   3.412   2.222   4.791 -1.0812  1.2234 -0.2387
18600THY    HP461071   3.300   2.362   4.799  0.1466  2.3140 -0.1042
18600THY    CP361072   3.090   2.243   4.704 -0.3626 -0.8982  0.3146
18600THY    HP561073   3.109   2.307   4.617  2.7248  0.8794  2.0637
18600THY    HP661074   3.071   2.313   4.786 -0.7663 -0.2610 -0.5264
18600THY    HP761075   3.001   2.179   4.702 -0.5024  1.2124  0.3968
18600THY    CA361076   3.205   2.128   4.993 -0.2954 -0.9349 -0.2682
18600THY    HA361077   3.231   2.231   5.014 -0.4693 -0.9374 -0.2224
18600THY    CA461078   3.185   2.044   5.102  0.5643  0.2713 -0.0982
18600THY    HA461079   3.186   2.076   5.206 -1.7531  1.1236 -2.4687
18600THY    CA561080   3.147   1.911   5.079  0.5802 -0.6065  0.6787
18600THY    CM161081   3.126   1.815   5.195 -0.6095 -0.4471  1.1040
18600THY    HM161082   3.208   1.820   5.268 -1.1571  0.1004  2.9239
18600THY    HM261083   3.095   1.711   5.177 -2.1572  0.6373  1.3459
18600THY    HM361084   3.047   1.854   5.260 -0.5979 -0.4395  1.1142
18600THY    CA661085   3.127   1.867   4.952 -0.0876  0.6097 -0.6576
18600THY    HA661086   3.091   1.769   4.922  2.0696 -1.7800 -0.8352
18601THY      O61087   8.033   4.861   6.331 -0.0832  0.2843  0.1711
18601THY     HO61088   8.087   4.833   6.255  2.1986  1.2906  1.5532
18601THY    CA161089   8.136   4.871   6.419  0.0366  0.3835 -0.1826
18601THY    CA261090   8.134   4.927   6.553 -0.3641 -0.4544  0.2619
18601THY    CP161091   8.005   4.993   6.605 -0.0219  0.0479  0.2591
18601THY    HP161092   7.940   5.017   6.520 -1.8529  0.9169 -1.3645
18601THY    CP261093   8.033   5.130   6.655  0.4217  0.4491 -0.0258
18601THY    HP261094   7.937   5.167   6.691  0.9130  2.8816 -0.8943
18601THY    HP361095   8.072   5.197   6.577  1.1223  0.8163  0.0105
18601THY    HP461096   8.106   5.132   6.737  1.3852 -0.3637  2.7441
18601THY    CP361097   7.932   4.906   6.713  0.3704 -0.6388  0.1276
18601THY    HP561098   7.848   4.954   6.764 -0.9323 -3.2351  0.8072
18601THY    HP661099   7.995   4.877   6.798 -1.1954  0.7856  0.7318
18601THY    HP761100   7.891   4.813   6.673  0.3953  0.3647 -0.3170
18601THY    CA361101   8.250   4.921   6.628 -0.0158 -0.8736  0.2438
18601THY    HA361102   8.248   4.973   6.723 -2.5887 -0.9817  0.4464
18601THY    CA461103   8.361   4.842   6.586  0.0080 -0.0082 -0.2585
18601THY    HA461104   8.450   4.832   6.648  0.2569 -0.0947  1.1611
18601THY    CA561105   8.365   4.799   6.455 -0.4479  0.4284  0.7574
18601THY    CM161106   8.492   4.723   6.403 -0.6328  0.1182  0.2549
18601THY    HM161107   8.570   4.785   6.449 -1.4883 -0.0455  1.4744
18601THY    HM261108   8.518   4.705   6.298 -0.9761  0.3596 -1.9155
18601THY    HM361109   8.516   4.627   6.450 -0.2998  0.2075  0.3804
18601THY    CA661110   8.252   4.812   6.372  0.4183  0.6152 -1.0130
18601THY    HA661111   8.254   4.763   6.275 -1.7265  0.3339 -0.6690
18602THY      O61112   3.010   0.889   5.688 -0.4981  0.2703  0.5632
18602THY     HO61113   2.942   0.859   5.751  0.0894  1.1349  0.9926
18602THY    CA161114   3.061   1.014   5.727  0.0423  0.1451 -0.1046
18602THY    CA261115   3.171   1.075   5.660  0.1346  0.5735  1.2334
18602THY    CP161116   3.214   0.996   5.530 -0.5078  0.3111 -0.2004
18602THY    HP161117   3.131   0.940   5.484 -0.5552  0.7865 -0.5272
18602THY    CP261118   3.328   0.892   5.567  0.1511 -0.5982  0.4128
18602THY    HP261119   3.416   0.938   5.614  0.0579  0.9332 -0.8876
18602THY    HP361120   3.353   0.821   5.487 -0.7655 -1.1316  0.6669
18602THY    HP461121   3.275   0.826   5.637 -0.8381 -1.2803  0.4656
18602THY    CP361122   3.264   1.101   5.421  0.0721 -0.5732 -0.7844
18602THY    HP561123   3.201   1.191   5.429 -1.1278 -0.7211 -1.5841
18602THY    HP661124   3.248   1.061   5.320 -2.3059 -1.8255  2.8092
18602THY    HP761125   3.368   1.130   5.439 -0.3746 -1.2794  1.4605
18602THY    CA361126   3.233   1.182   5.722 -0.0485  0.0928 -0.4606
18602THY    HA361127   3.319   1.223   5.670 -1.1117 -0.5096  1.0868
18602THY    CA461128   3.184   1.233   5.841  0.0981  0.7700  0.1528
18602THY    HA461129   3.231   1.319   5.887  1.2776  2.2872 -1.2297
18602THY    CA561130   3.067   1.183   5.900 -0.6510  0.1990 -0.0542
18602THY    CM161131   3.018   1.250   6.017 -0.3952  0.0290  0.8023
18602THY    HM161132   3.088   1.230   6.100  0.8509 -1.3320 -0.7460
18602THY    HM261133   2.922   1.205   6.045  0.0393  0.2325 -0.0155
18602THY    HM361134   3.010   1.358   5.999 -2.7331  0.0429  0.6876
18602THY    CA661135   3.005   1.073   5.844 -0.1755  0.0741  0.2472
18602THY    HA661136   2.921   1.030   5.897 -1.1905 -2.3258 -0.8961
18603THY      O61137   1.046   5.443   3.444  0.5633  0.7088 -0.1647
18603THY     HO61138   1.143   5.445   3.451  0.6958 -0.3891 -1.4510
18603THY    CA161139   0.995   5.506   3.548  0.1261 -0.0516 -0.3696
18603THY    CA261140   0.868   5.566   3.538  0.3350 -0.3795  0.1196
18603THY    CP161141   0.786   5.567   3.401  0.2387 -0.6035 -0.4799
18603THY    HP161142   0.832   5.491   3.335 -0.6418  0.9473 -2.4501
18603THY    CP261143   0.804   5.707   3.333 -0.7158 -0.2689 -0.5036
18603THY    HP261144   0.717   5.750   3.282  0.4120 -1.2019  0.7858
18603THY    HP361145   0.868   5.692   3.245 -1.3372 -1.2717  2.0799
18603THY    HP461146   0.862   5.773   3.398 -0.9820  0.9427 -1.4235
18603THY    CP361147   0.638   5.529   3.407  0.3552  0.3260  0.3961
18603THY    HP561148   0.630   5.435   3.462  0.8046 -0.0772  0.1185
18603THY    HP661149   0.597   5.519   3.305 -0.5913  0.4404  2.4999
18603THY    HP761150   0.582   5.604   3.463 -1.2369 -1.5651  0.7102
18603THY    CA361151   0.816   5.623   3.657  0.2671 -0.2608 -0.4461
18603THY    HA361152   0.715   5.661   3.656  0.9217 -1.7512  1.3718
18603THY    CA461153   0.882   5.611   3.781  0.2325  0.8048 -0.5469
18603THY    HA461154   0.848   5.664   3.870  0.1798 -0.2728  1.3432
18603THY    CA561155   1.006   5.548   3.787  0.0020 -0.1292 -0.4258
18603THY    CM161156   1.088   5.536   3.918  1.0199 -0.6889  0.1915
18603THY    HM161157   1.195   5.551   3.899  1.5397 -1.6158 -3.6710
18603THY    HM261158   1.075   5.436   3.960 -0.1087 -0.6040  0.3628
18603THY    HM361159   1.062   5.618   3.985 -0.5132 -2.0788  0.8964
18603THY    CA661160   1.064   5.506   3.665 -0.5929 -0.0668 -0.3053
18603THY    HA661161   1.163   5.460   3.670 -0.1307  0.4338  0.7232
18604THY      O61162   8.366   4.976   3.908 -0.1341  0.8262  0.8516
18604THY     HO61163   8.365   5.067   3.941  0.6624  2.3931  0.3340
18604THY    CA161164   8.337   4.996   3.776 -0.4864  0.7711 -0.2550
18604THY    CA261165   8.365   4.902   3.673 -0.0029  0.2164 -0.2657
18604THY    CP161166   8.457   4.776   3.703 -0.2972 -0.2519  0.2710
18604THY    HP161167   8.457   4.740   3.806  4.0636  0.0351  0.5514
18604THY    CP261168   8.603   4.819   3.676  0.4389 -0.2774 -0.0738
18604THY    HP261169   8.641   4.867   3.767 -0.1101  0.5525 -1.1755
18604THY    HP361170   8.607   4.902   3.604  2.2355 -0.1453 -0.0063
18604THY    HP461171   8.666   4.735   3.647  2.0459  1.2956  0.5157
18604THY    CP361172   8.413   4.655   3.618  0.1260 -0.3314  0.0518
18604THY    HP561173   8.306   4.644   3.596  0.4278 -1.9615  0.1269
18604THY    HP661174   8.452   4.556   3.641 -0.3368 -1.7002 -0.4632
18604THY    HP761175   8.448   4.673   3.516  2.0380  0.1950 -0.4725
18604THY    CA361176   8.312   4.932   3.550 -0.0618 -0.3990  0.5545
18604THY    HA361177   8.329   4.858   3.472  0.6991  0.3755 -0.1105
18604THY    CA461178   8.235   5.049   3.527  0.6290 -0.5903  0.5663
18604THY    HA461179   8.197   5.054   3.426  1.7852 -1.1401 -1.0626
18604THY    CA561180   8.206   5.137   3.625 -0.1848  0.0989 -0.0240
18604THY    CM161181   8.119   5.254   3.602 -0.8814 -0.2024 -0.1038
18604THY    HM161182   8.072   5.235   3.504  0.1299 -0.7655  0.2183
18604THY    HM261183   8.178   5.346   3.609 -3.8134  1.2336  1.8501
18604THY    HM361184   8.040   5.256   3.677  0.5244  1.3360 -0.6315
18604THY    CA661185   8.260   5.116   3.753  0.5465  0.3664 -0.5180
18604THY    HA661186   8.227   5.182   3.832 -0.8883  0.9272 -1.8403
18605THY      O61187   9.002   8.316   2.507 -0.1930 -0.1850 -0.7118
18605THY     HO61188   8.950   8.371   2.445 -0.6999 -0.5977 -1.6379
18605THY    CA161189   8.934   8.203   2.546 -0.4430  0.2726 -0.4765
18605THY    CA261190   8.989   8.111   2.639 -0.4236  0.1765 -0.5680
18605THY    CP161191   9.130   8.118   2.682 -0.1926 -0.3220 -0.0472
18605THY    HP161192   9.173   8.212   2.647  2.4348  0.2486 -0.9532
18605THY    CP261193   9.211   8.010   2.614  0.0424 -0.1312  0.8028
18605THY    HP261194   9.202   8.006   2.505 -1.9830 -0.0612  1.9702
18605THY    HP361195   9.181   7.912   2.651 -0.1983  0.3449  1.0510
18605THY    HP461196   9.316   8.033   2.635  0.2350 -0.6910  0.4645
18605THY    CP361197   9.137   8.120   2.840 -0.7691 -0.1004  0.0243
18605THY    HP561198   9.240   8.139   2.872 -0.5346 -0.3249 -0.8161
18605THY    HP661199   9.090   8.030   2.882 -0.4199 -0.6870 -0.4440
18605THY    HP761200   9.072   8.202   2.871  0.2086  1.3561  0.2880
18605THY    CA361201   8.907   8.009   2.684 -0.7830  0.6698  0.4139
18605THY    HA361202   8.936   7.941   2.763 -0.5529 -0.5421 -0.9461
18605THY    CA461203   8.783   7.990   2.629 -0.2851  0.3784 -0.3176
18605THY    HA461204   8.723   7.910   2.672 -0.6790  1.9645  0.8018
18605THY    CA561205   8.732   8.075   2.532  0.0125  0.2890 -0.3543
18605THY    CM161206   8.590   8.061   2.478 -0.4891 -0.2773 -0.7225
18605THY    HM161207   8.531   8.154   2.476 -1.4495 -3.7507 -1.2883
18605THY    HM261208   8.535   7.990   2.541 -0.5447  0.4430 -0.0624
18605THY    HM361209   8.587   8.021   2.377 -0.3380  0.1206 -1.7647
18605THY    CA661210   8.808   8.186   2.496  0.5754 -0.1377 -0.8648
18605THY    HA661211   8.771   8.264   2.430 -0.3289 -0.6123 -1.6751
18606THY      O61212   4.597   5.717   2.784 -0.0606  0.5823 -0.0718
18606THY     HO61213   4.617   5.635   2.832 -0.0858  0.7087 -0.0045
18606THY    CA161214   4.564   5.812   2.876 -0.7838  0.1769 -0.1253
18606THY    CA261215   4.516   5.943   2.845 -0.0387  0.7130  0.3339
18606THY    CP161216   4.505   5.984   2.707 -0.2707  0.1756 -0.6400
18606THY    HP161217   4.502   5.891   2.648 -3.1176 -0.1384 -0.4587
18606THY    CP261218   4.632   6.064   2.675 -0.2776 -0.4129  0.0601
18606THY    HP261219   4.633   6.172   2.692  0.2526  0.0467 -0.0175
18606THY    HP361220   4.653   6.058   2.567 -3.1237 -1.0053 -1.4166
18606THY    HP461221   4.719   6.032   2.733  2.1637 -3.9424 -0.3037
18606THY    CP361222   4.386   6.076   2.671  0.6846 -0.2286 -0.1943
18606THY    HP561223   4.367   6.148   2.752  1.6719 -2.3031  2.5859
18606THY    HP661224   4.301   6.009   2.656  0.1847  0.0375  0.3718
18606THY    HP761225   4.396   6.130   2.577 -0.2416  0.7631  1.8134
18606THY    CA361226   4.490   6.038   2.946  0.0038  0.4586 -0.1250
18606THY    HA361227   4.467   6.142   2.923 -2.2235 -0.5277 -0.7710
18606THY    CA461228   4.506   5.997   3.081 -0.1404 -0.2841  0.2662
18606THY    HA461229   4.493   6.075   3.156  1.1504 -2.2004  2.4751
18606THY    CA561230   4.549   5.864   3.109 -0.2070  0.2503 -0.2753
18606THY    CM161231   4.558   5.808   3.249 -0.3531  0.1982 -0.1433
18606THY    HM161232   4.657   5.766   3.266 -0.1443  0.9418  0.6246
18606THY    HM261233   4.479   5.734   3.269 -0.3061 -0.2656 -0.3234
18606THY    HM361234   4.546   5.891   3.319  0.0032 -0.4277  0.4450
18606THY    CA661235   4.584   5.776   3.008 -0.4639  0.3053 -0.0848
18606THY    HA661236   4.620   5.676   3.032 -1.6665  0.3553 -0.5176
18607THY      O61237   4.600   0.887   7.293  0.2210  0.0760 -0.3846
18607THY     HO61238   4.657   0.899   7.215 -0.4128 -0.7615 -2.3247
18607THY    CA161239   4.548   1.012   7.314  0.3729  0.7442 -0.3899
18607THY    CA261240   4.471   1.040   7.430  0.2650  0.0628  0.2345
18607THY    CP161241   4.477   0.943   7.543  0.4457 -0.2578 -0.3442
18607THY    HP161242   4.485   0.842   7.503  1.1825 -0.1345 -0.3400
18607THY    CP261243   4.347   0.938   7.629  0.7667 -0.7479 -0.1660
18607THY    HP261244   4.348   0.857   7.703 -0.3755 -1.1122 -0.5266
18607THY    HP361245   4.260   0.939   7.562 -0.0289  0.1744  2.9283
18607THY    HP461246   4.338   1.027   7.692  0.7448 -2.1362  0.8512
18607THY    CP361247   4.599   0.956   7.634  0.1036 -0.9473 -0.8080
18607THY    HP561248   4.692   0.958   7.576  0.0724 -0.9720  0.4509
18607THY    HP661249   4.608   0.866   7.697 -0.2543  3.4160  1.9009
18607THY    HP761250   4.585   1.046   7.694  0.1271 -1.9010 -0.1557
18607THY    CA361251   4.410   1.169   7.438  0.0215 -0.2986 -0.3063
18607THY    HA361252   4.341   1.192   7.520  1.4858  0.8406  0.1967
18607THY    CA461253   4.415   1.252   7.324  0.2241  0.3340  0.0405
18607THY    HA461254   4.352   1.341   7.324  0.8516 -2.4234  0.5729
18607THY    CA561255   4.491   1.224   7.211 -0.4556 -0.3960  0.4739
18607THY    CM161256   4.516   1.313   7.087 -0.6373 -0.1831  0.4287
18607THY    HM161257   4.619   1.347   7.071 -0.9814 -1.8716  0.7666
18607THY    HM261258   4.471   1.411   7.102 -0.7890  1.0621  0.1761
18607THY    HM361259   4.490   1.251   7.000  1.7026 -0.0403 -0.9122
18607THY    CA661260   4.558   1.104   7.207  0.6098 -0.1003 -0.5547
18607THY    HA661261   4.619   1.083   7.120  1.8323  0.7435 -0.6553
18608THY      O61262   4.094   3.040   5.192 -0.4742 -0.1717  0.1160
18608THY     HO61263   4.186   3.051   5.164 -0.9333 -1.3133  1.4009
18608THY    CA161264   4.091   3.146   5.271 -0.1823 -0.2663 -0.0992
18608THY    CA261265   3.978   3.195   5.328  0.1444  0.2826 -0.9123
18608THY    CP161266   3.838   3.125   5.306  0.0112 -0.3259 -0.2913
18608THY    HP161267   3.859   3.020   5.281  0.1757  1.5118 -0.7445
18608THY    CP261268   3.762   3.207   5.192 -0.8164 -0.2571  0.6834
18608THY    HP261269   3.815   3.234   5.100  0.7474  0.9764  2.0027
18608THY    HP361270   3.722   3.298   5.237 -0.3272  0.1278  0.7081
18608THY    HP461271   3.675   3.148   5.161 -1.2167  2.4139 -0.2678
18608THY    CP361272   3.764   3.128   5.439 -0.1882  0.0502 -0.7811
18608THY    HP561273   3.676   3.066   5.421 -0.6405 -0.5800  0.0157
18608THY    HP661274   3.716   3.225   5.460 -6.6565 -2.6015 -2.8376
18608THY    HP761275   3.822   3.096   5.526 -3.0501  2.7857  0.9196
18608THY    CA361276   3.985   3.312   5.398  0.1035  0.1644  0.0836
18608THY    HA361277   3.895   3.357   5.438 -0.4437 -0.4111 -0.4891
18608THY    CA461278   4.108   3.374   5.417  0.6994  0.2569  0.1055
18608THY    HA461279   4.099   3.467   5.472 -0.1217 -1.0474  0.8199
18608THY    CA561280   4.229   3.314   5.374 -0.2060 -0.8318  0.4527
18608THY    CM161281   4.360   3.377   5.402 -0.1508  0.0601  0.5845
18608THY    HM161282   4.388   3.396   5.506  0.6033  0.0116 -0.2040
18608THY    HM261283   4.360   3.471   5.344 -0.8951  1.2130  1.3238
18608THY    HM361284   4.441   3.314   5.363 -1.4093  0.4498 -1.3461
18608THY    CA661285   4.217   3.203   5.296 -1.0693  0.3525  0.2201
18608THY    HA661286   4.308   3.161   5.254  0.2012  1.4463  1.7930
18609THY      O61287   4.207   2.535   2.606  0.2920 -0.1448  0.1019
18609THY     HO61288   4.295   2.538   2.564  0.1696 -0.3660  1.2978
18609THY    CA161289   4.149   2.657   2.620 -0.4263  0.4455 -0.6338
18609THY    CA261290   4.026   2.668   2.685  0.0003 -0.3187 -0.6527
18609THY    CP161291   3.955   2.546   2.735  0.2985 -0.0419  1.2798
18609THY    HP161292   4.014   2.456   2.753 -2.8352 -1.7013 -1.3288
18609THY    CP261293   3.861   2.494   2.625  0.0437 -0.5535 -0.4329
18609THY    HP261294   3.828   2.393   2.652 -0.4780  0.9586  0.1135
18609THY    HP361295   3.913   2.500   2.528 -0.7457 -0.8846  2.1088
18609THY    HP461296   3.779   2.567   2.620  0.2736 -1.7940 -0.2363
18609THY    CP361297   3.866   2.569   2.871 -0.3581  0.1496  0.4036
18609THY    HP561298   3.933   2.609   2.948 -0.7092  0.7683 -0.1864
18609THY    HP661299   3.826   2.476   2.913 -0.1411  2.9144  1.4481
18609THY    HP761300   3.782   2.638   2.862  0.8036 -0.4348  1.7972
18609THY    CA361301   3.979   2.804   2.703  0.5096 -0.2657 -0.4613
18609THY    HA361302   3.887   2.824   2.757  1.2915  0.8303  0.2713
18609THY    CA461303   4.052   2.916   2.656  0.1691 -0.6274  0.2161
18609THY    HA461304   4.010   3.014   2.679  1.2747  0.0907  0.5522
18609THY    CA561305   4.177   2.901   2.593  0.0829  0.7872  0.4538
18609THY    CM161306   4.229   3.016   2.512 -0.8063  0.6305 -0.0388
18609THY    HM161307   4.240   2.999   2.404  0.0459  0.9217 -1.4464
18609THY    HM261308   4.327   3.047   2.550  0.6277 -1.1800 -2.0863
18609THY    HM361309   4.162   3.103   2.507  0.3080 -2.3123  0.7955
18609THY    CA661310   4.217   2.769   2.573 -0.6920 -0.4403 -0.6970
18609THY    HA661311   4.309   2.757   2.515 -0.5239 -0.5517  0.9026
18610THY      O61312   1.083   0.740   5.435  0.3630 -0.1461  0.6568
18610THY     HO61313   1.156   0.703   5.487 -0.7097  0.6354 -0.4397
18610THY    CA161314   1.029   0.650   5.355 -0.4064 -0.6077  0.4651
18610THY    CA261315   0.956   0.686   5.238  1.0669  0.4408  0.3042
18610THY    CP161316   0.931   0.832   5.196  0.2032 -0.3919 -0.2772
18610THY    HP161317   0.980   0.901   5.265 -1.0846 -1.2169  1.5323
18610THY    CP261318   0.781   0.861   5.190  0.0032  0.4722  0.7016
18610THY    HP261319   0.757   0.868   5.297  3.9332  1.4817  0.7026
18610THY    HP361320   0.718   0.792   5.132  1.7364 -2.6084  1.5066
18610THY    HP461321   0.757   0.958   5.146 -1.0874 -2.6409 -0.8553
18610THY    CP361322   0.995   0.861   5.061 -0.7401  0.4600 -0.0291
18610THY    HP561323   0.980   0.964   5.025  2.5133 -1.1697 -0.0029
18610THY    HP661324   0.960   0.788   4.988 -0.1454  0.2034 -0.0622
18610THY    HP761325   1.104   0.848   5.067 -0.9757 -0.3159 -2.8031
18610THY    CA361326   0.893   0.582   5.161  0.2615 -0.2200 -0.2384
18610THY    HA361327   0.846   0.606   5.066  2.8695 -1.1926  1.5793
18610THY    CA461328   0.891   0.450   5.206 -0.4167  0.4274 -0.2357
18610THY    HA461329   0.835   0.372   5.155 -3.0782  3.2570 -0.3851
18610THY    CA561330   0.964   0.414   5.317 -0.6513  0.3606 -0.5745
18610THY    CM161331   0.975   0.268   5.349 -0.2986 -0.3018  0.1301
18610THY    HM161332   0.994   0.198   5.267 -0.7786 -1.8607  1.7541
18610THY    HM261333   0.894   0.238   5.417 -1.4437 -0.7942  1.9112
18610THY    HM361334   1.068   0.257   5.405  0.3567 -1.4936 -0.5368
18610THY    CA661335   1.035   0.512   5.389 -0.3236  0.1078 -0.3454
18610THY    HA661336   1.081   0.484   5.483  2.4420 -0.8786  0.5945
18611THY      O61337   2.979   2.357   7.651  0.3224 -0.7196  0.5225
18611THY     HO61338   2.923   2.338   7.573 -0.8139  0.2031  0.0159
18611THY    CA161339   3.000   2.488   7.642  0.5351  0.0690  0.3085
18611THY    CA261340   3.097   2.544   7.719 -0.4062 -0.2931 -0.3946
18611THY    CP161341   3.187   2.463   7.814 -0.2570 -0.1322 -0.4809
18611THY    HP161342   3.147   2.361   7.819 -1.2210 -3.1701 -0.3442
18611THY    CP261343   3.201   2.518   7.957 -0.8192 -0.2052  0.0307
18611THY    HP261344   3.103   2.536   8.004 -0.9155  0.0192 -1.0193
18611THY    HP361345   3.259   2.611   7.962 -3.2992 -1.4801  1.7628
18611THY    HP461346   3.260   2.442   8.010  2.7687 -3.4206  0.2767
18611THY    CP361347   3.328   2.460   7.742 -0.3186  0.1568 -0.1562
18611THY    HP561348   3.373   2.559   7.754  0.4118  0.5482 -0.5270
18611THY    HP661349   3.309   2.450   7.635  2.0222 -0.6402  2.5934
18611THY    HP761350   3.383   2.373   7.778 -1.9969  0.8773 -0.9663
18611THY    CA361351   3.111   2.687   7.714  0.7620  0.0789  0.2141
18611THY    HA361352   3.195   2.731   7.767  0.9356 -0.5289  0.6251
18611THY    CA461353   3.019   2.764   7.628  0.2795  0.1565  0.2103
18611THY    HA461354   3.030   2.871   7.642  2.5189 -0.5492  0.1246
18611THY    CA561355   2.922   2.703   7.554  0.0625  0.0805 -0.2598
18611THY    CM161356   2.832   2.788   7.469 -0.2719 -0.2410  0.6762
18611THY    HM161357   2.777   2.850   7.541 -1.1221 -0.7793  0.5565
18611THY    HM261358   2.754   2.726   7.423  0.4420 -0.7820  0.1682
18611THY    HM361359   2.890   2.837   7.390 -0.1766 -0.3818  0.3330
18611THY    CA661360   2.909   2.566   7.566  0.1040 -0.0784  1.2693
18611THY    HA661361   2.833   2.519   7.504  1.1445 -0.8195  0.5082
18612THY      O61362   2.507   7.387   3.283  0.6778  0.3416  0.0286
18612THY     HO61363   2.547   7.326   3.347 -2.1778  0.6632 -1.6977
18612THY    CA161364   2.607   7.427   3.202  0.4197 -0.1973 -0.1061
18612THY    CA261365   2.581   7.528   3.104 -0.2265 -0.5947 -0.5157
18612THY    CP161366   2.440   7.591   3.098 -0.5649  0.6375  0.3966
18612THY    HP161367   2.366   7.539   3.160 -0.0892  1.5850  0.8228
18612THY    CP261368   2.385   7.606   2.954 -0.0116  0.1981 -0.3270
18612THY    HP261369   2.280   7.636   2.962 -0.2227  3.1517 -1.5281
18612THY    HP361370   2.384   7.524   2.881  0.0651  1.4312 -1.4458
18612THY    HP461371   2.451   7.686   2.916  1.1401  0.5933 -1.0680
18612THY    CP361372   2.442   7.738   3.163 -0.0598 -0.6567 -0.0056
18612THY    HP561373   2.462   7.726   3.270 -0.1134 -0.7158 -0.6560
18612THY    HP661374   2.350   7.796   3.149  0.0828  0.1609  0.4270
18612THY    HP761375   2.528   7.791   3.120  1.8290  1.2394 -1.3535
18612THY    CA361376   2.690   7.567   3.017  0.4855 -0.4432  0.0146
18612THY    HA361377   2.679   7.646   2.943 -0.3581 -0.2753  0.0551
18612THY    CA461378   2.811   7.503   3.021 -0.6293 -0.3242  0.6289
18612THY    HA461379   2.886   7.524   2.945 -0.8926 -0.9546 -0.6588
18612THY    CA561380   2.834   7.397   3.110 -0.0954  0.0423  0.7081
18612THY    CM161381   2.964   7.318   3.115  0.4471  1.2045 -0.0674
18612THY    HM161382   3.052   7.370   3.152  1.1269 -0.6850  0.2217
18612THY    HM261383   2.984   7.289   3.011  0.8565  1.3391 -0.2719
18612THY    HM361384   2.954   7.226   3.174 -0.6268  1.5536  0.2552
18612THY    CA661385   2.731   7.367   3.199 -0.0870  0.0856  0.2127
18612THY    HA661386   2.757   7.291   3.273 -0.1884  1.0296  1.0770
18613THY      O61387   5.826   5.489   2.151  0.1264  0.9252 -0.2133
18613THY     HO61388   5.732   5.485   2.127  0.6183 -1.5671  0.8493
18613THY    CA161389   5.844   5.483   2.281  0.5639  0.4898 -0.2011
18613THY    CA261390   5.968   5.495   2.347 -0.3504 -0.0658 -0.2312
18613THY    CP161391   6.102   5.543   2.272  0.2726 -0.5473  0.2894
18613THY    HP161392   6.096   5.551   2.163 -0.4311 -0.6034 -0.7663
18613THY    CP261393   6.213   5.450   2.304  0.0701 -0.5585 -0.4663
18613THY    HP261394   6.185   5.344   2.303 -2.2942  0.4049  0.1011
18613THY    HP361395   6.268   5.481   2.393 -0.5396 -0.8654  1.6753
18613THY    HP461396   6.287   5.461   2.223  0.6127 -0.0856 -0.5821
18613THY    CP361397   6.133   5.687   2.309 -0.2682  0.4867  0.0868
18613THY    HP561398   6.059   5.752   2.260  2.1960  0.4385  3.1131
18613THY    HP661399   6.228   5.721   2.265  0.0914 -0.0331 -1.5112
18613THY    HP761400   6.127   5.694   2.418 -0.2150  0.4950  0.0057
18613THY    CA361401   5.981   5.474   2.485  0.1414 -0.6629 -0.5708
18613THY    HA361402   6.073   5.497   2.538  0.1809  0.2006 -2.4665
18613THY    CA461403   5.868   5.430   2.553  0.1074 -0.2323  0.0135
18613THY    HA461404   5.877   5.403   2.657  1.5978 -0.1285  0.8103
18613THY    CA561405   5.749   5.394   2.488  0.7138 -0.4218  0.0290
18613THY    CM161406   5.632   5.342   2.559  0.4046  0.7434  0.1757
18613THY    HM161407   5.552   5.323   2.487 -0.2286  1.2799  0.7414
18613THY    HM261408   5.598   5.411   2.637 -2.0540 -1.1317  1.2423
18613THY    HM361409   5.657   5.244   2.603 -2.4312  0.8814 -0.5632
18613THY    CA661410   5.736   5.424   2.351 -0.5026  0.5592 -0.4201
18613THY    HA661411   5.640   5.421   2.300 -0.2959 -0.4510  3.8276
18614THY      O61412   5.947   4.238   7.142  0.0587  0.4565  0.7471
18614THY     HO61413   5.859   4.252   7.102  0.3047 -0.0292  0.9228
18614THY    CA161414   6.015   4.144   7.075 -0.0091  0.2317  0.0087
18614THY    CA261415   6.125   4.074   7.134 -0.7521 -0.0946 -0.6921
18614THY    CP161416   6.190   4.099   7.276 -0.6802  0.1283 -1.2261
18614THY    HP161417   6.156   4.194   7.319  0.8606  2.5867 -1.7010
18614THY    CP261418   6.346   4.110   7.262  0.3303  0.5120  0.6734
18614THY    HP261419   6.392   4.170   7.341 -0.8708  1.5982  0.1878
18614THY    HP361420   6.374   4.161   7.169 -0.6380 -0.4159 -0.4226
18614THY    HP461421   6.396   4.012   7.263  1.4334 -0.2332  1.2037
18614THY    CP361422   6.152   3.989   7.367 -0.0560 -1.3238  0.2926
18614THY    HP561423   6.189   3.893   7.328 -0.0625 -0.5403 -0.0356
18614THY    HP661424   6.043   3.984   7.376 -0.0588 -1.9408 -1.5068
18614THY    HP761425   6.195   4.011   7.465  0.5443 -1.6779  0.7254
18614THY    CA361426   6.197   3.983   7.047  0.4789 -0.1689 -0.3747
18614THY    HA361427   6.288   3.930   7.073  1.7658 -0.6299  1.5282
18614THY    CA461428   6.155   3.964   6.913  0.0978 -0.5402  0.1370
18614THY    HA461429   6.196   3.887   6.849 -0.9255  0.2491 -1.1176
18614THY    CA561430   6.047   4.032   6.869 -0.3737 -0.7953 -0.6398
18614THY    CM161431   5.990   4.026   6.724 -0.5588 -0.0651 -0.3944
18614THY    HM161432   6.003   4.115   6.662 -1.5495  1.9359  1.2066
18614THY    HM261433   5.885   3.996   6.739 -1.0467 -0.4297  1.0576
18614THY    HM361434   6.042   3.941   6.679  1.0056 -0.0007  0.5086
18614THY    CA661435   5.976   4.125   6.950 -0.0118  0.1220  0.2687
18614THY    HA661436   5.900   4.187   6.903  0.1828 -0.4074  0.1181
18615THY      O61437   0.873   5.866   4.817  0.3123  0.2751  0.5476
18615THY     HO61438   0.887   5.961   4.802  1.7291  0.4164  0.3938
18615THY    CA161439   0.990   5.801   4.818  0.3458  0.9309  0.6532
18615THY    CA261440   0.995   5.660   4.803  0.1716 -0.5015  0.3022
18615THY    CP161441   0.865   5.580   4.780  0.0185 -0.5424 -1.1667
18615THY    HP161442   0.782   5.628   4.832  0.4783 -2.6370  2.1776
18615THY    CP261443   0.876   5.436   4.826 -0.1788 -0.5300  0.8292
18615THY    HP261444   0.781   5.383   4.845 -0.0983  2.5320  1.5847
18615THY    HP361445   0.923   5.429   4.924  0.3442 -0.8547 -0.4087
18615THY    HP461446   0.941   5.366   4.772 -0.2626 -0.0216  0.3543
18615THY    CP361447   0.837   5.571   4.627  0.5342 -0.2963  1.1996
18615THY    HP561448   0.732   5.597   4.606  0.4560  1.0243  2.0442
18615THY    HP661449   0.839   5.468   4.591 -0.1497 -0.5946  1.2843
18615THY    HP761450   0.896   5.642   4.568  0.4088 -2.8273 -0.6655
18615THY    CA361451   1.122   5.599   4.800  0.0489 -0.3999  0.5741
18615THY    HA361452   1.140   5.492   4.801  0.4859 -0.7450  0.6430
18615THY    CA461453   1.234   5.679   4.817  0.6170  0.4805 -0.1255
18615THY    HA461454   1.330   5.633   4.839  0.4270  0.6738 -0.4275
18615THY    CA561455   1.231   5.815   4.818 -0.0639 -0.4145 -0.1778
18615THY    CM161456   1.358   5.891   4.841 -0.1545  0.1941  0.2113
18615THY    HM161457   1.339   5.969   4.915  1.5498  0.6861  0.2041
18615THY    HM261458   1.382   5.949   4.751  1.3749  0.5082  0.1135
18615THY    HM361459   1.450   5.837   4.865  0.6055  0.0969  1.4191
18615THY    CA661460   1.108   5.879   4.822  0.3877 -1.1582  0.2940
18615THY    HA661461   1.099   5.986   4.836 -2.3672  0.2052 -0.0372
18616THY      O61462   5.568   5.412   2.024 -0.6345  0.1150 -0.0487
18616THY     HO61463   5.602   5.333   1.979 -0.0638  0.3330  0.0685
18616THY    CA161464   5.443   5.438   1.979  0.2950 -0.0498  0.7921
18616THY    CA261465   5.334   5.478   2.065  0.0577 -0.4413  0.5260
18616THY    CP161466   5.361   5.481   2.217  0.4820 -0.4109 -0.2672
18616THY    HP161467   5.424   5.396   2.243  1.5841 -1.3349  0.2373
18616THY    CP261468   5.229   5.460   2.295 -0.6082 -0.4305  0.0867
18616THY    HP261469   5.243   5.473   2.403  1.2196 -0.3918 -1.6993
18616THY    HP361470   5.195   5.359   2.272 -0.3399  1.5031 -0.4830
18616THY    HP461471   5.150   5.533   2.272 -0.9882 -1.1047 -0.5259
18616THY    CP361472   5.429   5.615   2.269 -0.2088  0.0294  0.4917
18616THY    HP561473   5.485   5.590   2.359  0.7000  0.2865  3.1562
18616THY    HP661474   5.352   5.686   2.301 -0.7154  0.5738 -0.2746
18616THY    HP761475   5.496   5.648   2.189 -0.2912  0.0716  0.7635
18616THY    CA361476   5.202   5.488   2.013  0.6418  0.7737 -0.7320
18616THY    HA361477   5.112   5.515   2.067 -0.2595 -1.0383  0.1009
18616THY    CA461478   5.194   5.475   1.874 -1.2109 -0.0657  0.1770
18616THY    HA461479   5.099   5.487   1.823 -1.4063 -0.1745 -1.5643
18616THY    CA561480   5.301   5.435   1.792  0.3698  0.2630 -0.4422
18616THY    CM161481   5.299   5.433   1.643  0.4964 -0.8713  0.2911
18616THY    HM161482   5.348   5.349   1.591  1.1346 -0.9021  0.6799
18616THY    HM261483   5.332   5.534   1.616  0.6479  0.9524  0.7551
18616THY    HM361484   5.196   5.426   1.604 -1.0043  2.3063  2.4904
18616THY    CA661485   5.426   5.416   1.849 -0.2687 -1.3936  0.0475
18616THY    HA661486   5.515   5.382   1.796 -0.6417 -0.8981 -1.8313
18617THY      O61487   2.052   6.226   4.381 -0.2815  0.1316 -0.1461
18617THY     HO61488   2.144   6.195   4.383 -0.2527  0.0473 -0.0662
18617THY    CA161489   2.043   6.321   4.484  0.2262  0.5826  0.2354
18617THY    CA261490   1.925   6.378   4.505 -1.9244 -0.7050 -0.1007
18617THY    CP161491   1.821   6.360   4.398  0.6335 -0.1952  0.5480
18617THY    HP161492   1.867   6.341   4.300  0.3218 -0.4428  1.0403
18617THY    CP261493   1.722   6.472   4.371  0.7612 -0.2069 -0.1755
18617THY    HP261494   1.640   6.480   4.443 -0.2508 -0.9968 -2.5400
18617THY    HP361495   1.668   6.469   4.276 -1.5553  1.0482 -0.6386
18617THY    HP461496   1.764   6.572   4.381 -1.9734  0.6419  0.9859
18617THY    CP361497   1.745   6.226   4.430  0.2788 -0.2860 -0.4649
18617THY    HP561498   1.717   6.232   4.536  2.2257  0.3010 -0.8631
18617THY    HP661499   1.816   6.142   4.420  0.1459  2.7839 -1.0530
18617THY    HP761500   1.660   6.210   4.363 -0.1610  0.5311 -1.6410
18617THY    CA361501   1.895   6.430   4.641  0.5967  0.5187  0.0098
18617THY    HA361502   1.796   6.461   4.670 -0.3510  0.4181 -2.6946
18617THY    CA461503   2.001   6.439   4.733 -0.1753 -0.4415 -0.0335
18617THY    HA461504   1.986   6.481   4.832 -1.2592 -0.0477 -1.2666
18617THY    CA561505   2.129   6.398   4.694  0.9905 -0.2528  0.0913
18617THY    CM161506   2.236   6.386   4.800 -0.0356  0.5033  0.4309
18617THY    HM161507   2.337   6.382   4.758 -0.0953  0.3981 -0.0389
18617THY    HM261508   2.222   6.291   4.852  0.9317 -0.3668 -0.1979
18617THY    HM361509   2.231   6.473   4.866 -2.3146  1.2336 -0.1624
18617THY    CA661510   2.151   6.338   4.570  0.3456  0.5615  0.4384
18617THY    HA661511   2.252   6.304   4.548  0.7671 -0.7714  2.3691
18618THY      O61512   1.504   0.972   3.790 -0.8912  0.1890  0.1946
18618THY     HO61513   1.533   1.022   3.868 -0.6528  0.7888 -0.8604
18618THY    CA161514   1.375   0.998   3.779 -0.2563  0.6993  0.1220
18618THY    CA261515   1.286   0.933   3.692  0.2765 -0.2483  0.4506
18618THY    CP161516   1.333   0.805   3.611  0.1275 -0.4628  0.2984
18618THY    HP161517   1.442   0.811   3.613  0.2231 -0.7761 -1.0492
18618THY    CP261518   1.267   0.808   3.468 -0.4497  0.5558  0.1966
18618THY    HP261519   1.312   0.739   3.397 -2.7272 -1.4419  0.6166
18618THY    HP361520   1.278   0.903   3.415  0.6158 -1.6489 -1.0940
18618THY    HP461521   1.160   0.787   3.479 -0.4696  0.2049  0.1076
18618THY    CP361522   1.304   0.669   3.685 -0.1266  0.1698  0.0397
18618THY    HP561523   1.357   0.582   3.644 -1.7231 -1.5358 -0.1891
18618THY    HP661524   1.197   0.647   3.677 -0.0845 -0.0715 -0.0832
18618THY    HP761525   1.325   0.669   3.792 -0.5089  0.2588 -1.0495
18618THY    CA361526   1.156   0.976   3.681  0.2856  0.1183 -0.1713
18618THY    HA361527   1.078   0.924   3.626 -1.5925  2.8439 -0.4437
18618THY    CA461528   1.104   1.077   3.762 -0.0140  0.2340 -0.0693
18618THY    HA461529   1.003   1.113   3.750  0.5409 -1.3372  1.1269
18618THY    CA561530   1.195   1.145   3.846 -0.5015 -0.5740  1.0583
18618THY    CM161531   1.149   1.255   3.942 -0.3184  0.2499  0.0532
18618THY    HM161532   1.151   1.353   3.893  1.1454 -0.3781 -0.2643
18618THY    HM261533   1.216   1.261   4.029 -0.4262  0.4749 -1.4377
18618THY    HM361534   1.052   1.235   3.989 -0.7374 -0.7312 -0.3132
18618THY    CA661535   1.327   1.110   3.855 -0.1129  0.0854  0.1406
18618THY    HA661536   1.399   1.168   3.911  0.7260 -2.4973  1.7358
18619THY      O61537   0.657   1.120   2.554  0.7109 -0.0179  0.8257
18619THY     HO61538   0.671   1.085   2.465 -0.4638  0.1803 -0.2010
18619THY    CA161539   0.727   1.045   2.642 -0.6934  0.6451 -0.0393
18619THY    CA261540   0.676   1.018   2.770 -0.0565 -0.0204  0.3494
18619THY    CP161541   0.541   1.081   2.816 -0.4991  0.0690 -0.0853
18619THY    HP161542   0.515   1.164   2.750  2.1061 -0.4071  0.4597
18619THY    CP261543   0.550   1.140   2.963  0.7924 -0.0785  0.2730
18619THY    HP261544   0.623   1.221   2.970 -0.3594 -0.2778  1.3703
18619THY    HP361545   0.554   1.062   3.040  0.4688 -2.3184 -2.1028
18619THY    HP461546   0.455   1.187   2.992  1.3515  0.3519  1.1620
18619THY    CP361547   0.428   0.977   2.808 -0.1155  0.5126  0.0520
18619THY    HP561548   0.421   0.926   2.711 -1.0031  0.4953  0.1925
18619THY    HP661549   0.329   1.018   2.829 -0.6117  0.5616 -1.1381
18619THY    HP761550   0.454   0.907   2.889  1.1192  2.1308  2.2291
18619THY    CA361551   0.743   0.928   2.857  0.5494  0.4293  0.3583
18619THY    HA361552   0.709   0.909   2.958 -0.4236 -0.2588 -1.9384
18619THY    CA461553   0.866   0.878   2.811 -0.1011 -0.2796  0.3915
18619THY    HA461554   0.919   0.794   2.856  0.2491 -1.1140  0.1499
18619THY    CA561555   0.921   0.908   2.685 -0.0323  0.9171 -1.0173
18619THY    CM161556   1.057   0.859   2.645  0.0991  0.1236 -0.0239
18619THY    HM161557   1.071   0.829   2.540 -0.8578  0.4371 -1.7332
18619THY    HM261558   1.098   0.776   2.705 -1.4147  0.8873 -0.2508
18619THY    HM361559   1.126   0.940   2.671  1.7836  0.4775 -1.5122
18619THY    CA661560   0.854   0.996   2.600 -0.0384 -0.1226  0.0867
18619THY    HA661561   0.896   1.032   2.507  1.3774  0.6038  0.3814
18620THY      O61562   5.956   4.549   3.885 -0.1662 -0.5497  1.1103
18620THY     HO61563   5.944   4.632   3.935 -1.6267  0.5523  0.2763
18620THY    CA161564   6.092   4.545   3.870  0.6568  0.8685  0.3589
18620THY    CA261565   6.150   4.459   3.769  0.0103  1.4166 -0.5175
18620THY    CP161566   6.056   4.376   3.676 -0.4809  0.4639  0.0310
18620THY    HP161567   5.974   4.439   3.641 -1.3343  0.3465 -1.1050
18620THY    CP261568   6.009   4.252   3.752 -1.1196  0.1042 -0.0929
18620THY    HP261569   5.936   4.192   3.696  0.5765 -1.5078 -0.7502
18620THY    HP361570   5.973   4.288   3.849 -0.4906 -0.2603  1.6246
18620THY    HP461571   6.085   4.178   3.779 -1.3411  1.7367  0.2476
18620THY    CP361572   6.123   4.334   3.546  0.3104 -0.1764 -0.1520
18620THY    HP561573   6.191   4.249   3.558 -2.2607 -0.2121 -2.3761
18620THY    HP661574   6.177   4.412   3.492  1.3276  1.5088  0.3455
18620THY    HP761575   6.044   4.289   3.484  0.4886  1.5577 -3.1366
18620THY    CA361576   6.288   4.452   3.759  0.2911 -0.6652  0.0802
18620THY    HA361577   6.332   4.397   3.676  3.6293  1.5031 -0.7870
18620THY    CA461578   6.369   4.521   3.850  1.1521  0.0026 -0.3375
18620THY    HA461579   6.477   4.507   3.844  0.9091  0.8294 -3.1924
18620THY    CA561580   6.313   4.609   3.952  0.0254 -0.1598  0.8624
18620THY    CM161581   6.406   4.687   4.047  0.5979  0.1138  0.4266
18620THY    HM161582   6.395   4.650   4.149  2.5544  1.0579  2.2127
18620THY    HM261583   6.369   4.790   4.053 -2.4742 -1.2573 -0.4985
18620THY    HM361584   6.515   4.674   4.042  0.8890  2.7268  1.2373
18620THY    CA661585   6.171   4.617   3.959  0.0348  0.2950 -0.6156
18620THY    HA661586   6.132   4.690   4.029  0.0993 -0.5084  0.2085
18621THY      O61587   2.221   8.336   6.428  0.3179  0.0689 -0.0477
18621THY     HO61588   2.309   8.318   6.465  0.0690  0.2253 -0.9781
18621THY    CA161589   2.191   8.242   6.334  0.3208  0.0077 -0.0779
18621THY    CA261590   2.070   8.229   6.266  0.4628 -0.0233 -0.1809
18621THY    CP161591   1.962   8.337   6.271 -0.0012 -0.4148 -0.2796
18621THY    HP161592   1.984   8.418   6.340 -1.2720  0.0294 -0.2913
18621THY    CP261593   1.830   8.266   6.317 -0.9757  0.9497 -0.3008
18621THY    HP261594   1.754   8.338   6.352  0.4864  1.4479  1.0518
18621THY    HP361595   1.851   8.193   6.396  4.9217  0.1878  0.0709
18621THY    HP461596   1.788   8.223   6.225  0.0085  0.1471  0.4037
18621THY    CP361597   1.944   8.414   6.139 -0.3807 -0.3001  0.5801
18621THY    HP561598   1.858   8.481   6.150 -1.4352  1.2871 -0.9493
18621THY    HP661599   1.922   8.342   6.059 -2.8495  0.9410 -0.1620
18621THY    HP761600   2.040   8.461   6.116 -0.0375 -0.4423 -0.1668
18621THY    CA361601   2.059   8.126   6.166 -0.0962  0.2379  0.7350
18621THY    HA361602   1.977   8.125   6.095 -0.4160  0.5547 -1.8119
18621THY    CA461603   2.152   8.030   6.161 -0.1440 -0.7233  0.2956
18621THY    HA461604   2.165   7.963   6.076  0.8934  0.1636 -0.6627
18621THY    CA561605   2.269   8.032   6.241 -0.3179 -0.3740  1.2409
18621THY    CM161606   2.379   7.931   6.243 -0.4688  0.2961  0.2349
18621THY    HM161607   2.476   7.978   6.264 -0.1029  0.3015 -0.5203
18621THY    HM261608   2.387   7.895   6.140  1.9588  0.2338  0.7862
18621THY    HM361609   2.367   7.851   6.316  0.8727 -1.8741 -2.1157
18621THY    CA661610   2.290   8.149   6.315 -0.3872  0.5810  0.2227
18621THY    HA661611   2.382   8.162   6.370 -0.0673  0.1638 -0.2169
18622THY      O61612   3.162   7.334   6.895 -0.2991 -0.3964  0.1555
18622THY     HO61613   3.066   7.342   6.911 -0.5326 -0.3483 -2.0572
18622THY    CA161614   3.180   7.367   6.764  0.6400 -0.0420  0.4454
18622THY    CA261615   3.307   7.410   6.715 -0.2105  0.3179  0.0121
18622THY    CP161616   3.424   7.407   6.812  0.2631 -0.5798  0.5910
18622THY    HP161617   3.405   7.324   6.881  0.7481 -2.6147 -1.2952
18622THY    CP261618   3.419   7.538   6.892 -0.2691  0.2602 -0.3121
18622THY    HP261619   3.489   7.529   6.976  0.7215 -0.6325 -1.0538
18622THY    HP361620   3.318   7.559   6.928 -0.9496 -1.3708 -0.6637
18622THY    HP461621   3.450   7.613   6.818  1.0214 -0.9759 -1.9997
18622THY    CP361622   3.565   7.393   6.749  0.0063  0.2309 -0.3935
18622THY    HP561623   3.581   7.468   6.670  1.3140  0.6648 -0.2011
18622THY    HP661624   3.577   7.296   6.701 -0.0247  0.1077 -0.3377
18622THY    HP761625   3.637   7.406   6.830  0.2408 -0.2563  1.8234
18622THY    CA361626   3.311   7.458   6.577 -0.6820 -0.6528 -0.1232
18622THY    HA361627   3.399   7.489   6.522 -0.5228 -0.3715 -0.0690
18622THY    CA461628   3.195   7.453   6.503 -0.1544  0.7825  1.0843
18622THY    HA461629   3.212   7.471   6.398  1.1774  0.8406  0.2675
18622THY    CA561630   3.072   7.401   6.552 -0.7558  0.1106  0.7721
18622THY    CM161631   2.952   7.387   6.469  0.0108 -0.2274 -0.1875
18622THY    HM161632   2.892   7.303   6.506 -1.2961 -1.3309  0.2283
18622THY    HM261633   2.980   7.375   6.364  2.4056  0.2433  0.6508
18622THY    HM361634   2.888   7.476   6.463 -0.6591 -0.2850 -0.6697
18622THY    CA661635   3.067   7.363   6.687  0.5414 -0.0386  0.0930
18622THY    HA661636   2.977   7.321   6.731  0.1062 -0.2718  0.7578
18623THY      O61637   9.340   8.407   4.796 -0.2944 -0.6337 -0.0035
18623THY     HO61638   9.429   8.393   4.832 -0.1985 -0.3280  1.2987
18623THY    CA161639   9.238   8.358   4.875 -0.2460  0.7144  0.3934
18623THY    CA261640   9.112   8.325   4.817 -0.6255 -0.2506 -0.0846
18623THY    CP161641   9.085   8.357   4.671 -0.5894  0.2882 -0.2780
18623THY    HP161642   9.104   8.464   4.662 -1.2980  0.7976 -0.1019
18623THY    CP261643   8.936   8.345   4.641 -0.1430  0.5598 -0.0152
18623THY    HP261644   8.878   8.414   4.705  0.9094  1.2022  0.3059
18623THY    HP361645   8.897   8.243   4.648  0.8734  1.5885 -0.3614
18623THY    HP461646   8.920   8.367   4.535 -1.1767  0.7540  0.2445
18623THY    CP361647   9.175   8.276   4.574  0.0230  0.5556  0.5242
18623THY    HP561648   9.128   8.289   4.475  0.5408  0.2228 -0.0668
18623THY    HP661649   9.183   8.171   4.607  1.5503  1.1344  0.7993
18623THY    HP761650   9.274   8.320   4.586 -0.6716 -0.2597  2.4085
18623THY    CA361651   9.011   8.279   4.911 -1.2576  0.4517  0.6652
18623THY    HA361652   8.907   8.260   4.884 -1.4692  1.8181 -0.2497
18623THY    CA461653   9.048   8.256   5.042  0.2456 -0.6281 -0.2800
18623THY    HA461654   8.976   8.226   5.117  2.1316  1.3244 -0.1595
18623THY    CA561655   9.181   8.285   5.088  0.7335 -0.3611  0.5253
18623THY    CM161656   9.221   8.253   5.230 -0.2459  0.0654  0.7876
18623THY    HM161657   9.258   8.150   5.235 -1.4119  1.1538  0.3974
18623THY    HM261658   9.137   8.248   5.300  1.8113  2.6082 -0.6616
18623THY    HM361659   9.297   8.323   5.267 -1.3873  1.9942  1.0804
18623THY    CA661660   9.274   8.321   5.005 -0.1608  0.2705  0.5798
18623THY    HA661661   9.371   8.326   5.054 -0.8579  1.9224 -1.0287
18624THY      O61662   5.656   3.107   6.322 -0.0149  0.1386 -0.3138
18624THY     HO61663   5.731   3.165   6.347 -1.0722 -3.0801  2.8392
18624THY    CA161664   5.715   3.021   6.232  0.1104 -0.0246  0.8620
18624THY    CA261665   5.633   2.946   6.147 -0.3577  0.5481  0.3321
18624THY    CP161666   5.477   2.951   6.152  0.1594 -0.2723  0.3555
18624THY    HP161667   5.442   3.028   6.222  0.6646  0.2913  0.0776
18624THY    CP261668   5.428   2.811   6.190 -0.4333 -0.1902  0.4120
18624THY    HP261669   5.319   2.810   6.200 -0.7099 -2.5399 -0.2247
18624THY    HP361670   5.478   2.775   6.280 -0.3030 -0.6617 -0.6201
18624THY    HP461671   5.457   2.741   6.111 -0.3618  0.0098  0.2178
18624THY    CP361672   5.418   3.004   6.025 -0.1606 -0.9447 -0.2778
18624THY    HP561673   5.316   3.037   6.049  0.9751  1.6861  1.6946
18624THY    HP661674   5.424   2.926   5.949 -0.0828  1.0622 -2.3367
18624THY    HP761675   5.482   3.087   5.995 -0.1176  1.5626  0.6844
18624THY    CA361676   5.700   2.866   6.051 -0.4422 -0.0593  0.4888
18624THY    HA361677   5.651   2.805   5.975 -0.5152 -0.8478  1.4859
18624THY    CA461678   5.841   2.861   6.047 -0.2292 -0.1579 -0.5696
18624THY    HA461679   5.886   2.794   5.975  0.2591 -0.3079 -0.0833
18624THY    CA561680   5.921   2.936   6.132 -0.1607  0.4969  0.3501
18624THY    CM161681   6.076   2.927   6.126 -0.4356  0.3662  0.2221
18624THY    HM161682   6.125   2.914   6.029  2.4976  1.9838 -1.8938
18624THY    HM261683   6.095   2.832   6.177  1.3809  0.5937  0.6762
18624THY    HM361684   6.120   3.011   6.181 -0.4183  1.7075 -0.6257
18624THY    CA661685   5.855   3.013   6.230 -0.4254 -0.1635 -0.6614
18624THY    HA661686   5.920   3.070   6.297 -3.1962  0.7927  1.6400
18625THY      O61687   4.589   5.818   6.882  0.2961 -0.5249 -0.0076
18625THY     HO61688   4.517   5.822   6.948  1.3218  0.6612 -0.7264
18625THY    CA161689   4.605   5.692   6.827  0.3831 -0.3913  1.3763
18625THY    CA261690   4.660   5.578   6.901  0.0249  0.2582 -0.2343
18625THY    CP161691   4.706   5.589   7.047  0.6360 -0.4944  0.1008
18625THY    HP161692   4.673   5.677   7.103 -1.7900  0.4323 -1.3044
18625THY    CP261693   4.856   5.597   7.054  0.5641  0.1297 -0.3473
18625THY    HP261694   4.885   5.589   7.160 -1.3069  0.7025 -0.1017
18625THY    HP361695   4.904   5.682   7.005  1.5924  1.2089 -0.2705
18625THY    HP461696   4.901   5.506   7.012  1.4212  0.4324 -0.0765
18625THY    CP361697   4.645   5.477   7.142 -0.0432 -0.1700  0.2038
18625THY    HP561698   4.689   5.379   7.121 -1.3169 -3.1052  0.1760
18625THY    HP661699   4.540   5.460   7.117  0.4788 -1.7574 -0.9329
18625THY    HP761700   4.655   5.505   7.248 -0.6466 -0.4864  1.7175
18625THY    CA361701   4.671   5.458   6.834 -0.6356 -0.2028  0.3387
18625THY    HA361702   4.717   5.370   6.880 -2.4846  0.7029 -0.2132
18625THY    CA461703   4.605   5.439   6.708 -0.3525 -0.5222  0.2027
18625THY    HA461704   4.597   5.343   6.657  0.9033  0.5933 -0.5286
18625THY    CA561705   4.542   5.545   6.649  0.0805  0.3648 -0.5799
18625THY    CM161706   4.474   5.532   6.514 -0.3696  0.0420 -1.3517
18625THY    HM161707   4.466   5.428   6.478  0.3075 -1.6725 -0.8401
18625THY    HM261708   4.538   5.589   6.445  0.3514  0.6476 -1.4072
18625THY    HM361709   4.372   5.572   6.512 -0.0488 -1.8906 -0.5306
18625THY    CA661710   4.554   5.673   6.701 -0.1015 -0.6774 -0.1988
18625THY    HA661711   4.498   5.756   6.660  0.2730  0.2771  0.5410
18626THY      O61712   9.000   3.474   4.221  0.4022 -0.5431 -0.3972
18626THY     HO61713   8.970   3.490   4.129  0.7219 -0.4343  0.9535
18626THY    CA161714   9.085   3.573   4.242  0.6216 -0.2910 -0.4224
18626THY    CA261715   9.187   3.576   4.344 -0.5364  0.4248  0.6851
18626THY    CP161716   9.217   3.444   4.429  0.3894  0.5448 -0.2816
18626THY    HP161717   9.129   3.379   4.421 -0.6986  2.9121  0.7876
18626THY    CP261718   9.238   3.478   4.569  0.0470  0.0361 -0.6140
18626THY    HP261719   9.157   3.542   4.604  1.2447  0.2310  0.8534
18626THY    HP361720   9.323   3.545   4.590 -1.3783  2.0734  0.6721
18626THY    HP461721   9.244   3.384   4.625  0.3874 -0.3211 -0.8093
18626THY    CP361722   9.338   3.370   4.375 -0.5501  0.5670  0.3197
18626THY    HP561723   9.340   3.271   4.422  1.0568 -1.4345 -0.6812
18626THY    HP661724   9.439   3.410   4.386  0.2803 -0.7888 -1.2770
18626THY    HP761725   9.320   3.336   4.272  1.4501  0.2034  0.2730
18626THY    CA361726   9.280   3.685   4.342 -0.7173 -0.6069 -0.1990
18626THY    HA361727   9.363   3.689   4.412 -2.2357  1.5787 -3.2416
18626THY    CA461728   9.266   3.790   4.247  0.1786 -0.0439  0.1379
18626THY    HA461729   9.338   3.871   4.243  0.6406 -1.3921 -0.3130
18626THY    CA561730   9.165   3.783   4.155  0.4518  0.0063  0.5366
18626THY    CM161731   9.135   3.895   4.062 -0.3148 -0.3715  0.1215
18626THY    HM161732   9.037   3.941   4.081  0.4752 -0.5102  1.9634
18626THY    HM261733   9.139   3.861   3.958 -0.1064 -0.0147 -0.9733
18626THY    HM361734   9.218   3.966   4.075 -0.3884 -2.9309  0.7778
18626THY    CA661735   9.083   3.676   4.148  0.1422 -0.3083 -0.2184
18626THY    HA661736   9.019   3.668   4.061  1.6803 -1.5067  0.0848
18627THY      O61737   3.783   4.407   2.559 -0.3771 -0.4691  0.6836
18627THY     HO61738   3.836   4.327   2.568 -0.1523  0.0500  0.8822
18627THY    CA161739   3.787   4.480   2.672 -0.1044  0.3066 -1.3783
18627THY    CA261740   3.693   4.577   2.704 -0.0062  0.4181 -0.3379
18627THY    CP161741   3.577   4.608   2.619  0.7680  0.4853  0.0264
18627THY    HP161742   3.585   4.543   2.531  1.0370 -0.8310  1.7893
18627THY    CP261743   3.575   4.759   2.559 -0.4744 -0.1346  0.1252
18627THY    HP261744   3.574   4.828   2.643 -0.2037  0.2496 -0.3344
18627THY    HP361745   3.481   4.783   2.507  0.3962 -2.2590 -0.8408
18627THY    HP461746   3.657   4.780   2.489  0.3448  0.3009 -1.4539
18627THY    CP361747   3.443   4.580   2.684  0.3127 -0.4810  0.5396
18627THY    HP561748   3.426   4.473   2.701 -0.9062 -3.0422  0.2665
18627THY    HP661749   3.363   4.597   2.612  1.5670 -1.9705  0.3507
18627THY    HP761750   3.427   4.633   2.779  0.3350 -0.1910  0.0419
18627THY    CA361751   3.718   4.661   2.809 -0.6273  0.0368 -0.0187
18627THY    HA361752   3.649   4.743   2.830 -0.8084 -0.0670 -0.1454
18627THY    CA461753   3.843   4.647   2.884  0.6127 -0.0472  0.0069
18627THY    HA461754   3.869   4.703   2.974  3.2927 -0.8357  0.1932
18627THY    CA561755   3.928   4.544   2.855 -0.4922 -0.0620  0.4679
18627THY    CM161756   4.041   4.512   2.938  0.3374  0.6301 -0.5679
18627THY    HM161757   4.122   4.491   2.868  0.3798  0.8697 -1.2328
18627THY    HM261758   4.018   4.442   3.019 -0.2451  1.0546  0.1032
18627THY    HM361759   4.068   4.597   3.002  1.7669  0.4647 -0.8733
18627THY    CA661760   3.897   4.465   2.750  1.0305  0.0091  0.7406
18627THY    HA661761   3.957   4.376   2.733  1.6268  2.3805  0.6193
18628THY      O61762   0.590   2.946   5.593 -0.0625 -0.2149  0.2237
18628THY     HO61763   0.581   3.016   5.659  1.0755  2.4106 -1.9380
18628THY    CA161764   0.679   2.857   5.641 -0.2863  0.2422  0.4665
18628THY    CA261765   0.727   2.744   5.563  0.6832  0.3070 -0.0066
18628THY    CP161766   0.679   2.734   5.420 -0.4659 -0.0589  0.3066
18628THY    HP161767   0.629   2.827   5.391  1.0411 -1.9892  0.5877
18628THY    CP261768   0.585   2.614   5.398  0.4366 -0.5091 -0.0798
18628THY    HP261769   0.518   2.599   5.483  1.8073  0.4236 -1.3123
18628THY    HP361770   0.640   2.518   5.396  0.6436 -0.6837  0.0410
18628THY    HP461771   0.519   2.643   5.316 -0.2303 -0.0006 -0.1527
18628THY    CP361772   0.801   2.722   5.322  0.1020  0.0575  0.3203
18628THY    HP561773   0.766   2.708   5.219  0.2479  0.1282 -0.6261
18628THY    HP661774   0.866   2.637   5.345  1.3605 -2.4590  0.5242
18628THY    HP761775   0.865   2.811   5.328  2.5957  0.2719 -1.4117
18628THY    CA361776   0.805   2.649   5.631  0.1841 -0.4241  0.0329
18628THY    HA361777   0.842   2.568   5.570  0.7738 -0.1041  0.0575
18628THY    CA461778   0.837   2.668   5.764  0.9456 -0.3788 -0.1814
18628THY    HA461779   0.904   2.599   5.816  0.6762 -0.5187 -0.5506
18628THY    CA561780   0.798   2.787   5.837  0.3935  0.0956 -0.9761
18628THY    CM161781   0.835   2.815   5.978  1.3586  0.5818 -0.1104
18628THY    HM161782   0.807   2.918   6.001  0.2898 -0.3122 -0.1751
18628THY    HM261783   0.939   2.790   6.003  0.6383  0.7421 -3.5020
18628THY    HM361784   0.769   2.769   6.053 -1.7154 -0.4198  2.3019
18628THY    CA661785   0.719   2.877   5.772  0.5665 -0.7128  0.3305
18628THY    HA661786   0.676   2.965   5.819  1.2475 -0.0772  0.3275
18629THY      O61787   7.124   7.462   4.535 -0.2221  0.4196  0.4354
18629THY     HO61788   7.177   7.486   4.612  0.6450 -0.0952  0.2289
18629THY    CA161789   7.004   7.473   4.588 -0.6806 -0.2022  0.4378
18629THY    CA261790   6.894   7.473   4.510 -0.1090 -0.3575 -0.0587
18629THY    CP161791   6.917   7.501   4.361  0.3777 -0.3086  0.4216
18629THY    HP161792   7.015   7.473   4.322 -0.1165 -2.2963  1.3126
18629THY    CP261793   6.905   7.645   4.334  0.2810 -0.3204  0.6065
18629THY    HP261794   6.951   7.668   4.237  1.8412  0.5221  1.1456
18629THY    HP361795   6.952   7.720   4.399 -0.4028  2.1729 -1.0307
18629THY    HP461796   6.803   7.684   4.324 -0.5910  0.9991 -1.2178
18629THY    CP361797   6.811   7.420   4.268 -0.2462 -0.0794  0.0957
18629THY    HP561798   6.708   7.440   4.300 -1.1613 -1.3092 -2.2987
18629THY    HP661799   6.818   7.311   4.270 -2.9801 -0.1177 -0.1518
18629THY    HP761800   6.817   7.450   4.163 -0.3680  0.6848  3.0899
18629THY    CA361801   6.767   7.464   4.565  0.4386  0.5031  0.2034
18629THY    HA361802   6.677   7.464   4.505  0.2528  0.7781 -0.0234
18629THY    CA461803   6.758   7.454   4.708  0.0941  0.3898 -0.3236
18629THY    HA461804   6.659   7.446   4.752 -0.7380 -1.2782  0.3505
18629THY    CA561805   6.871   7.473   4.785 -0.0744 -0.2588  0.0772
18629THY    CM161806   6.865   7.460   4.938 -0.2550  0.5745 -0.6243
18629THY    HM161807   6.803   7.380   4.981 -1.3963  0.3318  0.1099
18629THY    HM261808   6.841   7.555   4.985 -0.0366 -1.2095  0.3549
18629THY    HM361809   6.966   7.440   4.977  0.6361 -0.0459  2.2698
18629THY    CA661810   6.996   7.483   4.728  0.1973  0.4065 -0.2308
18629THY    HA661811   7.080   7.467   4.794  1.5774 -0.8669  1.2763
18630THY      O61812   7.892   3.748   5.337  0.0872  0.3306  0.4764
18630THY     HO61813   7.982   3.733   5.370  1.3688 -2.8736  0.3498
18630THY    CA161814   7.815   3.669   5.411 -0.0706  0.9346  0.0161
18630THY    CA261815   7.679   3.655   5.371 -0.1024  0.4613  0.0365
18630THY    CP161816   7.624   3.732   5.251 -0.3269  0.4600  0.1817
18630THY    HP161817   7.709   3.764   5.190 -0.0016  0.1923 -1.1381
18630THY    CP261818   7.527   3.848   5.289  0.1327  0.0918  0.5847
18630THY    HP261819   7.565   3.903   5.376 -0.7671  1.3237 -0.6697
18630THY    HP361820   7.432   3.809   5.328  1.7944  3.4250 -0.5656
18630THY    HP461821   7.502   3.915   5.206 -0.8361 -0.2423 -0.1670
18630THY    CP361822   7.557   3.637   5.145  0.1981  0.4774 -0.6680
18630THY    HP561823   7.635   3.573   5.103 -0.8109 -1.7637 -0.5158
18630THY    HP661824   7.516   3.697   5.064 -0.3884  3.2867  3.1262
18630THY    HP761825   7.480   3.571   5.186 -0.4585 -0.5403 -0.5433
18630THY    CA361826   7.596   3.579   5.453  0.1499 -0.0303  0.1550
18630THY    HA361827   7.489   3.570   5.436  0.1432  0.6252 -1.2793
18630THY    CA461828   7.649   3.532   5.571  0.1536 -0.1899  0.4697
18630THY    HA461829   7.589   3.465   5.632  1.1357  0.6866  0.3475
18630THY    CA561830   7.784   3.550   5.608 -0.3833 -0.2340 -0.2623
18630THY    CM161831   7.835   3.469   5.731  0.5468 -0.3207 -0.1579
18630THY    HM161832   7.864   3.366   5.708 -3.9214  3.4733 -2.6503
18630THY    HM261833   7.765   3.472   5.815 -0.4396 -1.0110 -2.1997
18630THY    HM361834   7.921   3.529   5.765 -0.2655 -0.5661  1.1908
18630THY    CA661835   7.867   3.621   5.532 -0.1035 -0.0734 -0.0071
18630THY    HA661836   7.973   3.633   5.555 -0.1173 -0.8812  2.2262
18631THY      O61837   9.153   7.789   7.392 -0.4367 -0.1988 -0.0105
18631THY     HO61838   9.181   7.728   7.462  0.2518 -1.1737 -0.8503
18631THY    CA161839   9.105   7.900   7.448  0.0369 -0.3301 -0.3685
18631THY    CA261840   8.997   7.962   7.385 -0.5276 -0.2774 -0.1133
18631THY    CP161841   8.927   7.882   7.268 -0.4048 -0.2429 -0.4476
18631THY    HP161842   8.967   7.780   7.260  0.1917  0.8572 -0.3162
18631THY    CP261843   8.948   7.956   7.137 -0.4766 -0.0179 -0.0049
18631THY    HP261844   9.056   7.970   7.119 -0.5728  0.9529  2.3430
18631THY    HP361845   8.898   8.053   7.140 -0.6274 -2.2149  0.0432
18631THY    HP461846   8.902   7.902   7.053 -0.9906 -1.1435  2.0670
18631THY    CP361847   8.778   7.856   7.286  0.0591 -0.2893  0.2064
18631THY    HP561848   8.738   7.832   7.187  0.1346 -0.5688  1.1789
18631THY    HP661849   8.715   7.940   7.317 -1.9454  0.0261 -1.3279
18631THY    HP761850   8.766   7.771   7.354 -1.1750 -1.4665 -0.6035
18631THY    CA361851   8.952   8.085   7.434  0.0974  0.0422 -0.9884
18631THY    HA361852   8.878   8.134   7.371 -0.9376  1.6716 -0.3860
18631THY    CA461853   9.005   8.146   7.550 -0.7870  0.5415  0.9265
18631THY    HA461854   8.960   8.239   7.582 -2.9972  1.6041 -0.4297
18631THY    CA561855   9.099   8.071   7.621 -0.0358  0.7463 -0.0671
18631THY    CM161856   9.160   8.123   7.749  0.0096  0.1017  0.2883
18631THY    HM161857   9.097   8.203   7.789 -1.5350  0.1461 -0.9139
18631THY    HM261858   9.256   8.174   7.731 -0.6798  0.8420  1.9018
18631THY    HM361859   9.151   8.047   7.827  0.0914 -0.1266  0.0411
18631THY    CA661860   9.157   7.955   7.565  0.6463 -0.2799  0.1528
18631THY    HA661861   9.246   7.911   7.609 -0.1317  2.7750  1.3816
18632THY      O61862   7.572   1.261   2.539  0.0232  0.1818 -0.0402
18632THY     HO61863   7.539   1.349   2.515  0.0902 -0.5554 -0.2134
18632THY    CA161864   7.702   1.256   2.505 -0.2601 -0.7440  0.4398
18632THY    CA261865   7.767   1.134   2.492 -0.4439 -0.3250  0.1754
18632THY    CP161866   7.696   0.999   2.508 -0.3123  0.2017 -0.6808
18632THY    HP161867   7.589   1.017   2.517 -0.1308  0.7531  0.1873
18632THY    CP261868   7.741   0.913   2.635 -0.0380 -0.5367 -0.1637
18632THY    HP261869   7.713   0.809   2.618  0.6679 -2.6261 -0.0738
18632THY    HP361870   7.706   0.961   2.727  0.7374 -0.4485  0.2464
18632THY    HP461871   7.849   0.898   2.638 -0.3288  0.5217 -2.4187
18632THY    CP361872   7.714   0.912   2.379  0.4750  0.4292  0.8829
18632THY    HP561873   7.794   0.839   2.392 -1.5524  1.4519 -1.3312
18632THY    HP661874   7.745   0.983   2.302  0.6065  1.8214  2.3959
18632THY    HP761875   7.616   0.867   2.358 -0.6399  2.3108  2.2848
18632THY    CA361876   7.909   1.137   2.462  0.1021  0.0877  0.0452
18632THY    HA361877   7.965   1.045   2.443  2.7847  1.5895  1.2571
18632THY    CA461878   7.977   1.254   2.457  0.9959  0.2642 -0.7487
18632THY    HA461879   8.080   1.257   2.421  0.4106 -1.6901 -1.8453
18632THY    CA561880   7.905   1.372   2.476  0.0662  1.2487 -0.3395
18632THY    CM161881   7.980   1.506   2.459  0.6929  0.1000 -0.0533
18632THY    HM161882   7.929   1.593   2.503  0.8781  0.5269 -0.1560
18632THY    HM261883   7.992   1.523   2.351 -3.0065 -0.1595  1.9624
18632THY    HM361884   8.084   1.508   2.496  0.4966  0.6465  0.1587
18632THY    CA661885   7.768   1.370   2.489  0.1501 -0.1319 -0.1168
18632THY    HA661886   7.729   1.471   2.494  1.7834 -2.8427  0.7385
18633THY      O61887   2.782   7.385   6.137  0.3387 -0.0658  0.5387
18633THY     HO61888   2.824   7.299   6.121 -1.2571  1.5620 -0.6101
18633THY    CA161889   2.715   7.441   6.036  0.4343  0.7950 -0.0820
18633THY    CA261890   2.618   7.543   6.049 -0.3869 -0.4565 -0.1711
18633THY    CP161891   2.594   7.588   6.194  0.4934  0.3025  0.2259
18633THY    HP161892   2.639   7.514   6.262  0.4389  0.7630  0.6159
18633THY    CP261893   2.446   7.603   6.232 -0.6544  0.5836 -0.1321
18633THY    HP261894   2.433   7.631   6.337  2.4631  1.1582 -0.4905
18633THY    HP361895   2.393   7.508   6.218 -1.0254 -0.8318  0.2599
18633THY    HP461896   2.394   7.668   6.161  0.3005  1.9677  2.2458
18633THY    CP361897   2.664   7.725   6.226 -0.0326  0.1086 -0.2249
18633THY    HP561898   2.628   7.787   6.143  0.1610 -0.7499 -1.2383
18633THY    HP661899   2.773   7.727   6.216  0.1546  1.7583  2.2006
18633THY    HP761900   2.637   7.763   6.326 -1.0377 -0.0432 -0.4977
18633THY    CA361901   2.546   7.597   5.941  0.3015 -0.5616 -0.6052
18633THY    HA361902   2.477   7.677   5.966  2.1401  2.2797  0.2453
18633THY    CA461903   2.571   7.542   5.814 -0.2069  0.3564 -0.6144
18633THY    HA461904   2.518   7.587   5.730 -2.6447  2.1940  0.1522
18633THY    CA561905   2.667   7.442   5.800 -0.0755  0.3857  0.3713
18633THY    CM161906   2.733   7.423   5.665 -0.3872  0.4812  0.4707
18633THY    HM161907   2.761   7.319   5.644  0.0050 -0.5304  0.7643
18633THY    HM261908   2.832   7.468   5.675  0.8607 -1.4459 -1.6015
18633THY    HM361909   2.668   7.452   5.582 -0.6854  0.7957  0.7034
18633THY    CA661910   2.732   7.383   5.911  0.0800  0.1452 -0.0428
18633THY    HA661911   2.808   7.309   5.891  0.4135 -1.5850  0.7370
18634THY      O61912   1.610   1.442   7.290  0.1400 -0.0737 -0.3334
18634THY     HO61913   1.684   1.481   7.242 -0.0280  2.1906  3.1968
18634THY    CA161914   1.594   1.519   7.401 -0.3653 -0.2889 -0.1148
18634THY    CA261915   1.466   1.516   7.459 -0.3787 -0.0450 -0.3143
18634THY    CP161916   1.348   1.434   7.409 -0.8119 -0.5402 -0.2056
18634THY    HP161917   1.381   1.372   7.325 -0.4139  1.2124 -2.5400
18634THY    CP261918   1.236   1.531   7.362 -0.4842 -0.0088  0.6048
18634THY    HP261919   1.278   1.606   7.293  1.3799 -0.9946 -1.2452
18634THY    HP361920   1.193   1.584   7.448 -0.6058  1.0218 -1.1237
18634THY    HP461921   1.157   1.473   7.313 -2.2151 -2.0676  4.2783
18634THY    CP361922   1.288   1.325   7.494 -0.3400  0.4918  0.5554
18634THY    HP561923   1.278   1.359   7.598  1.0728  0.3357  1.5153
18634THY    HP661924   1.363   1.245   7.497 -2.6319  1.5928 -1.7554
18634THY    HP761925   1.204   1.282   7.438  0.2391  1.0451 -1.4349
18634THY    CA361926   1.452   1.606   7.571 -0.9155  0.0524  0.1693
18634THY    HA361927   1.354   1.623   7.615 -0.6985  0.9579 -0.8235
18634THY    CA461928   1.554   1.686   7.623 -0.7152 -0.1691 -0.3318
18634THY    HA461929   1.525   1.759   7.697 -2.2023 -1.1945  0.1506
18634THY    CA561930   1.678   1.680   7.562 -0.3754  0.2995  0.2070
18634THY    CM161931   1.796   1.765   7.602  0.1859 -0.5383 -0.2478
18634THY    HM161932   1.807   1.849   7.533 -2.4535  0.2435  0.8481
18634THY    HM261933   1.891   1.709   7.603  0.3723  0.2535  0.0671
18634THY    HM361934   1.792   1.796   7.707 -0.0790 -0.0719 -1.7839
18634THY    CA661935   1.703   1.602   7.448 -0.5504 -0.3415  0.4220
18634THY    HA661936   1.799   1.607   7.398  1.0557  2.4905  0.0969
18635THY      O61937   4.035   2.810   4.958 -0.4093  0.1539  0.0666
18635THY     HO61938   4.045   2.864   5.038  2.1120 -0.5599  0.8094
18635THY    CA161939   4.056   2.884   4.842  0.1257 -0.7213 -0.4257
18635THY    CA261940   4.128   2.828   4.736 -0.1261  0.4517 -0.5502
18635THY    CP161941   4.204   2.691   4.753 -0.4112 -0.5017 -0.1705
18635THY    HP161942   4.142   2.627   4.817 -0.1335 -1.5942 -1.5618
18635THY    CP261943   4.346   2.726   4.802  0.2315  0.7885 -0.1186
18635THY    HP261944   4.402   2.778   4.724 -2.8964 -0.6409  1.3734
18635THY    HP361945   4.401   2.634   4.824 -0.5170  0.1100 -0.7423
18635THY    HP461946   4.344   2.786   4.894 -0.5732  0.1199  0.9074
18635THY    CP361947   4.229   2.621   4.621  0.6591 -0.7784  0.0123
18635THY    HP561948   4.265   2.518   4.636  2.3283  0.1345  0.7026
18635THY    HP661949   4.301   2.678   4.562 -0.9167 -2.3606  0.4893
18635THY    HP761950   4.139   2.630   4.558  1.6678 -2.2540  0.1955
18635THY    CA361951   4.161   2.913   4.624  0.2319 -0.1643  0.4237
18635THY    HA361952   4.235   2.889   4.547  0.0043 -0.3954  0.4633
18635THY    CA461953   4.091   3.032   4.618  0.2190 -0.3003 -0.3343
18635THY    HA461954   4.094   3.093   4.527  0.2802 -0.7561 -1.0043
18635THY    CA561955   4.019   3.085   4.729 -0.0635  0.1502 -0.4432
18635THY    CM161956   3.944   3.212   4.724 -0.2739 -0.2961 -0.0162
18635THY    HM161957   3.845   3.189   4.683 -0.3601  0.3650 -0.8834
18635THY    HM261958   4.000   3.294   4.677  1.2892  1.1441 -0.1874
18635THY    HM361959   3.926   3.256   4.823  2.0536  0.3011 -0.2958
18635THY    CA661960   4.013   3.017   4.845  0.0401 -0.4261  0.0972
18635THY    HA661961   3.968   3.063   4.933 -0.3307 -0.0740 -0.9043
18636THY      O61962   2.716   4.895   7.454 -0.6350  0.5323 -0.3238
18636THY     HO61963   2.809   4.866   7.452 -0.6995  0.0549 -0.5144
18636THY    CA161964   2.695   4.954   7.331  0.5854 -0.3872 -0.2976
18636THY    CA261965   2.564   4.961   7.280 -0.5484  0.8846 -0.0963
18636THY    CP161966   2.445   4.892   7.352 -0.3657  0.0716 -0.3473
18636THY    HP161967   2.474   4.848   7.449 -0.7163  0.0202 -0.6943
18636THY    CP261968   2.391   4.773   7.267 -0.0110 -1.3019 -0.4645
18636THY    HP261969   2.471   4.699   7.265 -1.2486 -2.1097 -1.8368
18636THY    HP361970   2.375   4.803   7.163 -1.0311 -1.5473 -1.7903
18636THY    HP461971   2.295   4.731   7.301 -0.2623 -0.9456  0.3815
18636THY    CP361972   2.332   4.998   7.373 -0.2897 -0.0502 -0.2937
18636THY    HP561973   2.258   4.968   7.448 -2.3331 -0.7053  2.7103
18636THY    HP661974   2.274   5.022   7.283 -0.5549  0.2201  0.0921
18636THY    HP761975   2.386   5.085   7.411 -0.2874  0.5904 -0.5671
18636THY    CA361976   2.551   5.025   7.155  0.1905 -0.1991 -0.0937
18636THY    HA361977   2.453   5.038   7.110 -0.2122  1.0981  1.8239
18636THY    CA461978   2.654   5.082   7.088 -0.3206  0.5174 -0.7909
18636THY    HA461979   2.646   5.138   6.995 -1.0839  0.7703 -0.4680
18636THY    CA561980   2.778   5.076   7.146 -0.5308  0.0517 -0.0573
18636THY    CM161981   2.887   5.136   7.074  0.0124 -0.1737  0.0001
18636THY    HM161982   2.955   5.177   7.150  0.5368  0.4420 -1.8654
18636THY    HM261983   2.840   5.219   7.020  0.8732 -2.2879 -0.8070
18636THY    HM361984   2.942   5.075   7.001  0.5344 -0.3799  0.6973
18636THY    CA661985   2.802   5.011   7.272  0.0705  0.0197  0.6821
18636THY    HA661986   2.900   5.012   7.318 -0.3343  0.9189  1.6133
18637THY      O61987   9.068   1.294   6.797 -0.0567  0.0343  0.6454
18637THY     HO61988   9.136   1.239   6.756 -0.3565  2.0161 -1.3259
18637THY    CA161989   8.951   1.222   6.781  0.2219  0.4805 -0.2404
18637THY    CA261990   8.938   1.094   6.836  0.5242 -0.6087  0.6393
18637THY    CP161991   9.031   1.046   6.943  0.2524 -0.3134 -0.4328
18637THY    HP161992   9.117   1.114   6.945  1.0721 -1.0538 -1.4167
18637THY    CP261993   9.083   0.909   6.903  0.0191  0.0688  0.4188
18637THY    HP261994   9.001   0.839   6.920 -0.9487 -1.1996  1.1991
18637THY    HP361995   9.161   0.891   6.978 -1.3327  1.5899  0.5792
18637THY    HP461996   9.105   0.906   6.796  0.8564  0.2502 -0.4542
18637THY    CP361997   8.965   1.057   7.084  0.7405  0.5253  0.3389
18637THY    HP561998   8.937   1.161   7.103 -2.8664 -1.1603 -0.1870
18637THY    HP661999   9.032   1.027   7.165 -0.2521  1.6858  1.1400
18637THY    HP762000   8.889   0.983   7.109 -1.1363 -1.0999  1.6076
18637THY    CA362001   8.829   1.010   6.801  0.4277 -0.5205 -0.0706
18637THY    HA362002   8.803   0.917   6.852 -0.3612 -1.1533 -0.2071
18637THY    CA462003   8.738   1.064   6.704 -0.5067 -0.0937  0.2412
18637THY    HA462004   8.656   0.996   6.687 -0.5722  2.0406 -0.3015
18637THY    CA562005   8.756   1.184   6.646 -0.0029 -0.7025 -0.4333
18637THY    CM162006   8.683   1.228   6.526  0.1304 -0.3935  0.3804
18637THY    HM162007   8.587   1.174   6.519  0.1777 -1.9886  0.4669
18637THY    HM262008   8.736   1.192   6.438  0.0642 -0.3931  0.2797
18637THY    HM362009   8.682   1.337   6.533 -1.7472  0.0473  0.3742
18637THY    CA662010   8.860   1.263   6.685 -0.6924  0.6071 -0.4410
18637THY    HA662011   8.874   1.354   6.627  0.9083 -1.4886 -1.9403
18638THY      O62012   3.644   7.011   3.168  0.1666  0.4434  0.1867
18638THY     HO62013   3.713   6.979   3.108  0.0746 -0.5194  1.6951
18638THY    CA162014   3.577   7.092   3.084 -0.3233  0.2953 -0.2968
18638THY    CA262015   3.445   7.137   3.110 -0.1591  0.5096  0.5169
18638THY    CP162016   3.368   7.091   3.235  0.5380 -0.7763  0.1194
18638THY    HP162017   3.422   7.023   3.303  1.4617 -0.0358  1.5373
18638THY    CP262018   3.245   7.005   3.195 -0.3297  0.1049  0.2177
18638THY    HP262019   3.182   7.074   3.138  0.9328  1.4454  2.6168
18638THY    HP362020   3.187   6.971   3.281  0.5810 -0.1511 -2.1469
18638THY    HP462021   3.267   6.915   3.136 -2.0846 -0.2777  0.0097
18638THY    CP362022   3.330   7.220   3.313  1.0734 -0.2498 -0.6882
18638THY    HP562023   3.266   7.286   3.255  0.6466  2.7121  1.7394
18638THY    HP662024   3.427   7.272   3.318 -0.7958 -1.4356  3.2676
18638THY    HP762025   3.287   7.201   3.412 -1.5174 -0.8520  1.4432
18638THY    CA362026   3.376   7.216   3.016 -1.0966 -0.3096 -0.0378
18638THY    HA362027   3.274   7.243   3.038 -0.6510  1.4875  0.3174
18638THY    CA462028   3.442   7.263   2.905  0.1445 -0.1790  0.0165
18638THY    HA462029   3.400   7.334   2.834 -0.7596 -0.9605 -1.2579
18638THY    CA562030   3.575   7.221   2.883  0.4777  0.0800 -1.3009
18638THY    CM162031   3.648   7.273   2.761 -0.0288 -0.3572  0.1908
18638THY    HM162032   3.577   7.268   2.678 -2.0100  1.3102 -0.9519
18638THY    HM262033   3.731   7.204   2.743  0.3976  0.5947  0.4256
18638THY    HM362034   3.681   7.377   2.775  0.9227  2.0674 -0.3648
18638THY    CA662035   3.638   7.137   2.968 -0.3762 -1.0643  0.2436
18638THY    HA662036   3.738   7.101   2.944  0.6485  0.2605  1.9960
18639THY      O62037   8.942   7.078   6.277  0.1613  0.3891  0.3973
18639THY     HO62038   9.021   7.048   6.228 -0.5532 -1.3738  1.2189
18639THY    CA162039   8.952   7.001   6.380  0.5389 -0.1895 -0.3687
18639THY    CA262040   8.865   7.006   6.487  1.1872  0.1097  0.4899
18639THY    CP162041   8.736   7.083   6.476  0.3572 -0.0323  0.0480
18639THY    HP162042   8.736   7.156   6.395 -0.4825  0.7366  0.9237
18639THY    CP262043   8.716   7.178   6.592 -0.4051 -0.3688  0.3667
18639THY    HP262044   8.639   7.253   6.572  0.3339  0.7918  1.4794
18639THY    HP362045   8.804   7.230   6.632 -1.5213  1.9290  0.6585
18639THY    HP462046   8.681   7.121   6.679  0.9170 -0.9079 -1.3488
18639THY    CP362047   8.612   6.992   6.461  0.5296 -0.0288  0.2321
18639THY    HP562048   8.608   6.917   6.541 -0.4152 -0.3821 -0.1080
18639THY    HP662049   8.605   6.942   6.364  3.0115 -1.7706  2.9528
18639THY    HP762050   8.526   7.061   6.466  1.1180 -1.0759  1.0744
18639THY    CA362051   8.884   6.914   6.595  0.0284  0.4407 -0.0278
18639THY    HA362052   8.807   6.895   6.669  0.4669  0.2854 -2.9707
18639THY    CA462053   9.000   6.840   6.599  1.0527 -0.1589 -0.7975
18639THY    HA462054   9.014   6.778   6.687  1.8238 -0.2075 -0.6985
18639THY    CA562055   9.088   6.840   6.494 -0.0822 -1.1672  0.5117
18639THY    CM162056   9.204   6.748   6.508 -0.4074 -0.4892  0.2717
18639THY    HM162057   9.233   6.699   6.414 -0.0971 -0.4963  0.4665
18639THY    HM262058   9.172   6.667   6.574  1.1852  0.6572  0.5256
18639THY    HM362059   9.294   6.792   6.553  0.1802 -1.2396 -0.1436
18639THY    CA662060   9.059   6.909   6.382  1.0166  0.9550 -0.1604
18639THY    HA662061   9.122   6.898   6.294  1.1773  1.0397  0.0628
18640THY      O62062   5.107   3.800   4.058  0.1191  0.0318  0.6751
18640THY     HO62063   5.117   3.871   4.123 -0.0427 -0.1696  0.8805
18640THY    CA162064   4.975   3.787   4.041 -0.1032 -0.3706  0.2631
18640THY    CA262065   4.914   3.781   3.911  0.3407  0.1766  0.1049
18640THY    CP162066   4.992   3.758   3.777  0.2551  0.8092  0.0795
18640THY    HP162067   5.093   3.791   3.803  1.6266 -2.3954 -1.2229
18640THY    CP262068   4.931   3.855   3.677  0.9290  0.0785  0.2884
18640THY    HP262069   4.903   3.953   3.719  2.0060  0.3672  0.4886
18640THY    HP362070   4.839   3.805   3.648  1.4299  0.0736 -0.6525
18640THY    HP462071   5.000   3.865   3.592  0.9208 -0.1081 -1.0873
18640THY    CP362072   4.989   3.616   3.729  0.3081  0.3419  0.6634
18640THY    HP562073   5.034   3.552   3.805  1.3442  1.5733  2.7361
18640THY    HP662074   5.046   3.602   3.636  0.5838  0.2300  2.3209
18640THY    HP762075   4.885   3.583   3.717  0.7831 -0.9572 -0.4641
18640THY    CA362076   4.767   3.773   3.913  0.3496  0.4034  0.4039
18640THY    HA362077   4.724   3.762   3.814 -0.0512  0.4875  1.1466
18640THY    CA462078   4.690   3.763   4.033 -0.5642 -0.2149 -0.0254
18640THY    HA462079   4.582   3.771   4.019 -0.6352  1.1627  1.9068
18640THY    CA562080   4.759   3.766   4.157 -0.8524 -0.0816  0.5183
18640THY    CM162081   4.675   3.742   4.279  0.6319  0.1663 -0.1505
18640THY    HM162082   4.629   3.826   4.332 -2.1684  2.9851 -3.1349
18640THY    HM262083   4.740   3.687   4.348 -0.3318  0.5256 -0.8700
18640THY    HM362084   4.593   3.674   4.251  0.3175  0.6974  0.0051
18640THY    CA662085   4.902   3.778   4.163 -0.0003  0.5174  0.6933
18640THY    HA662086   4.945   3.795   4.261  0.5325  0.1037  1.8180
18641THY      O62087   0.900   4.184   5.441  0.0609  0.0956 -0.2388
18641THY     HO62088   0.916   4.091   5.416  0.5542 -0.0308 -0.1254
18641THY    CA162089   0.849   4.173   5.564  0.3753  0.4056  0.1433
18641THY    CA262090   0.816   4.287   5.640 -0.2118  0.0900 -0.2556
18641THY    CP162091   0.833   4.435   5.590  0.7335  0.4543  0.2935
18641THY    HP162092   0.910   4.426   5.513  1.6972  1.3863  0.3305
18641THY    CP262093   0.874   4.534   5.689 -0.6913 -0.0119 -0.0998
18641THY    HP262094   0.915   4.625   5.646 -1.2462  2.4591  1.4122
18641THY    HP362095   0.957   4.492   5.747  0.9651 -2.3120 -0.1124
18641THY    HP462096   0.786   4.564   5.749 -0.1170  0.4859  0.6238
18641THY    CP362097   0.696   4.482   5.540 -0.8507  0.3128  0.6045
18641THY    HP562098   0.667   4.411   5.462  1.2078  0.0641 -0.0257
18641THY    HP662099   0.706   4.582   5.494 -2.0137 -0.1787  0.5154
18641THY    HP762100   0.618   4.482   5.617 -0.2451  0.9320  1.2030
18641THY    CA362101   0.758   4.265   5.773  0.6934  0.4168 -0.3325
18641THY    HA362102   0.724   4.356   5.820 -1.1850  0.0899 -0.8226
18641THY    CA462103   0.728   4.133   5.818  0.4007  0.7345  0.1618
18641THY    HA462104   0.671   4.120   5.909 -3.6460 -1.4245  1.2927
18641THY    CA562105   0.760   4.021   5.739  0.9752 -0.2512 -0.3744
18641THY    CM162106   0.722   3.881   5.788  0.3333 -0.1103  0.1913
18641THY    HM162107   0.810   3.818   5.771  0.2824  1.6146 -0.4074
18641THY    HM262108   0.635   3.829   5.748  0.8677  0.2044 -0.9908
18641THY    HM362109   0.706   3.885   5.897  2.3191  0.2655 -0.5326
18641THY    CA662110   0.814   4.047   5.613 -0.1695  0.7052  0.1338
18641THY    HA662111   0.827   3.960   5.549 -3.2484 -0.0768  0.1411
18642THY      O62112   6.092   2.237   4.000  0.4735  0.1051  0.8141
18642THY     HO62113   6.106   2.145   4.029 -0.6844 -1.5512  0.0705
18642THY    CA162114   6.211   2.284   3.958 -0.3495 -0.1270 -0.1080
18642THY    CA262115   6.249   2.419   3.966  0.9639  0.2408  1.2500
18642THY    CP162116   6.140   2.515   4.000 -0.1565 -0.6873 -0.3928
18642THY    HP162117   6.040   2.470   3.999 -0.9024  0.7904  1.1126
18642THY    CP262118   6.138   2.630   3.896 -1.2036  0.5976 -0.6708
18642THY    HP262119   6.084   2.720   3.929  0.8044  1.3690  0.3119
18642THY    HP362120   6.086   2.594   3.807 -2.0137  0.9991 -0.5101
18642THY    HP462121   6.240   2.670   3.885 -1.9290  2.1759  1.9097
18642THY    CP362122   6.166   2.569   4.146  0.2264 -0.7333  0.4295
18642THY    HP562123   6.137   2.494   4.221  1.5284 -0.5432  0.0866
18642THY    HP662124   6.110   2.661   4.163 -0.2484  0.5034 -0.0666
18642THY    HP762125   6.274   2.581   4.162  0.0228  0.6424  0.5757
18642THY    CA362126   6.381   2.449   3.924 -0.4298  0.1177 -0.8799
18642THY    HA362127   6.408   2.554   3.921 -0.5273  2.9604 -0.6985
18642THY    CA462128   6.468   2.355   3.877 -0.0939 -0.6130 -0.5052
18642THY    HA462129   6.567   2.382   3.842 -0.5894 -0.2962  1.9433
18642THY    CA562130   6.425   2.224   3.869 -0.4637 -0.7517  0.5291
18642THY    CM162131   6.506   2.113   3.807 -0.0821  0.1293  0.5695
18642THY    HM162132   6.506   2.030   3.878  0.5083  0.0618  0.5055
18642THY    HM262133   6.612   2.129   3.782 -0.2893 -0.7638  0.6144
18642THY    HM362134   6.452   2.072   3.721  1.2933 -0.1615 -0.7196
18642THY    CA662135   6.296   2.195   3.908  0.0135 -0.0490 -0.9536
18642THY    HA662136   6.261   2.092   3.901  0.3601 -2.9110 -0.9623
18643THY      O62137   7.670   8.419   2.762 -0.1251 -0.0989 -0.3124
18643THY     HO62138   7.616   8.369   2.825 -0.8344  0.3499  0.9779
18643THY    CA162139   7.755   8.326   2.714  0.9266 -0.2926 -0.3776
18643THY    CA262140   7.876   8.357   2.656  0.0102 -0.6633  0.2533
18643THY    CP162141   7.900   8.503   2.611 -0.3970  0.6448  0.2808
18643THY    HP162142   7.827   8.577   2.643  1.1364 -0.2084  2.2704
18643THY    CP262143   7.896   8.514   2.456 -0.8957  0.4075  0.0490
18643THY    HP262144   7.805   8.471   2.413 -0.3000 -0.5861 -0.2586
18643THY    HP362145   7.980   8.467   2.403 -1.4999 -1.3847  0.9307
18643THY    HP462146   7.908   8.619   2.427 -1.4332  1.3402  0.3777
18643THY    CP362147   8.032   8.567   2.656  0.1561 -0.5715  0.2600
18643THY    HP562148   8.024   8.582   2.764 -0.3706 -0.5675 -0.0075
18643THY    HP662149   8.045   8.667   2.615  0.3034  1.0215  0.9262
18643THY    HP762150   8.125   8.512   2.640 -0.7719  0.2477 -1.6560
18643THY    CA362151   7.976   8.257   2.632 -0.0303 -0.1200 -0.3233
18643THY    HA362152   8.071   8.273   2.582 -0.7551 -1.2582  0.6230
18643THY    CA462153   7.936   8.122   2.653  0.0192  0.1090 -0.0964
18643THY    HA462154   8.000   8.038   2.624  2.5673  3.6012  0.4184
18643THY    CA562155   7.812   8.086   2.712  0.1390 -0.0428 -0.2797
18643THY    CM162156   7.758   7.949   2.723 -0.5950 -0.6563  0.0813
18643THY    HM162157   7.710   7.917   2.630  0.3871 -1.2717  0.3690
18643THY    HM262158   7.695   7.949   2.813 -0.1389 -0.2610  2.4829
18643THY    HM362159   7.845   7.884   2.735 -0.3147  0.4245  0.6263
18643THY    CA662160   7.727   8.197   2.749  0.1595 -0.5734  0.6285
18643THY    HA662161   7.629   8.175   2.791 -0.5092 -2.1577  0.4256
18644THY      O62162   7.155   1.486   5.664 -0.1527 -0.2656 -0.1419
18644THY     HO62163   7.168   1.461   5.757 -0.8994  0.1649  0.9891
18644THY    CA162164   7.232   1.595   5.629 -0.1236  0.4713 -0.5896
18644THY    CA262165   7.267   1.629   5.495 -0.2416  0.1389 -0.1047
18644THY    CP162166   7.202   1.538   5.386  0.1944 -0.3446  0.0407
18644THY    HP162167   7.117   1.487   5.434  0.0116  2.4577  2.7040
18644THY    CP262168   7.309   1.443   5.330 -0.0990 -0.0086 -0.0849
18644THY    HP262169   7.275   1.374   5.253  0.1233  1.7191 -2.2372
18644THY    HP362170   7.360   1.384   5.407  0.9730  0.8419  1.8658
18644THY    HP462171   7.394   1.501   5.291 -1.6760 -2.2650  0.8575
18644THY    CP362172   7.140   1.612   5.265  0.3994 -0.0047 -0.0778
18644THY    HP562173   7.032   1.605   5.248  0.6240 -2.5139  1.0956
18644THY    HP662174   7.190   1.572   5.176  0.6871  0.6659 -1.2391
18644THY    HP762175   7.172   1.717   5.267  1.9650 -2.4847 -0.4115
18644THY    CA362176   7.356   1.737   5.469 -0.6397  0.0324 -0.0979
18644THY    HA362177   7.387   1.759   5.367  0.3350  0.3937  0.2341
18644THY    CA462178   7.418   1.800   5.573 -0.1968 -0.0156 -0.5267
18644THY    HA462179   7.473   1.890   5.546  1.4810  0.4023 -1.3756
18644THY    CA562180   7.378   1.775   5.703  0.6362  0.5971  0.3281
18644THY    CM162181   7.418   1.866   5.812  0.0329  0.1177  0.5856
18644THY    HM162182   7.381   1.969   5.802 -0.2387  1.2573  0.6025
18644THY    HM262183   7.527   1.878   5.822  0.0633  1.4588 -0.5873
18644THY    HM362184   7.380   1.838   5.910 -3.7225 -1.4377 -0.3801
18644THY    CA662185   7.284   1.678   5.733  0.6466  0.1742 -0.2544
18644THY    HA662186   7.272   1.653   5.838 -0.3795  0.3358  0.8621
18645THY      O62187   7.688   8.604   1.668  0.1832  0.2065  0.9986
18645THY     HO62188   7.767   8.551   1.688  1.0489  0.3930  2.3395
18645THY    CA162189   7.678   8.701   1.764 -0.4138  0.3663 -0.3202
18645THY    CA262190   7.578   8.799   1.762  0.5821 -0.1655 -0.4466
18645THY    CP162191   7.459   8.812   1.657 -0.4309 -0.6928  1.2022
18645THY    HP162192   7.478   8.730   1.586 -2.5367  0.5830 -0.5253
18645THY    CP262193   7.443   8.943   1.583  0.5957  0.1941  0.1887
18645THY    HP262194   7.395   9.020   1.645  0.0328  1.3707 -1.0619
18645THY    HP362195   7.378   8.929   1.496 -0.3761  0.8427  0.4978
18645THY    HP462196   7.539   8.982   1.549  0.2543  0.1331  0.9977
18645THY    CP362197   7.335   8.770   1.732  0.6650 -0.7596  0.1683
18645THY    HP562198   7.346   8.673   1.783  0.5244 -0.8123  0.1226
18645THY    HP662199   7.248   8.744   1.670 -0.4697  1.6325 -2.3193
18645THY    HP762200   7.300   8.840   1.809  0.4047 -1.3315  0.6687
18645THY    CA362201   7.575   8.894   1.869  0.0441 -0.7141  0.6031
18645THY    HA362202   7.501   8.974   1.881 -0.7153  1.7325 -0.3716
18645THY    CA462203   7.670   8.896   1.972  0.7002 -0.9021  0.9443
18645THY    HA462204   7.670   8.973   2.049  0.3445 -2.5264  2.6526
18645THY    CA562205   7.768   8.802   1.962 -0.6201  0.3453  0.0538
18645THY    CM162206   7.874   8.815   2.063 -0.7542  0.4591  0.6346
18645THY    HM162207   7.911   8.715   2.085 -1.1961  1.8481  0.7536
18645THY    HM262208   7.833   8.846   2.160  1.2911  2.2582 -1.8749
18645THY    HM362209   7.960   8.871   2.025 -1.4776 -0.3645  1.2149
18645THY    CA662210   7.769   8.699   1.860 -0.5396  0.2743 -1.7315
18645THY    HA662211   7.862   8.642   1.867 -1.3651  0.6516 -3.0787
18646THY      O62212   8.805   3.815   2.413 -1.0739  0.4635  0.2852
18646THY     HO62213   8.892   3.857   2.420 -0.1746  0.6280 -1.4916
18646THY    CA162214   8.820   3.691   2.457 -0.7770 -0.2393  0.1136
18646THY    CA262215   8.713   3.608   2.487 -0.2218  0.0415  0.0817
18646THY    CP162216   8.572   3.646   2.453  0.4227  0.5404 -0.2598
18646THY    HP162217   8.569   3.731   2.383 -2.9960  0.2918 -0.4657
18646THY    CP262218   8.485   3.666   2.575  0.0706 -0.1048 -0.0740
18646THY    HP262219   8.508   3.748   2.645  0.1253 -0.6207  0.3597
18646THY    HP362220   8.467   3.573   2.629 -0.3866  2.7522  1.5770
18646THY    HP462221   8.391   3.686   2.523  0.7892 -1.2717  0.4314
18646THY    CP362222   8.503   3.538   2.373 -0.4345 -0.5461 -0.1742
18646THY    HP562223   8.574   3.504   2.296 -0.1016 -0.8393  1.1159
18646THY    HP662224   8.424   3.593   2.321  0.5976  1.7017  3.8915
18646THY    HP762225   8.463   3.458   2.435 -0.0208  0.4694  0.3897
18646THY    CA362226   8.740   3.485   2.549 -0.0350 -0.0736  0.3329
18646THY    HA362227   8.656   3.420   2.571 -0.5850  0.6213  1.2514
18646THY    CA462228   8.877   3.440   2.575 -0.2401  0.0316 -0.0059
18646THY    HA462229   8.899   3.349   2.631 -1.3395 -1.5512 -1.2998
18646THY    CA562230   8.980   3.535   2.542 -0.6556 -0.1435 -0.0241
18646THY    CM162231   9.122   3.502   2.591 -0.6397  0.1391  0.4772
18646THY    HM162232   9.201   3.571   2.560 -2.8968 -1.7445  2.3783
18646THY    HM262233   9.149   3.396   2.577 -2.1991 -0.3535  0.1114
18646THY    HM362234   9.103   3.525   2.696 -0.5732  0.1996  0.2615
18646THY    CA662235   8.951   3.654   2.479  0.1932 -0.1448 -0.2044
18646THY    HA662236   9.033   3.724   2.464 -0.8728  0.0723  1.1417
18647THY      O62237   5.361   1.082   7.232  0.0047  0.2351  0.0884
18647THY     HO62238   5.350   1.170   7.272  0.8880  0.6101  0.0319
18647THY    CA162239   5.406   1.082   7.104 -0.7236  0.0570 -0.1945
18647THY    CA262240   5.424   0.963   7.029 -0.4152 -0.4032 -0.0851
18647THY    CP162241   5.395   0.824   7.094 -0.1990 -0.1854 -0.3476
18647THY    HP162242   5.419   0.818   7.201 -0.8771  0.2248  2.7426
18647THY    CP262243   5.455   0.699   7.022 -0.0672 -0.4073 -0.7800
18647THY    HP262244   5.454   0.611   7.087  0.2924  2.3581  1.1125
18647THY    HP362245   5.557   0.728   6.994 -0.5035 -2.0114 -0.7294
18647THY    HP462246   5.410   0.689   6.923  1.9697 -1.2716 -1.9194
18647THY    CP362247   5.244   0.802   7.083 -0.7460  0.3147  0.1126
18647THY    HP562248   5.199   0.889   7.134 -0.7259 -0.3164  0.4955
18647THY    HP662249   5.210   0.708   7.129 -0.6784 -0.0281 -0.0821
18647THY    HP762250   5.217   0.788   6.978 -1.2774  0.6947 -2.2028
18647THY    CA362251   5.467   0.972   6.900  0.0523  0.7955 -0.8229
18647THY    HA362252   5.491   0.888   6.837 -0.3287 -1.1338  0.4571
18647THY    CA462253   5.470   1.097   6.838  0.4492 -0.7326 -1.0271
18647THY    HA462254   5.486   1.105   6.731 -0.4407 -0.7756  0.6756
18647THY    CA562255   5.451   1.218   6.909  0.0164 -0.4709 -0.0093
18647THY    CM162256   5.473   1.355   6.848  0.5807  0.4302  0.1209
18647THY    HM162257   5.375   1.397   6.823  1.9905 -2.2133  2.1031
18647THY    HM262258   5.523   1.347   6.751 -0.9156 -0.3692 -0.0288
18647THY    HM362259   5.521   1.429   6.913  0.4676  0.4713  0.1596
18647THY    CA662260   5.426   1.204   7.041 -0.2669 -0.2625 -0.6434
18647THY    HA662261   5.422   1.297   7.097  2.9605  1.6327 -1.5032
18648THY      O62262   8.709   2.139   4.223  0.1068 -0.0180  0.0414
18648THY     HO62263   8.648   2.063   4.225  0.0345  2.2593  0.0749
18648THY    CA162264   8.629   2.223   4.165  1.0019  0.3527  0.4608
18648THY    CA262265   8.654   2.359   4.147 -0.1205 -0.1329 -0.5706
18648THY    CP162266   8.788   2.423   4.204 -0.3839  0.2557 -0.0709
18648THY    HP162267   8.848   2.352   4.264  3.1524  0.5633  2.8611
18648THY    CP262268   8.753   2.527   4.305  0.4681 -0.1415 -0.3239
18648THY    HP262269   8.681   2.484   4.375  0.7828  0.7801  0.5988
18648THY    HP362270   8.720   2.624   4.265  1.1290  1.8006  0.7613
18648THY    HP462271   8.845   2.538   4.364  0.1090  0.4106 -0.2512
18648THY    CP362272   8.883   2.484   4.092 -0.2534  0.4716 -0.0539
18648THY    HP562273   8.832   2.563   4.036  0.5023 -1.2163 -0.7122
18648THY    HP662274   8.908   2.401   4.025 -0.4332  0.5531 -0.1749
18648THY    HP762275   8.972   2.525   4.142 -0.6089  1.1019 -0.0303
18648THY    CA362276   8.560   2.441   4.087  0.1207 -0.1803 -0.8042
18648THY    HA362277   8.569   2.548   4.070  0.1869  1.2858 -0.5615
18648THY    CA462278   8.432   2.395   4.065  0.6794 -0.1315  0.1337
18648THY    HA462279   8.357   2.457   4.017  2.1083 -1.2497  1.0598
18648THY    CA562280   8.402   2.259   4.086  0.7364  0.6812  0.1065
18648THY    CM162281   8.261   2.195   4.057 -0.1111  0.2119 -0.1104
18648THY    HM162282   8.270   2.116   3.981 -0.6516  2.1391 -2.1204
18648THY    HM262283   8.191   2.271   4.022 -0.8294 -1.4567 -1.4621
18648THY    HM362284   8.228   2.137   4.144 -0.9264 -0.6510 -0.9705
18648THY    CA662285   8.499   2.176   4.143 -1.2438  0.4333  0.0046
18648THY    HA662286   8.475   2.071   4.156  0.3312 -0.9315 -0.5710
18649THY      O62287   4.070   4.390   3.987  0.0648 -0.0838  0.2177
18649THY     HO62288   4.059   4.443   3.906 -0.8393 -0.8856 -1.1515
18649THY    CA162289   4.055   4.477   4.094  0.1440  0.1454 -0.0898
18649THY    CA262290   4.080   4.442   4.227 -0.1855 -0.6205 -0.4663
18649THY    CP162291   4.128   4.311   4.272 -0.2347  0.2586  0.6912
18649THY    HP162292   4.183   4.258   4.193 -0.0849  0.1733  0.9691
18649THY    CP262293   4.007   4.214   4.308 -0.0308  0.1325  0.3889
18649THY    HP262294   4.045   4.124   4.358  0.6978  1.0099  1.1627
18649THY    HP362295   3.946   4.196   4.219 -0.2429  0.1557  0.9528
18649THY    HP462296   3.941   4.255   4.386  0.2493 -0.0096  1.1304
18649THY    CP362297   4.227   4.319   4.394 -0.7300  0.6187  0.0824
18649THY    HP562298   4.288   4.410   4.388  1.0706 -0.3695 -1.1269
18649THY    HP662299   4.293   4.232   4.400 -1.2794 -0.2088 -0.4099
18649THY    HP762300   4.178   4.307   4.491 -1.4512  0.0908 -1.6215
18649THY    CA362301   4.051   4.540   4.329  0.7332  0.2168  0.7046
18649THY    HA362302   4.059   4.515   4.434  1.8155 -0.2453 -1.0980
18649THY    CA462303   4.014   4.668   4.296 -0.0690 -0.2315 -0.0770
18649THY    HA462304   3.994   4.740   4.374 -3.6570 -1.0586  0.0327
18649THY    CA562305   3.991   4.700   4.164 -0.3898 -0.0838  0.3979
18649THY    CM162306   3.920   4.828   4.126  0.0476  0.3846 -0.3589
18649THY    HM162307   3.882   4.891   4.207 -1.4193 -0.5253 -0.0375
18649THY    HM262308   3.833   4.802   4.066  0.7013 -0.9551  0.4374
18649THY    HM362309   3.983   4.879   4.053 -1.8385 -0.6078  0.6234
18649THY    CA662310   4.005   4.602   4.065 -0.2513 -0.0212 -0.9502
18649THY    HA662311   3.978   4.632   3.964  0.7547  0.2809  1.1164
18650THY      O62312   0.818   6.158   2.281 -0.3153 -0.0380 -0.7532
18650THY     HO62313   0.854   6.071   2.307 -0.2888  2.4138 -0.0821
18650THY    CA162314   0.908   6.220   2.197 -0.0055 -0.1095 -0.0360
18650THY    CA262315   0.913   6.364   2.176 -0.0370  0.4779  0.5461
18650THY    CP162316   0.823   6.466   2.253 -0.3228  1.0138 -0.2118
18650THY    HP162317   0.759   6.402   2.314  0.0857  0.3252 -1.3222
18650THY    CP262318   0.748   6.548   2.149 -0.1215 -0.5856 -0.0011
18650THY    HP262319   0.669   6.606   2.197 -0.0274  0.2025 -0.5151
18650THY    HP362320   0.686   6.484   2.086 -0.9383  0.0457  0.1626
18650THY    HP462321   0.824   6.609   2.097  0.1350 -1.1707 -0.8076
18650THY    CP362322   0.902   6.547   2.354 -0.2311 -0.1212 -0.6623
18650THY    HP562323   0.845   6.634   2.389  0.1104  2.1701 -1.3034
18650THY    HP662324   0.994   6.587   2.311 -0.4483  1.4110  1.7187
18650THY    HP762325   0.939   6.488   2.438 -4.1126  2.4945  0.2047
18650THY    CA362326   1.006   6.419   2.086 -0.1059  1.0806  0.0214
18650THY    HA362327   1.010   6.528   2.084  2.4090  0.3977 -0.0233
18650THY    CA462328   1.105   6.337   2.028 -0.5285 -0.4589 -0.2834
18650THY    HA462329   1.174   6.384   1.958 -0.9361 -2.1740 -2.0997
18650THY    CA562330   1.107   6.196   2.060  0.5017  0.2655 -0.6208
18650THY    CM162331   1.223   6.110   2.008  0.9923  0.4888  0.2827
18650THY    HM162332   1.255   6.036   2.082 -0.1855 -2.1046 -3.0964
18650THY    HM262333   1.311   6.171   1.984  1.2113 -1.9548 -0.8564
18650THY    HM362334   1.185   6.060   1.918  2.5910 -0.2681  0.3726
18650THY    CA662335   1.014   6.146   2.145 -0.3016 -0.4870  0.4422
18650THY    HA662336   1.011   6.038   2.161  1.3981 -0.5227  0.3667
18651THY      O62337   3.492   3.764   4.890  0.6304  1.1041  0.6002
18651THY     HO62338   3.481   3.838   4.951  0.8209  1.2862  0.4800
18651THY    CA162339   3.549   3.803   4.774 -0.2518  1.0276  0.2083
18651THY    CA262340   3.587   3.709   4.673  0.7241  0.1113 -0.7527
18651THY    CP162341   3.594   3.562   4.710 -0.5996  0.2921  0.5151
18651THY    HP162342   3.560   3.547   4.814  0.8749  0.6452 -0.6498
18651THY    CP262343   3.740   3.508   4.712 -0.0252  0.3162  0.4082
18651THY    HP262344   3.809   3.582   4.756  4.0276 -1.5664 -1.9121
18651THY    HP362345   3.786   3.494   4.614  0.1940  0.4486  0.1894
18651THY    HP462346   3.745   3.414   4.767  1.1591 -0.3294  0.0754
18651THY    CP362347   3.514   3.465   4.623 -0.2442  0.0394  0.1669
18651THY    HP562348   3.412   3.504   4.630 -0.9315  2.2352 -1.7599
18651THY    HP662349   3.503   3.373   4.682 -2.5400  2.5918  1.9173
18651THY    HP762350   3.553   3.448   4.522  0.1720  0.0809  0.8613
18651THY    CA362351   3.651   3.751   4.562  0.1382 -0.0705 -0.2826
18651THY    HA362352   3.702   3.678   4.500  2.4779  0.9048  0.4539
18651THY    CA462353   3.671   3.893   4.544  0.4699  0.6327  0.3213
18651THY    HA462354   3.727   3.937   4.462  0.3467  0.7540  0.7062
18651THY    CA562355   3.614   3.984   4.629  0.3723  0.0029  0.2872
18651THY    CM162356   3.624   4.138   4.620  0.1146 -0.5659  0.2106
18651THY    HM162357   3.618   4.179   4.721  1.6905  0.3061 -1.5890
18651THY    HM262358   3.546   4.184   4.558 -2.0130  1.2820 -0.6688
18651THY    HM362359   3.724   4.156   4.580 -0.1288 -0.5291  1.7492
18651THY    CA662360   3.559   3.939   4.750  0.2248  0.2575  0.3194
18651THY    HA662361   3.525   4.003   4.831 -0.1550 -0.3068  0.8361
18652THY      O62362   7.897   2.959   4.192 -0.1308 -0.4638 -0.3813
18652THY     HO62363   7.814   2.961   4.142 -0.0914 -0.5384 -0.6027
18652THY    CA162364   7.916   2.827   4.228 -0.0382 -0.0148 -0.3211
18652THY    CA262365   7.985   2.792   4.348  0.0144 -0.2078 -0.1051
18652THY    CP162366   8.038   2.902   4.442  0.8620  0.1343  0.2307
18652THY    HP162367   8.002   2.998   4.404 -0.1849 -3.1937 -1.3257
18652THY    CP262368   8.191   2.915   4.472 -0.6157 -0.2377  0.8672
18652THY    HP262369   8.237   2.830   4.524 -0.3975 -0.9497  0.5397
18652THY    HP362370   8.221   3.002   4.531  2.6531 -1.2504  0.5466
18652THY    HP462371   8.258   2.919   4.386  0.8610  0.8368  0.1468
18652THY    CP362372   7.970   2.890   4.583  0.1665 -0.2925 -0.5996
18652THY    HP562373   7.860   2.884   4.579  0.1354  0.1733 -0.3830
18652THY    HP662374   8.001   2.979   4.638 -0.2907 -0.6039 -0.2416
18652THY    HP762375   8.007   2.798   4.630  1.7415 -0.0919  0.1027
18652THY    CA362376   8.006   2.655   4.379 -0.6982  0.1833  0.3264
18652THY    HA362377   8.070   2.628   4.461  0.8044 -1.3447 -0.9748
18652THY    CA462378   7.955   2.558   4.292  0.1061  0.1768 -0.1882
18652THY    HA462379   7.953   2.455   4.326 -3.2123  0.9956  0.0556
18652THY    CA562380   7.881   2.593   4.182  0.0159  0.2169 -0.3507
18652THY    CM162381   7.828   2.488   4.095  0.8807  0.7387  0.8619
18652THY    HM162382   7.829   2.522   3.991 -1.1161 -0.2366 -1.6866
18652THY    HM262383   7.727   2.450   4.117  1.6445  0.6792 -1.3731
18652THY    HM362384   7.896   2.403   4.109  1.2710  1.6769  1.3131
18652THY    CA662385   7.863   2.731   4.148 -0.3174 -0.3563  0.5141
18652THY    HA662386   7.818   2.760   4.053  0.1644 -0.4112  1.0935
18653THY      O62387   6.238   2.100   2.161  0.5907  0.0148  0.0864
18653THY     HO62388   6.275   2.045   2.090  0.4003 -0.6827  0.8350
18653THY    CA162389   6.319   2.212   2.169 -0.3766  0.3387  0.7097
18653THY    CA262390   6.301   2.318   2.264 -0.1329 -0.0381  0.8326
18653THY    CP162391   6.175   2.312   2.353 -0.3624  0.4833 -0.7704
18653THY    HP162392   6.114   2.222   2.335 -1.2140 -0.3366 -0.0531
18653THY    CP262393   6.093   2.446   2.326 -0.1607  0.1647 -0.1207
18653THY    HP262394   6.066   2.468   2.222 -0.2688 -0.1580 -1.6739
18653THY    HP362395   6.158   2.524   2.368 -1.1424  2.4847 -0.4538
18653THY    HP462396   6.003   2.447   2.390 -0.6537 -0.5076 -0.5734
18653THY    CP362397   6.227   2.303   2.498 -0.0777  0.2565  0.4469
18653THY    HP562398   6.301   2.381   2.521  0.5960  1.1579 -0.4322
18653THY    HP662399   6.255   2.198   2.514 -1.6208 -0.7551 -0.1526
18653THY    HP762400   6.144   2.325   2.566  1.1333  1.8264  0.3085
18653THY    CA362401   6.387   2.429   2.269  0.0307  0.3269  0.4487
18653THY    HA362402   6.375   2.515   2.335 -2.1088 -0.0631  0.5019
18653THY    CA462403   6.498   2.429   2.176  0.2525 -0.7351 -0.2564
18653THY    HA462404   6.562   2.517   2.175  1.4920 -0.5476 -1.1190
18653THY    CA562405   6.517   2.331   2.080  0.0325  0.4133  0.4415
18653THY    CM162406   6.614   2.338   1.958  0.1333 -0.3565 -0.1552
18653THY    HM162407   6.703   2.395   1.986 -0.1951  1.4096 -0.4468
18653THY    HM262408   6.572   2.388   1.869 -1.1162 -0.2257 -0.9250
18653THY    HM362409   6.655   2.242   1.926 -0.1105  0.7375 -0.6372
18653THY    CA662410   6.435   2.219   2.082  0.8097 -0.1489  0.1850
18653THY    HA662411   6.443   2.132   2.018 -0.9593 -0.1083 -0.0525
18654THY      O62412   5.780   6.176   4.135  0.3005  0.4251  0.1317
18654THY     HO62413   5.765   6.255   4.081  1.1443  0.4787  0.3419
18654THY    CA162414   5.734   6.076   4.064 -0.7770  0.1715  0.2661
18654THY    CA262415   5.813   5.957   4.055  0.2223 -0.1096  0.1504
18654THY    CP162416   5.925   5.933   4.146 -0.8763 -0.0315  0.5805
18654THY    HP162417   5.967   6.029   4.179  0.2612 -0.3415  0.2016
18654THY    CP262418   6.039   5.858   4.067 -0.6882  0.0725  0.0231
18654THY    HP262419   6.028   5.749   4.068 -0.0577  2.9381 -0.0897
18654THY    HP362420   6.129   5.871   4.128 -0.3252 -0.7783  1.7732
18654THY    HP462421   6.062   5.908   3.973  1.9230  0.3657 -0.5130
18654THY    CP362422   5.881   5.867   4.277 -1.2165  0.5019  0.0115
18654THY    HP562423   5.785   5.815   4.264 -1.9875  1.2570  1.1967
18654THY    HP662424   5.873   5.950   4.348  1.0950  0.6878  0.1512
18654THY    HP762425   5.958   5.797   4.311  1.5867 -2.5301  1.3367
18654THY    CA362426   5.764   5.848   3.976 -0.0684  0.3084  0.2540
18654THY    HA362427   5.814   5.751   3.975  1.3054 -1.0969  0.9173
18654THY    CA462428   5.645   5.868   3.898 -0.1377  0.3226 -0.9305
18654THY    HA462429   5.623   5.793   3.822  0.9765 -1.2264  0.2205
18654THY    CA562430   5.572   5.990   3.900  0.0468 -0.8432  0.4484
18654THY    CM162431   5.455   6.007   3.807  0.2602  0.0548  0.3465
18654THY    HM162432   5.473   6.082   3.730 -2.6770 -1.2323 -0.1568
18654THY    HM262433   5.368   6.043   3.863  0.1634  0.7071 -0.8582
18654THY    HM362434   5.434   5.912   3.757 -1.2976 -0.7674  1.0999
18654THY    CA662435   5.619   6.097   3.984  0.2772  1.0719  0.6121
18654THY    HA662436   5.564   6.190   3.992 -1.0443  1.2982 -0.1645
18655THY      O62437   8.122   6.480   2.340 -0.0299  0.1553  0.0207
18655THY     HO62438   8.182   6.494   2.264  0.2036  0.4345  0.5779
18655THY    CA162439   8.197   6.428   2.438  0.5485 -0.2476 -0.0817
18655THY    CA262440   8.150   6.378   2.558  0.1215 -0.1617  0.0351
18655THY    CP162441   8.001   6.393   2.590 -0.5146 -0.4139 -0.1319
18655THY    HP162442   7.951   6.480   2.546  0.8137  1.4984  1.6930
18655THY    CP262443   7.976   6.412   2.742  0.6551  0.2859  0.4993
18655THY    HP262444   7.979   6.318   2.798 -0.1972 -0.7492 -0.1740
18655THY    HP362445   7.876   6.453   2.757  0.7694  2.0266  0.2044
18655THY    HP462446   8.046   6.484   2.786  1.2000  0.8898 -0.3741
18655THY    CP362447   7.936   6.263   2.544  0.0182  0.0531 -0.2681
18655THY    HP562448   7.827   6.273   2.556  0.1990  0.0324  2.9741
18655THY    HP662449   7.974   6.168   2.584  1.5624 -2.0343 -0.6052
18655THY    HP762450   7.931   6.249   2.435  0.9022  0.1485 -1.4300
18655THY    CA362451   8.229   6.308   2.648 -0.3054 -0.2628  0.3152
18655THY    HA362452   8.189   6.269   2.741  0.6991 -0.1870 -0.5793
18655THY    CA462453   8.358   6.281   2.606 -0.4999  0.4207  0.1397
18655THY    HA462454   8.427   6.217   2.660  1.2650 -1.3306  0.4813
18655THY    CA562455   8.409   6.334   2.491  0.0767  0.2172 -0.2278
18655THY    CM162456   8.556   6.323   2.458  0.1348 -0.6630  0.3615
18655THY    HM162457   8.611   6.299   2.550 -1.1151  1.0179  3.2604
18655THY    HM262458   8.595   6.415   2.413  0.1940 -2.4941 -0.5303
18655THY    HM362459   8.565   6.239   2.389 -0.0664  0.1596 -0.3488
18655THY    CA662460   8.330   6.412   2.411  0.0573 -0.3405 -0.7031
18655THY    HA662461   8.381   6.447   2.322 -0.3697 -0.6218 -0.7904
18656THY      O62462   1.294   2.503   2.490 -0.3332  0.8179 -0.2673
18656THY     HO62463   1.212   2.481   2.537 -0.6903 -0.0699 -0.8889
18656THY    CA162464   1.271   2.609   2.408 -0.2451  0.1227  0.3167
18656THY    CA262465   1.372   2.660   2.331  0.7447  0.3067  0.2272
18656THY    CP162466   1.513   2.604   2.340  0.0184  0.4398 -0.1461
18656THY    HP162467   1.517   2.512   2.400  1.1075 -0.5822 -0.7958
18656THY    CP262468   1.609   2.713   2.401 -0.1627  0.4758  0.1109
18656THY    HP262469   1.701   2.664   2.436 -1.4408  1.5253 -1.6847
18656THY    HP362470   1.549   2.765   2.477 -0.8008  0.4923 -0.6309
18656THY    HP462471   1.639   2.774   2.315 -0.2536  0.2074 -0.2182
18656THY    CP362472   1.564   2.555   2.198  0.3840  0.1856 -0.3613
18656THY    HP562473   1.589   2.642   2.137  3.3065  3.0573  1.0299
18656THY    HP662474   1.487   2.489   2.157 -0.0996  1.9178 -0.9409
18656THY    HP762475   1.658   2.503   2.221 -0.5459  2.6031 -1.1282
18656THY    CA362476   1.339   2.768   2.238  0.1764  0.1281  0.3785
18656THY    HA362477   1.419   2.810   2.178  1.0664 -0.9381 -2.5830
18656THY    CA462478   1.209   2.820   2.238  0.1397 -0.2603 -0.2457
18656THY    HA462479   1.191   2.914   2.186 -2.3982  1.0240  0.0653
18656THY    CA562480   1.111   2.770   2.324  0.0824 -0.2739  0.5536
18656THY    CM162481   0.969   2.812   2.322  0.6020  0.2021  0.0223
18656THY    HM162482   0.918   2.805   2.419 -1.9156 -0.9790  0.8744
18656THY    HM262483   0.908   2.761   2.247 -0.3837  0.9169  0.1345
18656THY    HM362484   0.963   2.917   2.293 -0.4452  0.3531  0.0117
18656THY    CA662485   1.151   2.664   2.404  0.4462  0.5721 -0.7995
18656THY    HA662486   1.073   2.624   2.468  0.7103  2.1897  1.1154
18657THY      O62487   3.692   2.843   7.153  0.3436  0.0974 -0.3105
18657THY     HO62488   3.762   2.909   7.141 -0.9010 -0.4774  0.9413
18657THY    CA162489   3.588   2.912   7.216 -0.0655  0.2221  0.0233
18657THY    CA262490   3.466   2.854   7.259  0.3015  0.4874 -0.1500
18657THY    CP162491   3.432   2.715   7.214 -0.0260  0.1802  0.3403
18657THY    HP162492   3.525   2.663   7.189 -0.2942 -3.2518  1.3118
18657THY    CP262493   3.351   2.716   7.078 -0.0178  0.0017  0.4323
18657THY    HP262494   3.312   2.618   7.047  1.3287 -3.5875  0.8633
18657THY    HP362495   3.417   2.744   6.995 -0.0775  0.2395  1.3136
18657THY    HP462496   3.270   2.789   7.075 -0.4194 -1.6788 -0.0480
18657THY    CP362497   3.357   2.632   7.319 -0.4835  0.0221  0.1261
18657THY    HP562498   3.400   2.672   7.411  1.5706 -1.3040  1.1654
18657THY    HP662499   3.386   2.526   7.317  1.4784  0.9636  0.6015
18657THY    HP762500   3.248   2.647   7.322 -0.1460  1.1216  2.9405
18657THY    CA362501   3.386   2.934   7.349 -0.1037  0.1112  0.5582
18657THY    HA362502   3.291   2.904   7.391  0.3118  0.5515 -0.1793
18657THY    CA462503   3.433   3.059   7.392  0.4579 -0.5914  0.2990
18657THY    HA462504   3.364   3.117   7.452 -2.4203 -2.8051 -0.5803
18657THY    CA562505   3.544   3.116   7.331 -0.2468 -0.0815  0.0634
18657THY    CM162506   3.580   3.256   7.370  0.0941 -0.4283  0.4512
18657THY    HM162507   3.651   3.291   7.294  0.4107 -0.4416 -0.2084
18657THY    HM262508   3.641   3.258   7.461  0.9638 -1.0106  2.0145
18657THY    HM362509   3.501   3.326   7.400  1.6159 -2.6415  3.3383
18657THY    CA662510   3.629   3.036   7.256 -0.5060 -0.1920 -0.2209
18657THY    HA662511   3.724   3.081   7.226 -0.1960 -1.5546 -1.6705
18658THY      O62512   0.459   3.153   5.743 -0.2214  0.5485 -0.2601
18658THY     HO62513   0.371   3.141   5.703 -0.7110  1.4378  0.2086
18658THY    CA162514   0.436   3.137   5.878  0.6242  0.2096  0.4331
18658THY    CA262515   0.504   3.205   5.976 -0.2405 -0.9570 -0.0894
18658THY    CP162516   0.626   3.297   5.933  1.1884 -0.3012 -0.5029
18658THY    HP162517   0.651   3.271   5.830  0.2878 -0.1923 -1.8782
18658THY    CP262518   0.747   3.282   6.021  0.4485 -0.0240  0.2927
18658THY    HP262519   0.781   3.178   6.011  0.3092 -0.3067  0.2753
18658THY    HP362520   0.727   3.288   6.129 -1.4787 -0.3100 -0.4600
18658THY    HP462521   0.830   3.349   5.994  1.1627 -0.8444 -0.8744
18658THY    CP362522   0.573   3.441   5.938 -0.0733 -0.7989 -0.3092
18658THY    HP562523   0.487   3.453   5.871 -0.3988 -0.2263  0.6798
18658THY    HP662524   0.655   3.500   5.895  1.1556  0.4240 -1.0805
18658THY    HP762525   0.559   3.474   6.042  0.6192 -0.7830 -0.0457
18658THY    CA362526   0.458   3.192   6.112  0.5010 -0.0255 -0.9139
18658THY    HA362527   0.508   3.252   6.187 -1.3167 -0.4743  1.2823
18658THY    CA462528   0.354   3.107   6.147 -0.2880  0.3466  0.8278
18658THY    HA462529   0.320   3.095   6.250 -1.1422  0.0084  0.2411
18658THY    CA562530   0.295   3.023   6.045 -0.5563 -0.2314  0.0547
18658THY    CM162531   0.195   2.927   6.094 -0.8168  0.2720 -0.1210
18658THY    HM162532   0.219   2.917   6.200 -0.2628  0.3848  1.8868
18658THY    HM262533   0.195   2.827   6.050  1.7486 -0.1833  0.0069
18658THY    HM362534   0.092   2.961   6.080 -0.3815  0.1951  1.2358
18658THY    CA662535   0.344   3.035   5.913  0.5987 -0.8466 -0.1330
18658THY    HA662536   0.284   2.981   5.840  0.9401 -1.4273  0.2640
18659THY      O62537   8.707   8.500   6.633  0.2821  0.1506 -0.7017
18659THY     HO62538   8.726   8.405   6.640  2.1459 -0.8779 -0.4455
18659THY    CA162539   8.734   8.539   6.507 -1.0224 -0.9791 -0.1159
18659THY    CA262540   8.739   8.674   6.467  0.4537 -0.1121  0.3536
18659THY    CP162541   8.671   8.788   6.551  0.0595  0.3621 -0.6106
18659THY    HP162542   8.611   8.734   6.626  1.7890  2.4159  0.1905
18659THY    CP262543   8.578   8.871   6.467 -0.3148 -0.1597 -0.5284
18659THY    HP262544   8.645   8.911   6.390 -0.1353  0.4403  0.3600
18659THY    HP362545   8.542   8.954   6.530 -0.2712  1.0224 -1.3735
18659THY    HP462546   8.490   8.815   6.432 -1.5061  0.7408  0.7032
18659THY    CP362547   8.775   8.885   6.612 -0.8985  0.4080  0.6214
18659THY    HP562548   8.844   8.829   6.676 -0.6481 -0.4436 -0.0661
18659THY    HP662549   8.730   8.960   6.679 -1.0525  2.3508 -1.1231
18659THY    HP762550   8.840   8.931   6.537  0.2440  0.5675 -0.6803
18659THY    CA362551   8.803   8.700   6.346 -0.5601 -0.0217 -0.1734
18659THY    HA362552   8.815   8.802   6.311  1.5059  0.5407 -0.1590
18659THY    CA462553   8.843   8.599   6.254 -0.0023 -0.4291  0.9797
18659THY    HA462554   8.892   8.621   6.160 -0.4668 -0.7628  0.6132
18659THY    CA562555   8.826   8.463   6.291  1.3177 -0.8917 -0.8822
18659THY    CM162556   8.867   8.357   6.194  0.1442  1.0079 -0.4775
18659THY    HM162557   8.829   8.257   6.220 -1.1987  1.7080  0.1901
18659THY    HM262558   8.975   8.345   6.197 -0.0666  2.1413 -2.5822
18659THY    HM362559   8.830   8.385   6.094 -0.1000  0.6951 -1.8412
18659THY    CA662560   8.775   8.440   6.420 -0.0119  0.3648  0.7515
18659THY    HA662561   8.767   8.334   6.441 -1.5329  0.2376  0.8113
18660THY      O62562   5.572   2.555   5.073 -0.2918 -0.0650  0.0292
18660THY     HO62563   5.568   2.596   5.161  0.7735  0.3171 -0.6459
18660THY    CA162564   5.443   2.537   5.027 -0.0719  0.0939  0.4613
18660THY    CA262565   5.424   2.507   4.888  0.1790  0.2335 -0.1501
18660THY    CP162566   5.541   2.505   4.783 -0.2355 -0.9178  0.3880
18660THY    HP162567   5.625   2.456   4.834  0.1049 -0.9034  0.9746
18660THY    CP262568   5.580   2.641   4.739  0.3525  0.2877  0.3896
18660THY    HP262569   5.633   2.695   4.818  0.8124 -0.4154  0.9719
18660THY    HP362570   5.488   2.695   4.713  0.1807 -1.2165 -0.5729
18660THY    HP462571   5.647   2.637   4.653  0.6630  0.4652  1.4910
18660THY    CP362572   5.516   2.418   4.652 -0.1936  0.6382 -0.9012
18660THY    HP562573   5.615   2.380   4.623 -0.7991 -1.1984 -1.1639
18660THY    HP662574   5.470   2.472   4.569 -1.4947 -0.1778 -3.1084
18660THY    HP762575   5.454   2.329   4.669 -2.4740 -1.1994  0.2349
18660THY    CA362576   5.290   2.476   4.850  0.8007 -0.0301 -0.3467
18660THY    HA362577   5.273   2.448   4.746 -0.6271 -0.1033  0.6697
18660THY    CA462578   5.186   2.476   4.943 -0.0553  0.0063 -0.3009
18660THY    HA462579   5.083   2.456   4.918 -0.1035  0.2944 -0.4162
18660THY    CA562580   5.207   2.513   5.082 -0.0265 -0.0834  0.3905
18660THY    CM162581   5.089   2.524   5.176  0.7666 -0.3837 -0.2708
18660THY    HM162582   5.012   2.582   5.123  1.1642 -2.0288 -1.1942
18660THY    HM262583   5.123   2.579   5.265  1.7403 -0.3466 -0.9122
18660THY    HM362584   5.044   2.426   5.195 -2.9387 -0.6792  1.2186
18660THY    CA662585   5.341   2.544   5.120  0.8117 -0.4886 -0.4646
18660THY    HA662586   5.353   2.570   5.225 -3.4782  0.2510 -0.6701
18661THY      O62587   1.232   4.209   6.520 -0.2782 -0.3314  0.3138
18661THY     HO62588   1.269   4.287   6.474  0.4880  0.8077  0.6390
18661THY    CA162589   1.104   4.251   6.539  0.1963 -0.3533 -0.6431
18661THY    CA262590   1.032   4.192   6.644  0.1647 -0.5496  1.0265
18661THY    CP162591   1.087   4.070   6.709 -0.2367 -0.3479  0.4859
18661THY    HP162592   1.145   4.003   6.645  1.3883  1.8963 -0.3657
18661THY    CP262593   0.979   3.980   6.764  0.1652 -0.2313 -0.0373
18661THY    HP262594   1.015   3.878   6.781  0.5251 -1.4042 -0.1266
18661THY    HP362595   0.896   3.982   6.692 -2.5635  2.6882  0.9253
18661THY    HP462596   0.941   4.012   6.862 -0.6914  0.0876 -1.8903
18661THY    CP362597   1.177   4.112   6.826 -0.0603 -0.5165  0.6818
18661THY    HP562598   1.133   4.188   6.892  1.0348  0.6105  0.3647
18661THY    HP662599   1.265   4.168   6.791 -0.7162 -2.3969  0.6256
18661THY    HP762600   1.219   4.025   6.877 -0.4517 -2.8510 -0.9460
18661THY    CA362601   0.909   4.253   6.686 -0.7136 -0.0767  0.2809
18661THY    HA362602   0.855   4.208   6.769  0.6471  0.0622 -1.2058
18661THY    CA462603   0.863   4.365   6.620 -1.0163  0.2024 -0.5320
18661THY    HA462604   0.766   4.410   6.638 -0.2114 -1.0839  1.9662
18661THY    CA562605   0.937   4.420   6.513  0.5205  0.0674 -0.2414
18661THY    CM162606   0.905   4.555   6.455  0.1047 -0.0132 -0.7062
18661THY    HM162607   0.810   4.543   6.401 -0.4896  0.0868  2.5239
18661THY    HM262608   0.969   4.604   6.381 -0.1856  0.3848  0.2987
18661THY    HM362609   0.884   4.628   6.534 -0.4450 -1.9392  1.3670
18661THY    CA662610   1.058   4.366   6.476  0.1508  0.3021 -0.2341
18661THY    HA662611   1.118   4.422   6.405  0.0015  0.3127 -0.0590
18662THY      O62612   1.598   4.857   3.317 -0.7372 -0.4678 -0.1790
18662THY     HO62613   1.602   4.885   3.225  0.6644 -0.2468  0.4049
18662THY    CA162614   1.726   4.880   3.369 -0.2344 -0.1311  0.1404
18662THY    CA262615   1.771   4.813   3.482  0.1167 -0.2135 -0.1357
18662THY    CP162616   1.669   4.713   3.546 -0.7120  0.3208  0.9188
18662THY    HP162617   1.597   4.663   3.480  0.0458  1.3524 -1.7053
18662THY    CP262618   1.586   4.791   3.648 -0.5513 -0.1134 -0.0467
18662THY    HP262619   1.558   4.892   3.618  1.4459  1.8854  1.1992
18662THY    HP362620   1.635   4.797   3.745 -1.9182  0.6726 -0.9750
18662THY    HP462621   1.498   4.726   3.652 -0.1973 -0.3651 -0.5495
18662THY    CP362622   1.750   4.593   3.613 -0.5515  0.7146  0.1109
18662THY    HP562623   1.680   4.515   3.646  0.8089  1.1875 -0.9525
18662THY    HP662624   1.811   4.630   3.696 -0.3380 -0.2144  1.9420
18662THY    HP762625   1.818   4.551   3.538 -2.3473 -0.4141 -0.9573
18662THY    CA362626   1.893   4.843   3.538 -0.0220 -0.2051 -0.6445
18662THY    HA362627   1.916   4.794   3.633 -1.9299 -0.2138 -1.6377
18662THY    CA462628   1.978   4.931   3.472  0.2279  0.5182 -0.5075
18662THY    HA462629   2.073   4.944   3.523 -1.1374  3.5201 -1.4787
18662THY    CA562630   1.934   4.999   3.353 -0.7091 -0.8975  0.1908
18662THY    CM162631   2.027   5.073   3.273  0.1346  0.0476 -0.2423
18662THY    HM162632   1.972   5.164   3.246  0.1151 -0.6171 -0.4421
18662THY    HM262633   2.062   5.019   3.184  1.4634 -1.5281  2.9719
18662THY    HM362634   2.112   5.104   3.333  2.0943 -2.2145 -0.9135
18662THY    CA662635   1.808   4.976   3.308  0.6139 -0.0996 -0.5494
18662THY    HA662636   1.775   5.028   3.218  2.4039 -1.1029 -1.0299
18663THY      O62637   6.821   7.644   5.680 -0.2241  0.0521  0.0094
18663THY     HO62638   6.788   7.732   5.704 -0.4548 -2.1986  0.6022
18663THY    CA162639   6.730   7.592   5.583 -0.0121 -0.6420  0.1081
18663THY    CA262640   6.650   7.480   5.612 -0.0590  0.1056  0.3207
18663THY    CP162641   6.669   7.390   5.730  0.1212 -0.0196 -0.3195
18663THY    HP162642   6.748   7.430   5.794  1.1264 -0.8958 -0.8467
18663THY    CP262643   6.716   7.254   5.677 -0.7829 -0.1103 -0.7991
18663THY    HP262644   6.658   7.219   5.591 -0.2506 -0.4586 -0.8266
18663THY    HP362645   6.705   7.184   5.761  1.0989 -0.1264 -1.1696
18663THY    HP462646   6.822   7.247   5.649 -0.7314  0.3736 -2.1518
18663THY    CP362647   6.544   7.363   5.818 -0.5940 -0.6916  0.2107
18663THY    HP562648   6.574   7.344   5.921 -0.1225 -1.0214 -0.8704
18663THY    HP662649   6.475   7.287   5.781 -1.4209 -3.2378  2.0531
18663THY    HP762650   6.484   7.455   5.827 -1.0106  0.3253 -0.1478
18663THY    CA362651   6.535   7.456   5.537  0.1800 -0.4199  0.3799
18663THY    HA362652   6.459   7.385   5.568 -1.4270 -2.3667  1.1407
18663THY    CA462653   6.518   7.534   5.421 -0.0155 -0.1070  0.1069
18663THY    HA462654   6.439   7.511   5.351 -1.5993  0.9487  2.0434
18663THY    CA562655   6.600   7.642   5.390  0.0968  0.2345 -0.7518
18663THY    CM162656   6.566   7.732   5.272 -0.0892 -0.3872  0.1130
18663THY    HM162657   6.485   7.684   5.216  1.5529 -1.1396 -1.9701
18663THY    HM262658   6.657   7.738   5.211  0.3633  0.1023 -1.2346
18663THY    HM362659   6.541   7.833   5.307  2.0998 -2.0379  1.3016
18663THY    CA662660   6.709   7.666   5.468  0.3244 -1.4349 -1.7344
18663THY    HA662661   6.772   7.755   5.465  0.9854  1.5982 -1.9790
18664THY      O62662   7.354   3.631   5.923  0.4468  0.2992  0.3748
18664THY     HO62663   7.437   3.639   5.873  0.4145 -0.2019 -1.6580
18664THY    CA162664   7.350   3.508   5.980  0.3312  0.1459  0.1920
18664THY    CA262665   7.228   3.453   6.033  0.1014 -0.1641 -0.1006
18664THY    CP162666   7.088   3.513   6.002  0.0016 -0.3781  0.4510
18664THY    HP162667   7.093   3.612   5.955  0.1903 -0.3998  0.4300
18664THY    CP262668   7.017   3.561   6.138  0.1331  0.5946  0.8203
18664THY    HP262669   7.077   3.634   6.195 -1.2770  2.8262  0.3381
18664THY    HP362670   6.994   3.483   6.211 -0.5704 -0.3991  0.0795
18664THY    HP462671   6.928   3.620   6.113  0.1169  1.2871  1.0967
18664THY    CP362672   6.994   3.426   5.916 -0.7812 -0.3572  0.0424
18664THY    HP562673   7.046   3.418   5.820  1.8297  0.9347  0.3360
18664THY    HP662674   6.896   3.473   5.905 -0.4004 -0.4874  0.8249
18664THY    HP762675   6.977   3.321   5.944  0.1401  1.0670  0.2452
18664THY    CA362676   7.236   3.325   6.090  0.4736 -0.2044  0.3149
18664THY    HA362677   7.146   3.269   6.116  0.9014 -0.4433 -0.4969
18664THY    CA462678   7.353   3.251   6.093 -0.1012  0.0091  0.4501
18664THY    HA462679   7.343   3.144   6.105 -0.3624 -1.0386  0.3508
18664THY    CA562680   7.467   3.315   6.053 -0.2226 -0.2331 -0.3689
18664THY    CM162681   7.591   3.239   6.076 -0.5961 -0.0443 -0.2571
18664THY    HM162682   7.588   3.132   6.050  0.4642  0.0013 -0.3102
18664THY    HM262683   7.630   3.244   6.179  1.5942 -0.6993 -2.0450
18664THY    HM362684   7.665   3.275   6.004 -0.5372  0.2819  0.2841
18664THY    CA662685   7.470   3.443   5.995  0.0281 -0.5384  0.6793
18664THY    HA662686   7.564   3.481   5.957  0.8393 -0.0383 -0.7562
18665THY      O62687   4.097   1.989   6.709 -0.3900  0.2124  0.1760
18665THY     HO62688   4.020   1.981   6.769 -0.6553 -0.1687 -0.1733
18665THY    CA162689   4.181   1.891   6.749  0.3928  0.3608  0.3957
18665THY    CA262690   4.313   1.889   6.701  0.0142 -0.4068 -0.8918
18665THY    CP162691   4.369   1.997   6.600 -0.2251 -1.0266  0.4006
18665THY    HP162692   4.294   2.062   6.552  0.5519 -0.8643  1.4425
18665THY    CP262693   4.443   1.921   6.485 -0.3710 -0.4210 -0.0426
18665THY    HP262694   4.540   1.874   6.506 -0.7577  2.5039  0.2633
18665THY    HP362695   4.449   2.006   6.417 -0.2693  0.0482  0.3285
18665THY    HP462696   4.373   1.854   6.434 -0.4573 -0.7826  0.3244
18665THY    CP362697   4.453   2.099   6.669 -0.9494  0.6223 -0.1644
18665THY    HP562698   4.557   2.065   6.683 -0.1637 -2.5085  0.5733
18665THY    HP662699   4.403   2.127   6.762 -0.0340  0.6333  1.5460
18665THY    HP762700   4.451   2.183   6.599  0.1581  0.7887  0.0258
18665THY    CA362701   4.399   1.792   6.758 -0.5703  0.1974  0.1391
18665THY    HA362702   4.501   1.778   6.723 -0.0081  1.9987 -0.5278
18665THY    CA462703   4.357   1.706   6.858 -0.0837  0.8550  0.3829
18665THY    HA462704   4.428   1.632   6.895 -0.7586 -1.2754 -1.4417
18665THY    CA562705   4.222   1.707   6.902  0.3140  1.2406 -0.1072
18665THY    CM162706   4.173   1.610   6.991  0.6256  0.0854 -0.5496
18665THY    HM162707   4.217   1.602   7.091  1.3319  0.0917  2.2405
18665THY    HM262708   4.178   1.511   6.944 -0.1521 -0.0296 -0.5445
18665THY    HM362709   4.067   1.627   7.014  0.2600 -2.1493  0.5337
18665THY    CA662710   4.138   1.798   6.839  0.6457  0.4105 -0.0982
18665THY    HA662711   4.032   1.794   6.863  0.2400 -1.3545 -0.5032
18666THY      O62712   0.655   3.979   5.200  0.1674  0.5139 -0.1452
18666THY     HO62713   0.579   3.923   5.179 -0.4403 -0.4567  1.0143
18666THY    CA162714   0.685   4.032   5.079 -0.4479  0.1892 -0.0289
18666THY    CA262715   0.708   4.166   5.056  0.1256 -0.6827 -0.7174
18666THY    CP162716   0.713   4.266   5.175 -0.7528 -0.0386 -0.6058
18666THY    HP162717   0.725   4.219   5.273  2.6752  0.1767  0.4673
18666THY    CP262718   0.580   4.338   5.166 -0.5229  0.1949 -0.0498
18666THY    HP262719   0.575   4.404   5.253 -1.7001 -0.1695  0.3641
18666THY    HP362720   0.495   4.270   5.178  0.1595 -1.1000 -1.2057
18666THY    HP462721   0.569   4.385   5.067 -0.6483  0.2547  0.0438
18666THY    CP362722   0.833   4.372   5.164  0.0728  0.6640 -0.2309
18666THY    HP562723   0.858   4.410   5.264  0.4475  0.5981 -0.2985
18666THY    HP662724   0.810   4.451   5.092  2.2372 -0.5233 -0.5995
18666THY    HP762725   0.918   4.318   5.120  1.0244  0.0334  1.7034
18666THY    CA362726   0.732   4.214   4.931 -0.5543  0.3396 -0.6273
18666THY    HA362727   0.754   4.319   4.916  0.7711 -0.3539 -0.9818
18666THY    CA462728   0.735   4.119   4.824 -0.3470 -0.2592  0.1142
18666THY    HA462729   0.760   4.157   4.725 -1.5022 -0.3771  0.6217
18666THY    CA562730   0.732   3.980   4.852  0.5714 -0.6232 -0.8422
18666THY    CM162731   0.768   3.875   4.760  0.0964  0.0752 -0.0485
18666THY    HM162732   0.856   3.820   4.795 -0.3623  0.3098 -0.6394
18666THY    HM262733   0.773   3.908   4.655  0.4342 -0.4217 -1.5766
18666THY    HM362734   0.686   3.803   4.767 -0.7386  0.4816  0.9303
18666THY    CA662735   0.694   3.936   4.979 -0.2327 -0.3220 -0.2611
18666THY    HA662736   0.698   3.830   4.999  0.8503 -0.9489 -0.3558
18667THY      O62737   8.424   2.643   3.673 -0.5371 -0.1411 -0.2239
18667THY     HO62738   8.431   2.736   3.645  0.0742  2.5103  0.6036
18667THY    CA162739   8.343   2.650   3.785 -0.7875 -0.7926 -0.4718
18667THY    CA262740   8.223   2.589   3.792 -0.2166 -0.5460  0.3171
18667THY    CP162741   8.163   2.512   3.680  0.2955  0.3328 -0.2988
18667THY    HP162742   8.215   2.548   3.590  0.8750  0.9434  0.4268
18667THY    CP262743   8.015   2.544   3.647  0.1040  0.0016 -0.5072
18667THY    HP262744   8.009   2.648   3.614 -1.1975 -1.4831 -1.0121
18667THY    HP362745   7.951   2.522   3.732  1.2765  0.9267 -0.4720
18667THY    HP462746   7.976   2.484   3.564  0.0818 -1.5523  1.5263
18667THY    CP362747   8.176   2.367   3.685 -0.6202 -0.0917  1.0368
18667THY    HP562748   8.122   2.315   3.765 -0.3980 -0.4924  0.1559
18667THY    HP662749   8.281   2.338   3.703 -0.7423  3.5646  2.3185
18667THY    HP762750   8.158   2.323   3.587 -0.0353 -0.1062  0.8185
18667THY    CA362751   8.141   2.605   3.907  0.0824 -0.2793 -1.2617
18667THY    HA362752   8.044   2.557   3.920  1.0889  1.6212 -2.9370
18667THY    CA462753   8.186   2.690   4.011  0.5333 -0.0099  1.1607
18667THY    HA462754   8.137   2.713   4.105  4.1300  2.0254  1.2583
18667THY    CA562755   8.309   2.752   4.001  0.1498 -0.5528  0.2865
18667THY    CM162756   8.359   2.824   4.121 -0.5014 -0.7843  0.1666
18667THY    HM162757   8.294   2.810   4.209  0.2128 -0.3889 -0.7529
18667THY    HM262758   8.368   2.932   4.106 -0.1552 -0.7914  0.1392
18667THY    HM362759   8.455   2.782   4.154 -0.4544  1.2254  1.6841
18667THY    CA662760   8.387   2.738   3.890  0.3826 -0.5217 -0.2618
18667THY    HA662761   8.486   2.781   3.886  0.4732  2.0449 -0.1056
18668THY      O62762   5.378   5.487   5.120 -1.1332 -0.1944  0.1273
18668THY     HO62763   5.470   5.472   5.092 -0.2290  2.1994  0.7628
18668THY    CA162764   5.353   5.607   5.063 -0.3264  0.2615 -0.5833
18668THY    CA262765   5.253   5.688   5.114 -0.4149 -0.8141 -0.0219
18668THY    CP162766   5.164   5.651   5.228  0.1320 -0.4549  0.2898
18668THY    HP162767   5.189   5.547   5.254  2.7316  0.8019  1.1321
18668THY    CP262768   5.014   5.654   5.209 -1.0723 -0.3667 -0.1418
18668THY    HP262769   4.958   5.634   5.301 -0.9031 -0.1386  0.4088
18668THY    HP362770   4.997   5.568   5.144 -1.7075  2.7955 -2.5923
18668THY    HP462771   4.989   5.755   5.175  1.4241  0.6308  0.8958
18668THY    CP362772   5.198   5.730   5.357 -0.3275  0.0641 -0.2026
18668THY    HP562773   5.173   5.836   5.358  1.1665 -0.0232  0.1748
18668THY    HP662774   5.306   5.721   5.375 -0.3485  0.2167 -0.1607
18668THY    HP762775   5.152   5.689   5.448  1.4430  1.2540  0.3346
18668THY    CA362776   5.247   5.819   5.073 -0.0082 -0.2062  0.8297
18668THY    HA362777   5.180   5.891   5.119  1.6679  3.2256  0.3939
18668THY    CA462778   5.315   5.858   4.954  0.2198 -0.1482  0.5496
18668THY    HA462779   5.295   5.957   4.913 -0.3402 -1.5272 -0.1272
18668THY    CA562780   5.413   5.778   4.895  0.1736 -0.5373 -0.2708
18668THY    CM162781   5.480   5.826   4.772 -0.6340  0.0976  0.0220
18668THY    HM162782   5.580   5.864   4.797 -0.1708  0.3824 -1.3422
18668THY    HM262783   5.436   5.909   4.716  0.3031  0.1331  0.5676
18668THY    HM362784   5.488   5.749   4.695 -4.5019 -1.2126  0.6876
18668THY    CA662785   5.434   5.651   4.954 -0.0390  0.2235  0.4265
18668THY    HA662786   5.503   5.582   4.906  0.1532 -0.3282  1.0002
18669THY      O62787   0.994   4.489   7.289 -0.1368 -0.2207  0.4323
18669THY     HO62788   0.951   4.574   7.273 -3.4477 -0.3805 -1.1056
18669THY    CA162789   0.925   4.395   7.219  0.9318  0.1399 -0.2834
18669THY    CA262790   0.970   4.263   7.198 -0.1738  0.0281  0.4354
18669THY    CP162791   1.103   4.216   7.269 -0.1503 -0.5602 -0.9078
18669THY    HP162792   1.114   4.275   7.361  0.2657 -0.7522 -0.6824
18669THY    CP262793   1.232   4.247   7.189 -0.1450  0.3862  0.0764
18669THY    HP262794   1.317   4.228   7.255  1.3146 -1.9673 -2.1090
18669THY    HP362795   1.236   4.355   7.171 -1.5028 -1.3488 -0.1235
18669THY    HP462796   1.247   4.182   7.103  2.1971 -0.2810  1.3753
18669THY    CP362797   1.103   4.072   7.316 -0.3110 -0.1987 -0.2243
18669THY    HP562798   1.140   4.001   7.241  1.0975  1.1261 -0.9667
18669THY    HP662799   1.001   4.044   7.342 -0.8141 -2.6057 -0.8285
18669THY    HP762800   1.172   4.052   7.400 -2.2218  1.1566 -1.4829
18669THY    CA362801   0.902   4.172   7.115  0.2342  0.3923 -0.7295
18669THY    HA362802   0.953   4.079   7.092  0.4262  2.4032 -1.1763
18669THY    CA462803   0.786   4.215   7.052  0.4845 -0.8438  0.4800
18669THY    HA462804   0.734   4.149   6.984 -0.5686  0.3008  0.0877
18669THY    CA562805   0.732   4.342   7.078 -0.2980  0.1943  0.1605
18669THY    CM162806   0.617   4.392   6.992  0.1766 -0.5291 -0.4754
18669THY    HM162807   0.565   4.299   6.966  1.6397  0.1371 -1.5286
18669THY    HM262808   0.651   4.456   6.910 -1.3315 -1.0184 -0.2502
18669THY    HM362809   0.555   4.454   7.057  0.3959  0.7878 -1.5850
18669THY    CA662810   0.804   4.433   7.161  0.2371 -0.5537 -0.3948
18669THY    HA662811   0.759   4.531   7.175 -1.0224 -0.8097 -0.9147
18670THY      O62812   4.988   3.528   4.971  0.4478 -0.3038  0.4159
18670THY     HO62813   5.044   3.466   5.022  0.2679  1.7597  1.8477
18670THY    CA162814   4.862   3.512   5.018 -0.0786  0.0994  0.1200
18670THY    CA262815   4.749   3.575   4.958  0.5792 -0.0301 -0.1825
18670THY    CP162816   4.742   3.649   4.826  0.1030 -0.1841 -0.3604
18670THY    HP162817   4.842   3.652   4.780  0.2203  0.0623  2.0146
18670THY    CP262818   4.681   3.798   4.839 -0.6504 -0.3696  0.2578
18670THY    HP262819   4.599   3.808   4.911 -1.1378 -0.8744 -0.0238
18670THY    HP362820   4.647   3.825   4.739 -1.8645 -0.3472 -1.0370
18670THY    HP462821   4.752   3.876   4.866  0.8316 -0.7754 -0.9010
18670THY    CP362822   4.664   3.573   4.727  0.0744  0.1728 -1.2325
18670THY    HP562823   4.567   3.535   4.758 -0.1223  0.3885 -0.5656
18670THY    HP662824   4.716   3.481   4.696 -1.0492 -1.0550 -1.4878
18670THY    HP762825   4.655   3.621   4.629 -1.5839  1.0300  0.2693
18670THY    CA362826   4.624   3.559   5.025 -0.1671 -0.4824 -0.3702
18670THY    HA362827   4.538   3.603   4.975 -1.4804 -1.6969 -3.9465
18670THY    CA462828   4.617   3.483   5.140 -0.2090  0.9104 -0.0087
18670THY    HA462829   4.524   3.463   5.191 -1.0974  0.6917  3.0994
18670THY    CA562830   4.730   3.430   5.201  0.0125 -0.4608 -0.2873
18670THY    CM162831   4.714   3.347   5.339  0.3799 -0.1757  0.3905
18670THY    HM162832   4.670   3.404   5.421 -0.6926  0.6935 -1.5717
18670THY    HM262833   4.812   3.318   5.378  1.0745 -2.2729 -0.3178
18670THY    HM362834   4.649   3.260   5.325 -1.0436  0.8857  1.2511
18670THY    CA662835   4.856   3.446   5.143 -0.7222 -0.4562  1.0363
18670THY    HA662836   4.942   3.403   5.192 -1.4460  0.1747  0.2774
18671THY      O62837   1.646   0.553   6.146  0.5354 -0.1798 -0.4917
18671THY     HO62838   1.581   0.497   6.192  0.2663  0.2149  0.1389
18671THY    CA162839   1.569   0.652   6.097  0.3009 -0.3936  0.0786
18671THY    CA262840   1.630   0.755   6.021  0.0559  0.8151  0.4737
18671THY    CP162841   1.785   0.762   6.000  0.2627  0.3756  0.3230
18671THY    HP162842   1.830   0.694   6.074 -0.0633  1.8169  1.6228
18671THY    CP262843   1.841   0.902   6.004 -0.2327 -0.8204  0.2949
18671THY    HP262844   1.804   0.953   6.094  1.4399  0.0121  0.1037
18671THY    HP362845   1.826   0.955   5.910  0.5126  0.0972  2.2468
18671THY    HP462846   1.948   0.900   6.029 -0.8667  2.4192 -1.0969
18671THY    CP362847   1.819   0.692   5.861 -0.4850  0.2036 -0.7405
18671THY    HP562848   1.773   0.592   5.872 -0.6575  0.0403 -0.6789
18671THY    HP662849   1.924   0.687   5.830 -0.2851  0.8964 -1.0277
18671THY    HP762850   1.763   0.738   5.779 -2.9222  0.8942 -2.2758
18671THY    CA362851   1.538   0.848   5.964  1.0393 -0.0676 -0.4284
18671THY    HA362852   1.567   0.919   5.887 -0.6779 -0.3646  0.0069
18671THY    CA462853   1.393   0.843   5.985 -0.6622 -0.4737 -0.8110
18671THY    HA462854   1.323   0.915   5.946  0.6447  0.3761  1.0027
18671THY    CA562855   1.345   0.744   6.064 -0.2146 -0.3284  0.4103
18671THY    CM162856   1.200   0.734   6.081  0.1847 -0.2104 -0.9263
18671THY    HM162857   1.166   0.698   6.179 -1.7265 -0.1526  0.8120
18671THY    HM262858   1.150   0.668   6.009 -1.1569 -0.9414  0.8068
18671THY    HM362859   1.162   0.836   6.069  1.5913 -0.9226 -0.4663
18671THY    CA662860   1.430   0.643   6.121  0.4333 -0.3392  0.4367
18671THY    HA662861   1.388   0.566   6.184  1.2568  0.2461  0.4638
18672THY      O62862   8.361   4.796   4.256 -0.6844  0.2124  0.3045
18672THY     HO62863   8.308   4.789   4.175 -1.3418  0.6818 -0.1975
18672THY    CA162864   8.319   4.705   4.344 -0.6444 -0.0771 -0.4705
18672THY    CA262865   8.399   4.658   4.452 -0.1067  0.8629 -0.0822
18672THY    CP162866   8.545   4.695   4.463  0.6670  0.0146  0.5711
18672THY    HP162867   8.560   4.782   4.397  1.4939 -2.0007 -1.0076
18672THY    CP262868   8.645   4.586   4.416  0.5513 -0.5544  0.6439
18672THY    HP262869   8.744   4.629   4.400  0.5608 -2.3827  0.0476
18672THY    HP362870   8.597   4.548   4.325  0.6830  0.2074 -1.5091
18672THY    HP462871   8.648   4.496   4.479 -1.5259 -1.2210  0.0298
18672THY    CP362872   8.587   4.741   4.612  0.0181  0.5160  0.3708
18672THY    HP562873   8.502   4.795   4.655 -1.7060 -0.0462 -1.7425
18672THY    HP662874   8.680   4.799   4.607  1.7553 -0.5758 -2.3008
18672THY    HP762875   8.605   4.652   4.673 -1.7078 -1.9081 -1.7751
18672THY    CA362876   8.343   4.572   4.548 -0.1900  0.6373 -0.3664
18672THY    HA362877   8.402   4.534   4.630 -1.7973  1.8221 -0.4227
18672THY    CA462878   8.213   4.529   4.530  0.3087  0.4650  0.6180
18672THY    HA462879   8.178   4.447   4.592  1.2266 -1.2917 -1.1610
18672THY    CA562880   8.133   4.572   4.424 -0.8073 -0.0970  0.2385
18672THY    CM162881   7.984   4.528   4.406 -1.0954  0.8684 -0.5073
18672THY    HM162882   7.937   4.578   4.320 -0.8485  1.1617  0.2343
18672THY    HM262883   7.925   4.551   4.495 -1.3727  1.0963 -1.9981
18672THY    HM362884   7.974   4.420   4.388 -1.3205 -0.0239 -0.3444
18672THY    CA662885   8.184   4.659   4.331  0.4471  0.3467  0.4837
18672THY    HA662886   8.120   4.703   4.255  0.5217 -0.0674 -0.1114
18673THY      O62887   2.609   1.465   5.454  0.2159  0.5134  0.1356
18673THY     HO62888   2.538   1.506   5.507 -0.8925  1.0920 -2.3582
18673THY    CA162889   2.731   1.491   5.506 -0.5389 -0.1828  1.0003
18673THY    CA262890   2.802   1.378   5.555  0.0239 -0.6408  0.4731
18673THY    CP162891   2.733   1.234   5.567 -0.3163  0.6416  0.1302
18673THY    HP162892   2.629   1.248   5.537 -0.7151  1.5473 -0.8236
18673THY    CP262893   2.734   1.168   5.698 -0.7180 -0.0357  0.0450
18673THY    HP262894   2.654   1.216   5.756  0.6319 -0.3277  2.8801
18673THY    HP362895   2.825   1.185   5.758 -0.8422  0.1561  0.0299
18673THY    HP462896   2.724   1.059   5.697  1.0318  0.3829 -0.1563
18673THY    CP362897   2.798   1.141   5.462 -0.3577  0.6076 -0.1693
18673THY    HP562898   2.748   1.045   5.445  0.2708  2.7470 -0.9366
18673THY    HP662899   2.905   1.133   5.483 -0.0920 -0.1878  1.0466
18673THY    HP762900   2.787   1.187   5.363 -0.9741 -0.0116 -1.5830
18673THY    CA362901   2.934   1.401   5.595 -0.8567  0.9207 -0.6906
18673THY    HA362902   2.994   1.312   5.611 -0.1328  0.7255 -0.2442
18673THY    CA462903   3.001   1.522   5.584  0.3155 -0.2084 -0.0357
18673THY    HA462904   3.109   1.530   5.592  0.3861  1.0760 -1.6531
18673THY    CA562905   2.918   1.636   5.546 -0.1720  0.3243  0.3354
18673THY    CM162906   2.974   1.772   5.564  0.2864  0.7711  0.1304
18673THY    HM162907   3.078   1.767   5.530  0.6768  1.8082  0.8244
18673THY    HM262908   2.981   1.801   5.670  0.2649  0.3855  1.6052
18673THY    HM362909   2.913   1.846   5.512 -1.3470  1.0804 -0.9384
18673THY    CA662910   2.787   1.610   5.511  0.4928  0.2301 -0.0256
18673THY    HA662911   2.723   1.694   5.485 -2.9901  0.9416 -2.2197
18674THY      O62912   7.284   8.485   6.703 -0.1374 -0.5831  0.0225
18674THY     HO62913   7.249   8.394   6.701  0.1212 -3.5641 -0.1080
18674THY    CA162914   7.183   8.569   6.734  0.5490  0.0891 -0.8334
18674THY    CA262915   7.179   8.702   6.678  0.2503 -0.3504 -0.2606
18674THY    CP162916   7.289   8.741   6.582 -0.2924  0.5635 -0.0682
18674THY    HP162917   7.329   8.648   6.540  2.2833  1.6269  0.4894
18674THY    CP262918   7.395   8.816   6.663  0.2653 -0.1890  0.3418
18674THY    HP262919   7.408   8.759   6.755  2.4249 -0.0615  0.9284
18674THY    HP362920   7.358   8.918   6.682 -1.5791  1.3325 -0.5619
18674THY    HP462921   7.498   8.815   6.623  0.5659  0.5420  1.0863
18674THY    CP362922   7.234   8.822   6.452  0.1552 -0.0228 -0.2510
18674THY    HP562923   7.316   8.845   6.382 -0.4210 -0.7782 -0.4858
18674THY    HP662924   7.202   8.924   6.478  0.5041 -0.9154  0.0909
18674THY    HP762925   7.153   8.774   6.398 -0.1240 -0.4875  0.7097
18674THY    CA362926   7.082   8.788   6.722 -0.0715  0.1196 -0.1017
18674THY    HA362927   7.084   8.885   6.672  0.0193  0.1406 -0.0923
18674THY    CA462928   6.993   8.754   6.829  0.1445 -0.0950  0.1565
18674THY    HA462929   6.911   8.821   6.854 -0.2965 -0.2141 -0.3393
18674THY    CA562930   7.009   8.628   6.891  1.0189 -0.1026 -0.0114
18674THY    CM162931   6.918   8.579   7.005 -0.6812 -0.0352  0.5428
18674THY    HM162932   6.962   8.497   7.064 -1.7454  0.5716  0.3995
18674THY    HM262933   6.830   8.545   6.950 -0.8883 -0.0190  1.0416
18674THY    HM362934   6.895   8.655   7.081 -0.9637 -0.9081  1.3479
18674THY    CA662935   7.099   8.534   6.841 -0.2835  0.3897  0.2263
18674THY    HA662936   7.102   8.434   6.883 -2.5369  0.5635  0.1879
18675THY      O62937   5.037   1.667   3.318  0.1348 -0.1182 -0.1378
18675THY     HO62938   5.114   1.725   3.309 -0.0392 -0.2854  0.0698
18675THY    CA162939   4.988   1.700   3.444  0.0067  0.4061 -0.9751
18675THY    CA262940   4.857   1.677   3.473  0.9776 -0.4185 -0.3053
18675THY    CP162941   4.761   1.617   3.380  0.1326 -0.1246  0.1544
18675THY    HP162942   4.817   1.564   3.302  2.2044  0.1220  1.8609
18675THY    CP262943   4.685   1.732   3.301 -0.5630 -0.0422  0.0790
18675THY    HP262944   4.612   1.680   3.237  1.4296 -1.3489 -1.2485
18675THY    HP362945   4.756   1.801   3.256  1.1250  1.8092 -0.3627
18675THY    HP462946   4.629   1.795   3.372 -0.8860 -2.1011  2.2388
18675THY    CP362947   4.670   1.513   3.443 -0.4065 -0.4280  0.0222
18675THY    HP562948   4.599   1.556   3.515  0.7225  3.0189 -3.2651
18675THY    HP662949   4.731   1.455   3.514 -0.3340  0.4336  1.0970
18675THY    HP762950   4.616   1.450   3.372 -1.1964  1.7175 -1.8492
18675THY    CA362951   4.814   1.714   3.601 -0.7328  0.1578  0.8374
18675THY    HA362952   4.717   1.692   3.646  0.1914  1.1088 -1.6566
18675THY    CA462953   4.910   1.771   3.686  0.0477  0.4138  0.2993
18675THY    HA462954   4.882   1.800   3.786  4.1266  1.5898  0.7778
18675THY    CA562955   5.048   1.785   3.653  0.7999  0.4877 -0.0766
18675THY    CM162956   5.154   1.838   3.755 -0.2430  0.0543 -0.1163
18675THY    HM162957   5.185   1.764   3.830 -1.6058 -0.2990 -1.0970
18675THY    HM262958   5.111   1.921   3.812 -0.1236  0.4340 -0.3120
18675THY    HM362959   5.242   1.884   3.709  1.6565  1.4624 -2.1177
18675THY    CA662960   5.087   1.753   3.527 -0.5838  0.0775  0.9649
18675THY    HA662961   5.191   1.757   3.495 -0.6829 -0.6516 -1.0225
18676THY      O62962   8.531   5.527   2.369 -0.3090 -0.1028 -0.1079
18676THY     HO62963   8.599   5.475   2.324  0.4097 -2.6403  2.7404
18676THY    CA162964   8.587   5.647   2.359  0.0760 -0.2359 -0.5150
18676THY    CA262965   8.501   5.761   2.364 -0.1914 -0.7026 -0.2315
18676THY    CP162966   8.351   5.744   2.397 -0.1020 -0.0988 -0.9877
18676THY    HP162967   8.326   5.667   2.471 -1.5955 -0.1557 -0.6045
18676THY    CP262968   8.270   5.721   2.274  0.0105 -0.0255 -0.1336
18676THY    HP262969   8.163   5.702   2.291  0.2968  1.2444 -0.7160
18676THY    HP362970   8.300   5.637   2.211 -0.5939 -1.1223  0.4489
18676THY    HP462971   8.272   5.812   2.212 -0.9728 -0.5652 -0.4674
18676THY    CP362972   8.286   5.873   2.466 -0.6292 -0.6797  0.2053
18676THY    HP562973   8.187   5.853   2.509 -0.6227 -2.1498 -4.0091
18676THY    HP662974   8.275   5.956   2.395 -4.3893  0.1366  0.5658
18676THY    HP762975   8.355   5.919   2.539  0.4398 -0.6321 -1.3994
18676THY    CA362976   8.552   5.890   2.323  0.9315  0.0667  0.6990
18676THY    HA362977   8.475   5.965   2.303 -1.4154  1.2540 -1.2448
18676THY    CA462978   8.683   5.897   2.300 -0.1011  0.5692 -0.9626
18676THY    HA462979   8.733   5.993   2.295 -1.1408  1.0986 -0.3867
18676THY    CA562980   8.773   5.791   2.316 -0.0614  0.4742  0.2151
18676THY    CM162981   8.915   5.794   2.288  0.2823  0.1174 -0.1499
18676THY    HM162982   8.934   5.901   2.274  0.2204  2.7192  0.2577
18676THY    HM262983   8.949   5.738   2.200 -0.4952 -1.1179  1.2483
18676THY    HM362984   8.968   5.746   2.372  1.7814 -1.1750 -0.8587
18676THY    CA662985   8.723   5.661   2.334  0.0804 -0.4302 -0.2905
18676THY    HA662986   8.784   5.571   2.338 -1.8746 -0.0196 -1.6740
18677THY      O62987   0.877   1.318   2.450 -0.3737  0.3674 -0.0523
18677THY     HO62988   0.804   1.288   2.507 -0.0146  0.8302 -0.0525
18677THY    CA162989   0.984   1.303   2.537  0.0298 -0.0718  0.8276
18677THY    CA262990   1.116   1.268   2.490  0.5568 -0.4028 -0.8260
18677THY    CP162991   1.146   1.287   2.335  0.0444  0.3058  0.3059
18677THY    HP162992   1.096   1.380   2.303 -1.2859  1.1418 -0.0952
18677THY    CP262993   1.084   1.172   2.264 -0.4422  0.3943  0.6188
18677THY    HP262994   1.123   1.078   2.305 -1.7295  1.3255  0.4604
18677THY    HP362995   1.110   1.189   2.159 -0.6333  0.5082  1.6622
18677THY    HP462996   0.974   1.172   2.268 -0.5511 -0.3832 -2.3921
18677THY    CP362997   1.295   1.303   2.292  0.6123  0.0507 -0.1995
18677THY    HP562998   1.311   1.334   2.188  0.9396  0.0329 -0.4246
18677THY    HP662999   1.336   1.202   2.295 -1.5458 -1.5313 -1.1895
18677THY    HP763000   1.354   1.373   2.353 -1.2591 -2.1164  3.5645
18677THY    CA363001   1.216   1.240   2.586 -0.6051  0.1590  0.1645
18677THY    HA363002   1.319   1.220   2.557  0.1985  2.2479  0.9655
18677THY    CA463003   1.183   1.238   2.722 -0.0465 -0.4786 -0.7562
18677THY    HA463004   1.271   1.213   2.780  0.1947 -0.5876 -0.1931
18677THY    CA563005   1.053   1.259   2.763  0.2280  0.0141  0.0700
18677THY    CM163006   1.014   1.228   2.903 -0.3206  0.4416 -0.5157
18677THY    HM163007   1.072   1.295   2.969 -0.5524 -0.8783  1.0695
18677THY    HM263008   1.064   1.132   2.919  2.9433  0.0471  0.9465
18677THY    HM363009   0.908   1.229   2.927 -0.8198 -1.4849  1.2341
18677THY    CA663010   0.951   1.295   2.674 -0.4709  0.1171  0.6868
18677THY    HA663011   0.848   1.303   2.707 -1.3298 -2.6077  2.2822
18678THY      O63012   6.076   0.313   2.854  0.1066 -0.1031 -0.0023
18678THY     HO63013   6.068   0.216   2.848 -1.1455 -1.0075  0.1306
18678THY    CA163014   6.043   0.361   2.733 -0.4301 -0.3476  0.4885
18678THY    CA263015   6.030   0.500   2.711  0.4438 -0.1316 -0.1368
18678THY    CP163016   6.041   0.597   2.827  0.1706  0.1330  0.1380
18678THY    HP163017   6.135   0.581   2.880  0.9125 -0.4533  2.1833
18678THY    CP263018   5.929   0.589   2.932 -0.1173 -0.6206 -0.5627
18678THY    HP263019   5.829   0.616   2.897  0.1954  1.0101  3.2873
18678THY    HP363020   5.946   0.658   3.015  1.9776 -0.6878 -0.9129
18678THY    HP463021   5.906   0.492   2.978  0.9441 -0.5237 -0.7839
18678THY    CP363022   6.056   0.749   2.801  0.3501  0.5128  0.0780
18678THY    HP563023   5.957   0.790   2.779  1.0447  3.2288  3.7303
18678THY    HP663024   6.124   0.772   2.718  0.7197  0.6864 -0.3778
18678THY    HP763025   6.090   0.800   2.892  0.7402 -0.7321  2.1640
18678THY    CA363026   5.986   0.541   2.582  0.4892 -0.2599  0.6241
18678THY    HA363027   5.971   0.645   2.554 -1.3244 -0.8008  0.2444
18678THY    CA463028   5.956   0.444   2.477 -0.4100 -0.3862 -0.4358
18678THY    HA463029   5.913   0.481   2.384 -1.9822  0.3611 -0.3246
18678THY    CA563030   5.979   0.303   2.506 -0.6231  0.0357  0.1492
18678THY    CM163031   5.953   0.201   2.396  0.1109 -0.0143 -0.8792
18678THY    HM163032   5.913   0.109   2.442  3.1383  1.9283 -1.3655
18678THY    HM263033   6.047   0.180   2.343  0.9309  1.5011 -1.1551
18678THY    HM363034   5.877   0.226   2.320  1.3488 -1.0185 -0.0419
18678THY    CA663035   6.023   0.265   2.633 -0.4505  0.6512  0.0709
18678THY    HA663036   6.037   0.160   2.654 -1.0651  0.9964  0.0537
18679THY      O63037   1.390   1.853   4.914 -0.4633 -0.0771 -0.1557
18679THY     HO63038   1.417   1.765   4.945 -0.0888 -0.7591 -0.2887
18679THY    CA163039   1.507   1.927   4.925 -0.4167 -0.9148 -0.2650
18679THY    CA263040   1.517   2.063   4.895 -0.0779 -0.1670  0.1709
18679THY    CP163041   1.400   2.144   4.846  0.0504  1.0631  0.4707
18679THY    HP163042   1.309   2.100   4.889  1.2150  1.7111 -1.3759
18679THY    CP263043   1.383   2.126   4.688 -0.2791 -0.2145 -0.1085
18679THY    HP263044   1.471   2.172   4.643  0.5758  1.7025  0.2205
18679THY    HP363045   1.292   2.169   4.643  1.1194 -1.1880  2.0146
18679THY    HP463046   1.397   2.020   4.666  2.5745 -3.8917  0.8199
18679THY    CP363047   1.396   2.296   4.894  0.0283  0.8135 -0.3091
18679THY    HP563048   1.312   2.347   4.845 -0.6587  3.0584  0.8386
18679THY    HP663049   1.484   2.354   4.867  2.6309 -0.7047 -4.5254
18679THY    HP763050   1.379   2.302   5.002 -1.8019  0.4995  1.2558
18679THY    CA363051   1.645   2.129   4.911  0.5902 -0.4276  0.1913
18679THY    HA363052   1.656   2.233   4.882 -0.8986  0.4256  0.6101
18679THY    CA463053   1.757   2.063   4.942  0.0052 -1.0999  0.5939
18679THY    HA463054   1.856   2.106   4.939  0.9592  2.0965 -1.0524
18679THY    CA563055   1.746   1.922   4.970  0.0015 -0.1284 -0.0342
18679THY    CM163056   1.872   1.840   4.983 -0.0550 -0.0637  0.0558
18679THY    HM163057   1.966   1.896   4.990  0.7682  1.8752 -1.4408
18679THY    HM263058   1.884   1.753   4.918  2.5471  1.6867 -1.0223
18679THY    HM363059   1.877   1.783   5.077  0.7524  0.4236  0.9190
18679THY    CA663060   1.626   1.856   4.956  0.0253  0.3296  0.5283
18679THY    HA663061   1.618   1.750   4.976 -1.1562  1.6840  0.8314
18680THY      O63062   4.700   5.843   4.055 -0.0253 -0.2111  0.5511
18680THY     HO63063   4.757   5.873   3.981  1.6253  1.2155  1.0732
18680THY    CA163064   4.629   5.735   4.020 -0.3782  0.6379  0.5089
18680THY    CA263065   4.569   5.657   4.118 -0.2841 -0.0139  0.2152
18680THY    CP163066   4.591   5.693   4.267  0.0302 -1.1780 -0.1039
18680THY    HP163067   4.586   5.802   4.276 -1.1299 -1.0710 -0.1586
18680THY    CP263068   4.726   5.646   4.333  0.8662  0.2137 -0.2129
18680THY    HP263069   4.719   5.537   4.329  0.9295 -3.4268 -0.2091
18680THY    HP363070   4.733   5.674   4.438  0.6927  0.2063 -0.1350
18680THY    HP463071   4.819   5.666   4.279  0.1999 -0.6239  0.7491
18680THY    CP363072   4.481   5.650   4.370  0.3657  0.1697  0.3109
18680THY    HP563073   4.393   5.667   4.308  2.0386 -1.7299  2.7021
18680THY    HP663074   4.466   5.721   4.452 -0.5293 -1.2489  1.8324
18680THY    HP763075   4.478   5.544   4.398  0.4099  1.1021  0.5401
18680THY    CA363076   4.494   5.548   4.083  0.2376  0.3515  0.5836
18680THY    HA363077   4.447   5.482   4.155 -0.1781 -1.2930 -1.0348
18680THY    CA463078   4.473   5.522   3.949 -0.1507 -0.1439  0.1505
18680THY    HA463079   4.414   5.431   3.938  0.0941  4.3416 -0.8135
18680THY    CA563080   4.532   5.595   3.850  0.2208  0.6105 -0.4171
18680THY    CM163081   4.515   5.549   3.697  0.1469 -0.4761 -0.4198
18680THY    HM163082   4.416   5.502   3.684  0.2002  0.9630 -0.9968
18680THY    HM263083   4.595   5.485   3.660 -0.3550 -0.6815 -0.9424
18680THY    HM363084   4.496   5.632   3.628 -0.8328  0.6009  0.2869
18680THY    CA663085   4.611   5.701   3.887  0.3317  0.0039 -0.7818
18680THY    HA663086   4.671   5.754   3.814  1.0735  1.0444 -0.1443
18681THY      O63087   1.987   5.143   7.373  0.1998  0.0289  0.8519
18681THY     HO63088   1.974   5.222   7.428 -0.7900  2.3651 -0.8321
18681THY    CA163089   1.860   5.126   7.319  0.3802  0.3303  0.7292
18681THY    CA263090   1.831   5.031   7.220  0.5186 -0.6583  0.2005
18681THY    CP163091   1.933   4.932   7.177 -0.2135  0.1119  0.6675
18681THY    HP163092   2.003   4.924   7.261  0.2198 -0.1135  1.9268
18681THY    CP263093   2.014   4.985   7.059 -0.6709  0.0047 -0.1378
18681THY    HP263094   2.119   4.953   7.066 -1.2729  2.1276 -1.8750
18681THY    HP363095   2.020   5.094   7.071 -0.5668  4.2252 -0.4593
18681THY    HP463096   1.967   4.961   6.963 -1.0934  0.2897 -0.4754
18681THY    CP363097   1.897   4.785   7.155  0.2578 -0.3589 -0.1778
18681THY    HP563098   1.842   4.744   7.240  1.1298  0.2773 -0.0456
18681THY    HP663099   1.985   4.726   7.128  0.9921  0.8738  0.3404
18681THY    HP763100   1.829   4.771   7.070 -1.0189  0.3633  1.3172
18681THY    CA363101   1.695   5.017   7.172 -0.7362  0.1209  0.4699
18681THY    HA363102   1.666   4.943   7.098  1.3130  0.4299 -0.7338
18681THY    CA463103   1.606   5.111   7.205  0.6742 -0.5986  0.5716
18681THY    HA463104   1.505   5.112   7.165 -0.4123  1.9033 -0.6047
18681THY    CA563105   1.637   5.212   7.297 -0.1982  0.4011  0.5848
18681THY    CM163106   1.536   5.314   7.338 -0.4510  0.5164  0.6247
18681THY    HM163107   1.579   5.414   7.323 -1.8729 -0.3792  1.1424
18681THY    HM263108   1.510   5.303   7.443 -0.8033  0.3208 -0.4835
18681THY    HM363109   1.439   5.295   7.290  0.6204 -0.9115 -1.6194
18681THY    CA663110   1.766   5.218   7.350 -0.0121 -0.2440  0.0294
18681THY    HA663111   1.789   5.295   7.423  1.3911  1.1682 -1.6320
18682THY      O63112   3.057   5.385   3.632  0.2050 -0.1078  0.9564
18682THY     HO63113   3.079   5.290   3.636  1.6843  0.7365  1.2997
18682THY    CA163114   3.084   5.427   3.510  0.2969  0.7749  0.9238
18682THY    CA263115   3.016   5.540   3.454 -0.0338  0.1389  0.1297
18682THY    CP163116   2.913   5.610   3.535  0.4434  0.0314  0.3377
18682THY    HP163117   2.867   5.544   3.609  0.7265 -0.1871 -0.1065
18682THY    CP263118   2.790   5.656   3.455 -1.1842 -0.1165 -0.5702
18682THY    HP263119   2.706   5.675   3.523 -0.8954 -0.0783  0.6261
18682THY    HP363120   2.764   5.583   3.378 -2.1143 -1.5002  1.1536
18682THY    HP463121   2.792   5.751   3.401  0.0568  0.8391 -0.0119
18682THY    CP363122   2.973   5.718   3.617 -0.0040 -0.6248 -0.6310
18682THY    HP563123   3.010   5.786   3.539  0.4471 -0.0037 -0.1510
18682THY    HP663124   3.056   5.675   3.673  1.3407 -1.2258  1.0768
18682THY    HP763125   2.901   5.755   3.691  0.6507  1.0491 -2.5169
18682THY    CA363126   3.041   5.572   3.317  0.1261  0.8094 -0.1889
18682THY    HA363127   2.976   5.640   3.264  0.0055 -0.8948 -1.5499
18682THY    CA463128   3.132   5.494   3.242 -0.3617 -0.0058  0.0436
18682THY    HA463129   3.161   5.523   3.141  0.5674  0.3536  0.4384
18682THY    CA563130   3.202   5.382   3.301 -0.3006  0.2505  0.6214
18682THY    CM163131   3.309   5.303   3.227  1.2441 -0.0289 -0.6513
18682THY    HM163132   3.320   5.330   3.121  3.6640 -0.0770 -1.5320
18682THY    HM263133   3.298   5.194   3.237  2.0694 -3.0366 -1.1205
18682THY    HM363134   3.402   5.339   3.271  0.8750 -0.2102  0.5535
18682THY    CA663135   3.177   5.349   3.433 -0.1903 -0.7998 -0.1184
18682THY    HA663136   3.226   5.266   3.483 -2.0953 -0.6498 -1.2234
18683THY      O63137   2.430   2.976   4.523  0.3119  0.1026  0.0503
18683THY     HO63138   2.493   3.046   4.549  0.6841  1.7904 -0.8651
18683THY    CA163139   2.308   3.026   4.541  0.1343 -0.1362 -0.2453
18683THY    CA263140   2.189   2.952   4.556  0.3426  0.3100  0.3601
18683THY    CP163141   2.201   2.799   4.534  1.1952 -0.2919 -0.0468
18683THY    HP163142   2.301   2.755   4.525  0.6600  0.6021 -1.5104
18683THY    CP263143   2.131   2.778   4.394  0.0376  0.4286  0.1262
18683THY    HP263144   2.176   2.832   4.310 -1.3171  1.0153  2.3299
18683THY    HP363145   2.034   2.829   4.386  0.9795 -2.3296  1.7490
18683THY    HP463146   2.111   2.676   4.361 -0.0357 -1.3934  0.6953
18683THY    CP363147   2.131   2.718   4.644 -0.2667 -1.3308  0.3553
18683THY    HP563148   2.025   2.742   4.647 -0.4763  2.4098 -0.3868
18683THY    HP663149   2.169   2.731   4.747 -1.8680 -0.8025  1.0466
18683THY    HP763150   2.147   2.615   4.609 -0.7916 -0.2135 -0.1220
18683THY    CA363151   2.062   3.013   4.586  0.3803  0.0036 -0.2778
18683THY    HA363152   1.971   2.956   4.601 -0.6097  2.3517  1.7370
18683THY    CA463153   2.064   3.150   4.610  0.2672 -0.6558 -0.1522
18683THY    HA463154   1.977   3.204   4.645  0.1706 -1.1151 -0.0067
18683THY    CA563155   2.180   3.219   4.599  0.0495 -0.1672  0.9644
18683THY    CM163156   2.189   3.361   4.651  0.5895 -0.1232  0.5515
18683THY    HM163157   2.108   3.427   4.617 -0.6961  1.9443  0.1303
18683THY    HM263158   2.286   3.406   4.627  0.8772  0.4427  0.2457
18683THY    HM363159   2.194   3.364   4.760  0.2041 -0.0642 -0.7304
18683THY    CA663160   2.303   3.162   4.566  0.4601 -0.4741 -0.1643
18683THY    HA663161   2.394   3.223   4.563 -1.5414 -1.3088  3.0156
18684THY      O63162   1.318   4.358   3.319  0.4611  0.2714 -0.7103
18684THY     HO63163   1.320   4.452   3.341  0.1591 -1.8174 -0.1641
18684THY    CA163164   1.331   4.284   3.425 -0.0236  0.4629 -0.1295
18684THY    CA263165   1.327   4.142   3.410 -0.6668  0.4920  0.4124
18684THY    CP163166   1.276   4.071   3.285  0.0991  0.2746 -0.0349
18684THY    HP163167   1.307   4.124   3.194 -0.2434  1.1167  1.6883
18684THY    CP263168   1.120   4.058   3.296 -0.3170 -0.3011 -0.6787
18684THY    HP263169   1.083   4.011   3.204  0.0593  0.1604 -1.9436
18684THY    HP363170   1.063   4.149   3.316 -2.5598 -0.5326 -1.9657
18684THY    HP463171   1.094   3.983   3.372 -1.0551 -1.1741 -1.3272
18684THY    CP363172   1.342   3.928   3.267  0.2528  0.4096 -1.1590
18684THY    HP563173   1.304   3.911   3.166  0.4528 -0.2121  1.5541
18684THY    HP663174   1.305   3.851   3.335 -0.0393  0.0339 -1.3481
18684THY    HP763175   1.452   3.937   3.266  0.0812  0.7106  2.6448
18684THY    CA363176   1.358   4.066   3.525  0.4627  0.0741 -0.3063
18684THY    HA363177   1.352   3.957   3.523  2.2616 -1.0070 -0.4335
18684THY    CA463178   1.381   4.128   3.649 -0.5902  0.5185 -0.5626
18684THY    HA463179   1.410   4.063   3.731  2.2132  0.8687  0.9927
18684THY    CA563180   1.404   4.270   3.651 -0.8177 -0.0589  0.8418
18684THY    CM163181   1.455   4.338   3.782 -0.6440  0.3001  0.2379
18684THY    HM163182   1.562   4.328   3.803 -0.6366  0.0446 -0.2643
18684THY    HM263183   1.397   4.290   3.862 -0.1467 -0.2817 -1.4147
18684THY    HM363184   1.439   4.446   3.790  3.1769  0.5038  0.9076
18684THY    CA663185   1.368   4.349   3.548 -0.5262  0.8717  0.2709
18684THY    HA663186   1.394   4.454   3.548 -1.2594 -2.5210  0.5698
18685THY      O63187   5.858   2.281   3.842  0.6055  0.0429  0.1233
18685THY     HO63188   5.945   2.310   3.874  1.0471  1.6284 -2.6971
18685THY    CA163189   5.849   2.336   3.722 -0.3185 -0.0128 -0.0642
18685THY    CA263190   5.727   2.333   3.650  0.2995 -0.2487  0.1140
18685THY    CP163191   5.598   2.284   3.717 -0.4868  0.1637 -0.1980
18685THY    HP163192   5.587   2.283   3.826  1.6548  0.4247 -1.3462
18685THY    CP263193   5.583   2.128   3.679 -0.1512 -0.1390 -0.2223
18685THY    HP263194   5.580   2.106   3.572 -0.9284 -0.0199 -0.7799
18685THY    HP363195   5.484   2.086   3.704  0.2902  0.5998 -0.8390
18685THY    HP463196   5.661   2.067   3.726  0.2090  2.0448  1.7820
18685THY    CP363197   5.485   2.365   3.664  0.3280  0.5848 -0.7465
18685THY    HP563198   5.493   2.465   3.707 -0.5324 -0.6406 -0.1172
18685THY    HP663199   5.384   2.326   3.685 -0.2305 -0.7328 -0.0993
18685THY    HP763200   5.491   2.381   3.556  1.8384  0.6690 -0.6016
18685THY    CA363201   5.729   2.378   3.515 -1.1601  0.2876 -0.5001
18685THY    HA363202   5.649   2.375   3.442 -0.4920 -0.4302 -1.5710
18685THY    CA463203   5.845   2.429   3.461 -1.4424  0.2880 -0.7573
18685THY    HA463204   5.852   2.471   3.361  0.6067  1.2934  1.5387
18685THY    CA563205   5.968   2.432   3.541 -0.6913  0.2901  0.3970
18685THY    CM163206   6.099   2.496   3.500 -0.7899 -0.1870  0.0377
18685THY    HM163207   6.154   2.541   3.583  0.7580 -0.1293 -1.7894
18685THY    HM263208   6.074   2.570   3.423 -1.3772  0.1809  0.2256
18685THY    HM363209   6.168   2.436   3.439  2.6144  1.3046  2.1496
18685THY    CA663210   5.963   2.380   3.671 -0.3800 -0.5254 -0.8930
18685THY    HA663211   6.050   2.387   3.736 -0.3247 -0.3732 -2.6463
18686THY      O63212   9.120   6.346   5.952  0.1242 -0.9167  0.0498
18686THY     HO63213   9.173   6.421   5.984  2.6136 -0.4906 -1.7299
18686THY    CA163214   9.146   6.234   6.022  0.7858  0.6100  0.6803
18686THY    CA263215   9.042   6.144   6.067 -0.2830  0.8227 -0.1292
18686THY    CP163216   8.901   6.172   6.041 -0.3333 -0.0821  0.2062
18686THY    HP163217   8.896   6.240   5.955  0.9877 -0.3295  0.0141
18686THY    CP263218   8.837   6.245   6.162 -0.3987  0.5120  0.8472
18686THY    HP263219   8.842   6.353   6.144 -0.2411  1.4229  0.9951
18686THY    HP363220   8.876   6.216   6.260  0.4533 -0.6511 -2.3958
18686THY    HP463221   8.731   6.221   6.169  0.2969  4.4180 -1.9209
18686THY    CP363222   8.833   6.044   6.001 -0.1744  0.0055 -0.6049
18686THY    HP563223   8.740   6.080   5.957 -0.5376  0.0676 -1.4558
18686THY    HP663224   8.816   5.972   6.082 -0.7083 -0.8330 -1.4482
18686THY    HP763225   8.890   5.985   5.929  0.8149  0.8534 -0.7200
18686THY    CA363226   9.079   6.033   6.147 -0.3123  0.0865 -0.8906
18686THY    HA363227   9.005   5.967   6.191 -1.0720 -1.6878 -1.2684
18686THY    CA463228   9.218   6.022   6.176 -0.3103  0.4032 -0.4477
18686THY    HA463229   9.245   5.946   6.249 -1.2832  0.1803 -1.0210
18686THY    CA563230   9.316   6.115   6.134 -0.2869  0.2096 -0.2537
18686THY    CM163231   9.457   6.102   6.182  0.2115  0.4358  0.7615
18686THY    HM163232   9.526   6.181   6.152  1.3144 -1.3348 -0.7982
18686THY    HM263233   9.492   6.012   6.130  0.1562 -0.2214  1.1177
18686THY    HM363234   9.453   6.075   6.288  2.9157  0.0847 -1.5479
18686THY    CA663235   9.282   6.214   6.047 -0.3942  0.2620 -0.0761
18686THY    HA663236   9.357   6.284   6.010  0.2709  0.8392 -0.4735
18687THY      O63237   3.163   3.577   6.624  0.6291  0.1241 -0.0184
18687THY     HO63238   3.239   3.537   6.670 -0.2812 -0.1841 -2.2140
18687THY    CA163239   3.051   3.504   6.643 -0.4834  0.6070  0.5015
18687THY    CA263240   2.955   3.487   6.540 -0.1356  0.1740 -0.1412
18687THY    CP163241   2.974   3.561   6.401 -0.5556  0.0657  0.4999
18687THY    HP163242   3.061   3.627   6.396  0.6651  1.5803 -0.8902
18687THY    CP263243   2.843   3.640   6.375  0.3764  0.1538 -0.6034
18687THY    HP263244   2.825   3.713   6.455 -0.8336  1.5911 -2.3874
18687THY    HP363245   2.756   3.573   6.378  0.5087 -3.4281 -1.0963
18687THY    HP463246   2.862   3.691   6.281  2.4973  0.7341 -0.2514
18687THY    CP363247   2.992   3.464   6.285  0.7040  0.1566  0.9556
18687THY    HP563248   3.072   3.392   6.300  0.7841  0.7587  1.1691
18687THY    HP663249   3.031   3.515   6.196  1.1020 -0.6124 -0.6371
18687THY    HP763250   2.903   3.407   6.255  1.8105 -0.3176 -0.5916
18687THY    CA363251   2.848   3.393   6.556  0.3090 -0.7956  0.5761
18687THY    HA363252   2.781   3.364   6.476 -0.0484  0.7266 -3.4604
18687THY    CA463253   2.839   3.336   6.689  0.0470  0.3616  0.4129
18687THY    HA463254   2.753   3.272   6.704  0.1420  0.4269  0.3005
18687THY    CA563255   2.931   3.367   6.797  0.5414  0.5428  0.0675
18687THY    CM163256   2.921   3.302   6.935 -0.0715 -0.8905  0.1098
18687THY    HM163257   2.874   3.205   6.916 -0.4654 -1.9978  0.4983
18687THY    HM263258   2.856   3.359   7.003  1.4676 -0.4847  1.4379
18687THY    HM363259   3.019   3.282   6.978 -0.0597  0.3061  2.4278
18687THY    CA663260   3.038   3.452   6.769  0.1066  0.4928  0.5431
18687THY    HA663261   3.119   3.457   6.841  1.4754 -0.7130 -2.1735
18688THY      O63262   4.719   8.046   2.161 -0.1376 -0.0061 -0.4102
18688THY     HO63263   4.644   8.106   2.146  0.2910 -3.5524 -0.5467
18688THY    CA163264   4.836   8.116   2.148  0.0780  0.6495  0.0429
18688THY    CA263265   4.947   8.089   2.231  0.4036 -0.9598 -0.2231
18688THY    CP163266   4.951   7.968   2.320  0.0489  0.7233 -0.1724
18688THY    HP163267   4.886   7.888   2.283 -0.3328 -0.7119  0.7612
18688THY    CP263268   4.909   7.983   2.460  0.0160 -0.6145 -0.3920
18688THY    HP263269   4.902   7.888   2.515 -2.5117 -0.4068 -0.1565
18688THY    HP363270   4.816   8.040   2.473 -0.2730 -1.9368 -0.5488
18688THY    HP463271   4.983   8.049   2.507 -0.8218  0.7191 -0.3605
18688THY    CP363272   5.091   7.899   2.308  0.4981  1.0794 -0.9408
18688THY    HP563273   5.126   7.909   2.205 -0.0046  0.7784 -2.1510
18688THY    HP663274   5.082   7.794   2.337 -3.5325  0.9888 -0.7813
18688THY    HP763275   5.171   7.963   2.345 -0.5564 -1.0333  1.8274
18688THY    CA363276   5.057   8.176   2.223  0.2788  0.1404 -0.3748
18688THY    HA363277   5.140   8.160   2.291  0.9403 -0.8766 -1.4637
18688THY    CA463278   5.063   8.280   2.131  0.6143 -0.3619  0.1277
18688THY    HA463279   5.146   8.350   2.125 -0.7524 -2.1723  1.6996
18688THY    CA563280   4.949   8.309   2.048  0.0129 -0.7227 -1.1793
18688THY    CM163281   4.957   8.434   1.961  0.1763 -0.2021  0.8364
18688THY    HM163282   4.934   8.385   1.866 -1.0508  1.6196 -2.4652
18688THY    HM263283   5.060   8.473   1.961  0.9963 -3.4114 -0.9696
18688THY    HM363284   4.885   8.512   1.986 -1.2790 -2.3342  0.2473
18688THY    CA663285   4.832   8.227   2.055  0.0133  0.5988  0.6908
18688THY    HA663286   4.740   8.250   2.002  0.9437 -1.5504 -0.2828
18689THY      O63287   8.726   8.816   7.735 -0.1527  1.0769  0.0185
18689THY     HO63288   8.667   8.824   7.658  0.5676  0.5481  0.3955
18689THY    CA163289   8.821   8.736   7.678 -0.1703 -0.4776 -0.4878
18689THY    CA263290   8.942   8.705   7.741  0.0379  0.7405 -0.3840
18689THY    CP163291   8.974   8.762   7.876  0.2755  0.0161 -0.0269
18689THY    HP163292   8.879   8.795   7.921 -0.1080 -0.1534 -0.8726
18689THY    CP263293   9.072   8.878   7.873 -0.1289  0.5270  0.0325
18689THY    HP263294   9.045   8.967   7.814  2.4978  1.0332  1.2508
18689THY    HP363295   9.171   8.841   7.845 -0.3772  0.4014 -0.5481
18689THY    HP463296   9.089   8.907   7.977  1.6059  1.1294 -2.7841
18689THY    CP363297   9.028   8.653   7.964 -0.7549 -0.2501 -0.2107
18689THY    HP563298   9.126   8.612   7.936  0.9774 -0.0226  3.4250
18689THY    HP663299   8.955   8.572   7.977 -1.7740  1.1840  0.8982
18689THY    HP763300   9.033   8.690   8.067  1.5672 -0.9609  1.7149
18689THY    CA363301   9.038   8.627   7.673 -0.0725  0.2063  0.0874
18689THY    HA363302   9.140   8.615   7.707  0.4929 -1.7701 -1.1317
18689THY    CA463303   8.997   8.583   7.542 -0.0619 -0.0470 -0.4113
18689THY    HA463304   9.069   8.517   7.495  0.8616  0.6449  0.0795
18689THY    CA563305   8.870   8.612   7.486 -0.4488 -1.1522  0.7082
18689THY    CM163306   8.823   8.554   7.357  0.1416 -0.4003 -0.5527
18689THY    HM163307   8.843   8.628   7.278  1.9455  1.0042  0.5315
18689THY    HM263308   8.713   8.549   7.354  0.1642  0.7815 -3.6337
18689THY    HM363309   8.855   8.453   7.329 -0.6031  2.7732 -1.7684
18689THY    CA663310   8.785   8.687   7.556 -0.3435 -0.6046 -0.0139
18689THY    HA663311   8.693   8.726   7.513 -0.0901  1.5049  3.2811
18690THY      O63312   8.409   2.557   5.439  0.2307 -0.2848 -0.6364
18690THY     HO63313   8.412   2.653   5.428 -2.4626  1.1722 -0.2700
18690THY    CA163314   8.516   2.505   5.392  0.1057 -0.1873  0.8326
18690THY    CA263315   8.527   2.374   5.338  0.3977  0.6139  0.8935
18690THY    CP163316   8.407   2.278   5.332  0.2860 -0.0427  0.3167
18690THY    HP163317   8.318   2.332   5.365 -0.5191 -0.0518 -0.9677
18690THY    CP263318   8.422   2.163   5.429  0.1293  0.0536  1.2898
18690THY    HP263319   8.413   2.207   5.529 -1.8646  0.8599 -0.7029
18690THY    HP363320   8.516   2.106   5.421 -0.5829 -1.8450  0.2910
18690THY    HP463321   8.339   2.092   5.420  0.6631 -1.1178  0.8014
18690THY    CP363322   8.387   2.220   5.187 -0.0217  0.1323 -0.7008
18690THY    HP563323   8.293   2.164   5.180 -0.7226 -0.8417  0.5374
18690THY    HP663324   8.462   2.155   5.140  0.8440  0.6762 -0.1141
18690THY    HP763325   8.374   2.306   5.120 -2.4020  0.4717 -0.7281
18690THY    CA363326   8.650   2.328   5.285  0.7486  0.2857 -0.1829
18690THY    HA363327   8.666   2.226   5.252  2.4534  0.4032  0.0138
18690THY    CA463328   8.755   2.411   5.290  0.4782 -0.4788 -0.8911
18690THY    HA463329   8.846   2.375   5.242  0.8468 -0.2820 -0.2426
18690THY    CA563330   8.748   2.540   5.354 -0.3923  0.3064  0.2891
18690THY    CM163331   8.869   2.622   5.365 -0.4483 -0.6941  0.5621
18690THY    HM163332   8.955   2.557   5.385 -0.4070 -0.0401  0.8075
18690THY    HM263333   8.857   2.693   5.448 -1.4053  0.5931 -1.0365
18690THY    HM363334   8.894   2.679   5.275  2.6544 -1.0117 -1.1148
18690THY    CA663335   8.633   2.583   5.404  0.3092  0.0550 -0.0728
18690THY    HA663336   8.625   2.670   5.468  0.1513  1.3314 -1.0003
18691THY      O63337   8.465   0.544   2.374  1.1378  0.6085 -0.4139
18691THY     HO63338   8.470   0.641   2.382 -0.9483  0.6972 -0.2557
18691THY    CA163339   8.584   0.492   2.426 -0.0322  0.0319  0.3172
18691THY    CA263340   8.654   0.386   2.360  0.3307  0.0116 -0.5321
18691THY    CP163341   8.600   0.326   2.229  0.4070 -0.8059  0.0046
18691THY    HP163342   8.495   0.357   2.222  0.2605 -0.9773 -0.5222
18691THY    CP263343   8.598   0.172   2.227 -0.3946 -0.1026  0.1614
18691THY    HP263344   8.567   0.142   2.328 -0.2313  0.5887  2.1489
18691THY    HP363345   8.699   0.135   2.207 -0.6898 -1.9455  0.2287
18691THY    HP463346   8.530   0.131   2.151 -0.0562  0.1557 -0.9238
18691THY    CP363347   8.676   0.372   2.107  0.0030  0.5162 -0.2301
18691THY    HP563348   8.650   0.476   2.086  1.2578 -1.0162 -0.1849
18691THY    HP663349   8.644   0.310   2.023 -0.5585  0.4232  0.1877
18691THY    HP763350   8.783   0.353   2.122  0.1255 -0.7340 -0.5684
18691THY    CA363351   8.775   0.340   2.410 -0.0896 -0.3157 -0.9048
18691THY    HA363352   8.833   0.261   2.363  2.4536  1.0288  0.0292
18691THY    CA463353   8.828   0.401   2.530 -0.0444 -0.5500 -0.3465
18691THY    HA463354   8.915   0.362   2.582 -0.9941  0.4440 -1.2248
18691THY    CA563355   8.754   0.501   2.590 -0.0108 -0.4342 -0.2932
18691THY    CM163356   8.783   0.547   2.722 -1.0167  0.3370 -0.3008
18691THY    HM163357   8.819   0.649   2.710  0.9129 -0.5360 -1.0394
18691THY    HM263358   8.867   0.490   2.763 -0.7784  1.7025  0.9900
18691THY    HM363359   8.696   0.550   2.788 -1.5458 -0.3953  1.7304
18691THY    CA663360   8.638   0.551   2.537  0.4827  1.1976 -0.6002
18691THY    HA663361   8.581   0.629   2.586  1.2294 -0.9839  1.4241
18692THY      O63362   6.495   4.802   5.114 -0.0124  0.5864  0.2474
18692THY     HO63363   6.408   4.774   5.147 -1.4795 -1.2959  2.2284
18692THY    CA163364   6.551   4.699   5.044  0.3552 -0.4638 -0.3074
18692THY    CA263365   6.669   4.715   4.966  0.2771 -0.0207  0.0425
18692THY    CP163366   6.730   4.854   4.945 -0.2676  0.0753 -0.0094
18692THY    HP163367   6.701   4.925   5.023  0.8421 -0.3965  0.9818
18692THY    CP263368   6.696   4.914   4.804  0.2668 -0.4472 -0.4693
18692THY    HP263369   6.726   4.846   4.724 -0.6084 -1.4804  0.3118
18692THY    HP363370   6.748   5.008   4.783 -1.6459 -1.0194  0.5283
18692THY    HP463371   6.587   4.925   4.798  0.4107  0.5467  2.3252
18692THY    CP363372   6.885   4.854   4.968 -0.2270 -0.3518 -0.4176
18692THY    HP563373   6.919   4.959   4.970 -1.7662  1.1906  0.0922
18692THY    HP663374   6.940   4.811   4.883 -0.6113 -0.7971 -0.0402
18692THY    HP763375   6.917   4.797   5.056 -0.4564 -1.4156 -2.2578
18692THY    CA363376   6.724   4.599   4.899  1.1945 -0.5312 -0.8769
18692THY    HA363377   6.813   4.624   4.842  0.5771 -0.2105  2.5791
18692THY    CA463378   6.659   4.477   4.908 -0.5632 -0.1530  0.6686
18692THY    HA463379   6.697   4.391   4.853 -0.3030  1.1022 -0.0392
18692THY    CA563380   6.537   4.469   4.979 -0.2831  0.2429  0.1688
18692THY    CM163381   6.467   4.335   4.977 -0.3728  0.4529  0.3878
18692THY    HM163382   6.470   4.294   4.876 -2.0826  0.2200  0.7555
18692THY    HM263383   6.360   4.342   4.997 -0.3876  1.4591 -1.7539
18692THY    HM363384   6.523   4.273   5.048  0.3111  0.8824  1.4520
18692THY    CA663385   6.486   4.577   5.046 -0.1382 -0.1182  0.2393
18692THY    HA663386   6.397   4.565   5.108  0.0437  0.5208  1.9546
18693THY      O63387   4.224   9.427   4.829 -0.1781  0.2433 -0.6561
18693THY     HO63388   4.238   9.481   4.750 -1.4735  0.2681 -0.2627
18693THY    CA163389   4.336   9.359   4.864  0.5144  0.3193  0.0741
18693THY    CA263390   4.349   9.303   4.994 -0.9788 -0.0918 -0.2610
18693THY    CP163391   4.245   9.321   5.095  0.3691 -0.0698 -0.1461
18693THY    HP163392   4.178   9.406   5.081  2.5602 -2.0003  1.3893
18693THY    CP263393   4.296   9.354   5.238 -0.4583  0.3871 -0.4077
18693THY    HP263394   4.366   9.283   5.284  1.5444  2.3586  2.5660
18693THY    HP363395   4.207   9.354   5.302 -0.1615  0.8003 -0.6467
18693THY    HP463396   4.344   9.453   5.242  0.1844  0.5669 -0.7209
18693THY    CP363397   4.173   9.180   5.095  0.6767 -0.1319 -0.4930
18693THY    HP563398   4.236   9.095   5.125  0.7863  1.3897  0.0852
18693THY    HP663399   4.146   9.144   4.995 -0.7197  0.3830 -0.9267
18693THY    HP763400   4.091   9.183   5.168  0.9297  0.1304  0.4334
18693THY    CA363401   4.470   9.234   5.021 -0.0248  0.3410  0.5497
18693THY    HA363402   4.492   9.200   5.122 -0.2790 -0.7701 -3.4985
18693THY    CA463403   4.566   9.217   4.923  0.1034  0.5231  0.4711
18693THY    HA463404   4.660   9.164   4.939  0.0990  1.3832  0.6988
18693THY    CA563405   4.546   9.260   4.792 -0.3010  0.8403  0.4189
18693THY    CM163406   4.654   9.246   4.687 -0.2193 -0.5775  0.7846
18693THY    HM163407   4.735   9.314   4.714 -1.0634 -0.0893  1.6173
18693THY    HM263408   4.620   9.258   4.584 -2.0899 -0.2574 -1.1746
18693THY    HM363409   4.682   9.140   4.695 -0.4981  1.4240  0.8127
18693THY    CA663410   4.436   9.346   4.767  0.0339  0.1476 -0.1395
18693THY    HA663411   4.425   9.389   4.668 -0.6269  0.5793  0.7027
18694THY      O63412   5.268   1.603   6.704 -0.7037  0.0743  0.1946
18694THY     HO63413   5.351   1.631   6.662  1.2557  2.6650 -1.2471
18694THY    CA163414   5.183   1.707   6.727  0.4726  0.3826  0.8516
18694THY    CA263415   5.060   1.671   6.779  0.3543  0.4585  0.5239
18694THY    CP163416   5.019   1.533   6.814 -0.3049 -0.1822 -0.2721
18694THY    HP163417   5.098   1.459   6.793  0.3109 -0.1067  0.3451
18694THY    CP263418   4.888   1.488   6.744 -0.0548  0.2017 -0.4024
18694THY    HP263419   4.813   1.565   6.765 -0.2179 -1.2216 -0.1377
18694THY    HP363420   4.855   1.392   6.785  0.6494 -2.8545 -2.1068
18694THY    HP463421   4.902   1.486   6.635 -0.5373  0.0770  1.1570
18694THY    CP363422   5.013   1.521   6.966  0.3157  0.3073  0.0985
18694THY    HP563423   5.012   1.414   6.990 -3.8612 -0.9503 -0.3344
18694THY    HP663424   4.917   1.566   6.995  0.0885  0.6005 -0.5684
18694THY    HP763425   5.093   1.573   7.020 -0.7854  1.2577  0.8669
18694THY    CA363426   4.974   1.785   6.801 -0.2183 -0.5409 -0.4345
18694THY    HA363427   4.871   1.789   6.835  0.4920  1.6099  1.9396
18694THY    CA463428   5.024   1.914   6.782  1.0500 -0.5617 -0.7531
18694THY    HA463429   4.961   2.000   6.807  0.3877 -0.7648 -1.1702
18694THY    CA563430   5.149   1.942   6.745 -0.2747  0.0692  0.7231
18694THY    CM163431   5.199   2.082   6.734 -0.9928 -0.3785 -0.0535
18694THY    HM163432   5.121   2.154   6.760  1.5076  1.4342  2.2308
18694THY    HM263433   5.249   2.103   6.639 -0.9860  0.2585  3.2658
18694THY    HM363434   5.274   2.107   6.811 -2.2964  1.4257 -1.4400
18694THY    CA663435   5.228   1.836   6.712 -0.1877  0.0875  0.5900
18694THY    HA663436   5.330   1.851   6.678  0.3669  1.3036 -0.2617
18695THY      O63437   6.606   1.429   3.574  0.6284 -0.2808 -0.1695
18695THY     HO63438   6.694   1.467   3.589  0.2903  0.3321  0.4019
18695THY    CA163439   6.526   1.540   3.591  0.5504  0.7469  0.1069
18695THY    CA263440   6.425   1.539   3.682 -0.0002  0.0673 -0.7273
18695THY    CP163441   6.392   1.406   3.749  0.1137 -0.3747 -0.5484
18695THY    HP163442   6.447   1.315   3.721  0.5630  2.3756 -1.2190
18695THY    CP263443   6.237   1.373   3.733 -0.1150 -0.3858  0.0391
18695THY    HP263444   6.177   1.464   3.732 -0.8838 -2.2320 -0.4400
18695THY    HP363445   6.200   1.324   3.823 -0.9993 -0.0371  1.3157
18695THY    HP463446   6.212   1.320   3.640 -2.1165  0.3401 -0.3776
18695THY    CP363447   6.411   1.423   3.902 -0.1006  0.1135 -0.1633
18695THY    HP563448   6.339   1.500   3.932 -1.2078  0.0299 -1.1351
18695THY    HP663449   6.511   1.460   3.927 -0.5371 -0.2025  1.2738
18695THY    HP763450   6.392   1.329   3.956  0.7560 -0.3494 -0.6094
18695THY    CA363451   6.338   1.650   3.700  0.4635 -0.0786  0.0116
18695THY    HA363452   6.262   1.651   3.778  1.6005  1.0579  1.3004
18695THY    CA463453   6.371   1.766   3.634 -0.4464  0.2677  0.3278
18695THY    HA463454   6.314   1.856   3.654  0.8056  0.7775  1.0375
18695THY    CA563455   6.475   1.774   3.539  0.0232 -1.0381  0.4247
18695THY    CM163456   6.513   1.907   3.473 -0.3369 -0.5662  0.1459
18695THY    HM163457   6.587   1.960   3.534 -0.7647 -1.1021  1.3900
18695THY    HM263458   6.430   1.975   3.454 -1.3667 -0.3644 -1.0154
18695THY    HM363459   6.576   1.901   3.383 -0.2952 -0.6061  1.0644
18695THY    CA663460   6.555   1.657   3.519 -0.3686 -0.2803 -0.3915
18695THY    HA663461   6.631   1.663   3.441 -0.9137 -0.8401 -0.6323
18696THY      O63462   0.773   7.576   2.698  0.5457 -0.2518 -0.4873
18696THY     HO63463   0.759   7.483   2.674 -0.0796  1.3824 -0.8561
18696THY    CA163464   0.906   7.586   2.710  0.2589  0.0748  0.4169
18696THY    CA263465   0.969   7.709   2.698 -0.4342 -0.8828 -0.1315
18696THY    CP163466   0.893   7.828   2.652  0.8395  0.8036 -0.4100
18696THY    HP163467   0.789   7.803   2.625  0.6159  0.6505  0.6113
18696THY    CP263468   0.967   7.880   2.519  0.0345 -0.2464  0.0356
18696THY    HP263469   0.901   7.939   2.454  0.8140 -1.1893 -0.1020
18696THY    HP363470   0.997   7.789   2.466  1.3014 -0.9686  0.8454
18696THY    HP463471   1.056   7.938   2.544 -0.0442  0.9831 -0.3556
18696THY    CP363472   0.873   7.936   2.756  0.0042 -0.2682  0.0791
18696THY    HP563473   0.790   7.997   2.718  0.1326 -2.2010 -0.8748
18696THY    HP663474   0.952   8.004   2.790  1.6146  0.0955 -1.8749
18696THY    HP763475   0.828   7.886   2.842 -1.3787 -0.7921  0.3869
18696THY    CA363476   1.105   7.711   2.729  0.4170 -0.0035  0.9838
18696THY    HA363477   1.169   7.798   2.719  1.1701  1.5112  0.6344
18696THY    CA463478   1.168   7.600   2.782 -0.2638  0.3481 -0.5740
18696THY    HA463479   1.275   7.610   2.797 -0.1241 -0.9011  0.0791
18696THY    CA563480   1.103   7.480   2.789 -0.0971 -0.4396 -0.4084
18696THY    CM163481   1.169   7.361   2.846  0.5709 -0.1993 -0.8420
18696THY    HM163482   1.181   7.290   2.763 -0.8859 -1.1761  0.0041
18696THY    HM263483   1.098   7.302   2.904 -0.1100 -1.5249 -1.3777
18696THY    HM363484   1.255   7.396   2.904 -0.6677 -0.6978  3.5597
18696THY    CA663485   0.971   7.469   2.750 -0.1611  0.0341 -0.3273
18696THY    HA663486   0.927   7.370   2.755 -0.0595 -2.2245 -0.5446
18697THY      O63487   2.321   8.077   2.288 -0.5927 -0.4318 -0.4051
18697THY     HO63488   2.275   8.081   2.374 -2.1634 -1.2530 -0.2142
18697THY    CA163489   2.451   8.110   2.316  0.4152  0.3548  0.1684
18697THY    CA263490   2.547   8.112   2.216  0.3170  0.1607 -0.1767
18697THY    CP163491   2.512   8.070   2.075  0.0410 -0.3575  0.5785
18697THY    HP163492   2.409   8.038   2.059  0.5151 -0.5986 -0.9046
18697THY    CP263493   2.602   7.947   2.039 -0.5944  0.1740 -0.2402
18697THY    HP263494   2.595   7.870   2.117 -0.7810 -0.8064 -1.2577
18697THY    HP363495   2.707   7.978   2.040 -0.6316  0.0550 -0.1110
18697THY    HP463496   2.576   7.898   1.944 -1.9350 -0.1673  1.0753
18697THY    CP363497   2.545   8.193   1.996  0.3207 -0.0678 -0.4665
18697THY    HP563498   2.533   8.166   1.890 -1.4509  0.2976 -1.2717
18697THY    HP663499   2.645   8.233   2.016  0.2213 -1.4277  0.5651
18697THY    HP763500   2.473   8.271   2.024 -3.1226 -0.0692 -3.3648
18697THY    CA363501   2.679   8.155   2.253  0.4127  0.8929 -0.3688
18697THY    HA363502   2.763   8.175   2.187  0.9891  1.4133 -1.0235
18697THY    CA463503   2.702   8.211   2.381  0.2484 -0.4878  0.1879
18697THY    HA463504   2.800   8.253   2.400 -0.1330 -2.6168  2.2710
18697THY    CA563505   2.605   8.197   2.472 -0.3571 -0.7673  0.1355
18697THY    CM163506   2.632   8.250   2.612  0.1811 -0.1165  0.1548
18697THY    HM163507   2.593   8.349   2.639 -0.3692 -0.7680  0.1182
18697THY    HM263508   2.738   8.261   2.639  0.5979 -0.3203 -2.6670
18697THY    HM363509   2.581   8.178   2.676  0.0375 -0.9609 -0.5033
18697THY    CA663510   2.484   8.145   2.443  0.6281 -0.4947 -0.5656
18697THY    HA663511   2.409   8.135   2.521 -0.6116 -1.4948  0.4362
18698THY      O63512   5.751   4.900   3.198 -0.5224  0.4022 -0.1027
18698THY     HO63513   5.688   4.956   3.149  1.0201 -1.5407  0.0442
18698THY    CA163514   5.701   4.881   3.316 -0.3301 -0.4760  0.8271
18698THY    CA263515   5.775   4.824   3.418 -0.3764  1.1204 -0.0775
18698THY    CP163516   5.919   4.775   3.400  0.4166 -0.2803  0.2225
18698THY    HP163517   5.951   4.802   3.299  1.3257 -0.5757 -1.7651
18698THY    CP263518   5.934   4.623   3.398  0.0681  0.6776  0.5577
18698THY    HP263519   5.871   4.575   3.322 -2.6838  1.1097  3.1868
18698THY    HP363520   5.898   4.579   3.492 -2.0104  0.3397  1.4317
18698THY    HP463521   6.040   4.598   3.383 -0.0421  1.3071 -0.3363
18698THY    CP363522   6.010   4.834   3.510  0.8657  0.3582 -0.2233
18698THY    HP563523   6.111   4.865   3.481 -0.5190 -1.3360  3.1723
18698THY    HP663524   6.020   4.766   3.596 -1.1924 -0.5738 -1.7939
18698THY    HP763525   5.964   4.930   3.535  0.3308 -0.8362 -0.1610
18698THY    CA363526   5.722   4.814   3.545  1.3950 -0.4290  0.2760
18698THY    HA363527   5.781   4.773   3.627 -2.4305  1.8325 -1.1980
18698THY    CA463528   5.589   4.863   3.563  0.9873 -0.4644  0.4797
18698THY    HA463529   5.543   4.864   3.661 -0.7386 -1.2075 -0.4703
18698THY    CA563530   5.517   4.915   3.457  0.2328  0.5463  0.6931
18698THY    CM163531   5.382   4.981   3.479  0.4109  0.7481 -0.4380
18698THY    HM163532   5.364   5.043   3.391 -2.6325  0.9829 -0.8152
18698THY    HM263533   5.383   5.039   3.572 -0.5330  0.0515  0.7353
18698THY    HM363534   5.305   4.903   3.489 -1.7754  0.3599  1.5603
18698THY    CA663535   5.577   4.928   3.331  0.0079  0.0860 -0.1648
18698THY    HA663536   5.523   4.972   3.247 -0.6742 -0.0397 -1.2196
18699THY      O63537   1.293   3.578   7.710  0.7591  0.5196  0.1397
18699THY     HO63538   1.224   3.569   7.777 -1.0860 -1.3914 -0.9019
18699THY    CA163539   1.406   3.513   7.751  0.2405 -0.2988  0.5111
18699THY    CA263540   1.527   3.523   7.686  0.7677  0.0916  0.6121
18699THY    CP163541   1.551   3.627   7.574  0.1678  0.2419  0.2398
18699THY    HP163542   1.469   3.699   7.575  0.8142  0.9892  0.9782
18699THY    CP263543   1.570   3.559   7.441 -0.2814  0.1678  0.0875
18699THY    HP263544   1.650   3.611   7.388  1.5145  2.0857 -0.5837
18699THY    HP363545   1.477   3.578   7.386  0.2703 -0.2041  1.9534
18699THY    HP463546   1.592   3.452   7.451  0.7218 -1.0714  0.1591
18699THY    CP363547   1.679   3.717   7.608  0.4205  0.6637 -0.4266
18699THY    HP563548   1.650   3.771   7.699 -1.1657 -1.1223  1.9721
18699THY    HP663549   1.692   3.789   7.526 -0.0969 -0.5683 -1.6922
18699THY    HP763550   1.773   3.662   7.623  1.2319 -3.2990 -0.4665
18699THY    CA363551   1.635   3.448   7.733 -0.2369 -0.0091  0.2413
18699THY    HA363552   1.726   3.452   7.674  1.2061  2.0388 -0.9943
18699THY    CA463553   1.622   3.366   7.842 -0.1746 -0.4110 -0.6432
18699THY    HA463554   1.711   3.310   7.871 -0.1688  0.6940 -0.0851
18699THY    CA563555   1.496   3.350   7.897 -0.0741 -0.6403 -0.5533
18699THY    CM163556   1.466   3.253   8.003 -0.2292  0.1014 -0.2189
18699THY    HM163557   1.556   3.248   8.065 -0.2407  0.3196  1.6973
18699THY    HM263558   1.455   3.158   7.950 -2.4966  0.8753 -0.4326
18699THY    HM363559   1.380   3.282   8.063  0.2227  0.7713 -0.2568
18699THY    CA663560   1.384   3.424   7.852 -0.1248 -0.9752  0.8145
18699THY    HA663561   1.286   3.400   7.891  1.1019  0.9974 -1.3412
18700THY      O63562   4.904   8.318   4.067  0.4240 -0.0568 -0.5614
18700THY     HO63563   4.994   8.325   4.103  0.2323  0.3676 -0.2223
18700THY    CA163564   4.827   8.427   4.096 -0.1262  0.6503 -0.5005
18700THY    CA263565   4.694   8.428   4.066 -0.7417 -0.7113  0.9929
18700THY    CP163566   4.626   8.311   3.996 -0.5174 -0.2065 -0.2747
18700THY    HP163567   4.695   8.226   4.001  0.7077 -2.1604  0.5412
18700THY    CP263568   4.623   8.335   3.845  0.0665 -0.1723 -0.9752
18700THY    HP263569   4.556   8.420   3.830 -1.0807 -0.0704 -1.8371
18700THY    HP363570   4.579   8.245   3.800 -1.2121  1.7128 -1.3652
18700THY    HP463571   4.723   8.356   3.806 -0.1025 -0.1122 -0.0091
18700THY    CP363572   4.488   8.272   4.054 -0.5123 -0.2893  0.0812
18700THY    HP563573   4.427   8.362   4.069  1.0091 -1.4448  1.3731
18700THY    HP663574   4.509   8.217   4.146  0.0336 -1.5319 -1.8703
18700THY    HP763575   4.441   8.198   3.989  0.6858  0.3661 -1.3018
18700THY    CA363576   4.625   8.550   4.082  0.1858  0.4273 -0.0153
18700THY    HA363577   4.524   8.557   4.043  0.6090 -0.4271  1.8620
18700THY    CA463578   4.682   8.660   4.156 -0.0525  0.0612 -0.2507
18700THY    HA463579   4.625   8.749   4.178  1.2766 -2.2030  1.2754
18700THY    CA563580   4.818   8.655   4.177 -0.0245 -0.7265  0.0772
18700THY    CM163581   4.889   8.772   4.235 -0.5484 -0.3105 -0.0542
18700THY    HM163582   4.896   8.851   4.159  0.4318 -0.7082 -0.4988
18700THY    HM263583   4.987   8.732   4.263 -0.1848 -2.9448 -1.2622
18700THY    HM363584   4.856   8.819   4.328  2.9269 -0.3468  2.8973
18700THY    CA663585   4.890   8.535   4.150  0.0288 -0.5038 -0.1349
18700THY    HA663586   4.995   8.531   4.177 -0.0775  0.5600  2.6835
18701THY      O63587   7.521   2.075   7.680  0.6802 -0.1825 -0.1085
18701THY     HO63588   7.600   2.072   7.736  0.0633  0.7002 -0.4207
18701THY    CA163589   7.510   1.954   7.645  0.8130  0.6455  0.0708
18701THY    CA263590   7.411   1.917   7.554  0.6640 -0.1959  0.7516
18701THY    CP163591   7.308   2.023   7.509  0.6275  0.8152  0.1639
18701THY    HP163592   7.326   2.127   7.539  1.8592 -2.8058  1.1594
18701THY    CP263593   7.166   1.972   7.549 -0.0027  0.1161  0.1878
18701THY    HP263594   7.084   2.000   7.483  0.7998 -1.4628 -1.0291
18701THY    HP363595   7.140   2.033   7.636  0.5056 -0.6801  1.5713
18701THY    HP463596   7.152   1.867   7.580 -1.5589  0.2751  0.4290
18701THY    CP363597   7.312   2.035   7.356  0.1066  0.7117 -0.3037
18701THY    HP563598   7.273   2.127   7.312  0.0646 -3.1388 -1.9526
18701THY    HP663599   7.281   1.946   7.300  1.0191 -0.6819  0.2102
18701THY    HP763600   7.416   2.048   7.324 -0.2943 -0.2495  0.6957
18701THY    CA363601   7.403   1.780   7.520  0.3990  0.5858 -0.5988
18701THY    HA363602   7.343   1.741   7.438  1.2171  0.6872 -2.1471
18701THY    CA463603   7.494   1.688   7.572 -0.0105  0.1304 -0.2088
18701THY    HA463604   7.482   1.584   7.540 -1.4760 -0.3379  0.0740
18701THY    CA563605   7.585   1.728   7.670 -0.4200  0.1027  0.5153
18701THY    CM163606   7.695   1.638   7.718  0.0455  0.0822  0.0989
18701THY    HM163607   7.702   1.636   7.828  0.8941  0.0581 -3.2223
18701THY    HM263608   7.794   1.659   7.674 -0.5507 -0.6982  1.4391
18701THY    HM363609   7.665   1.539   7.685 -0.4744  1.7073 -0.3144
18701THY    CA663610   7.601   1.863   7.699  0.1052 -0.4910 -0.3552
18701THY    HA663611   7.678   1.904   7.764 -0.3770  0.1455 -0.4459
18702THY      O63612   3.093   2.989   3.284 -0.0818 -0.6073 -0.3119
18702THY     HO63613   3.068   3.023   3.372  2.4496  0.8275 -1.7467
18702THY    CA163614   3.042   2.859   3.282 -0.5092 -0.5302 -0.0004
18702THY    CA263615   2.926   2.825   3.207 -0.2617  0.2626  0.4463
18702THY    CP163616   2.844   2.939   3.141  0.5034 -0.2514 -0.9328
18702THY    HP163617   2.900   3.033   3.150  1.1291 -2.1335 -1.0895
18702THY    CP263618   2.718   2.963   3.211 -0.2827 -0.5038 -0.0006
18702THY    HP263619   2.671   3.054   3.170  0.3626 -0.2911  0.4370
18702THY    HP363620   2.749   2.989   3.312  1.0582 -0.7779 -0.4768
18702THY    HP463621   2.656   2.874   3.203 -1.3740  0.6491  0.6251
18702THY    CP363622   2.822   2.912   2.997 -0.2990  1.0202  0.1098
18702THY    HP563623   2.919   2.901   2.948  0.1998  1.8363  0.7932
18702THY    HP663624   2.781   2.995   2.938  0.5462  0.1744 -0.0557
18702THY    HP763625   2.755   2.825   2.994 -0.7558  0.0097  0.4775
18702THY    CA363626   2.886   2.690   3.192  0.3426  0.0418 -0.0070
18702THY    HA363627   2.802   2.659   3.130  0.5353 -0.2511  0.0548
18702THY    CA463628   2.959   2.588   3.256  0.1213 -0.2700 -0.0650
18702THY    HA463629   2.931   2.484   3.244 -1.7411  1.0881  0.2270
18702THY    CA563630   3.078   2.620   3.328  0.5688  0.0513  0.1867
18702THY    CM163631   3.168   2.515   3.373  0.8361  0.4638  0.5519
18702THY    HM163632   3.108   2.425   3.392 -1.5390  2.0177  2.3256
18702THY    HM263633   3.203   2.548   3.472 -0.7089  1.4441 -0.5734
18702THY    HM363634   3.254   2.498   3.308  1.3057  0.4659  2.7163
18702THY    CA663635   3.118   2.758   3.334  0.1280 -0.4216  0.8103
18702THY    HA663636   3.212   2.780   3.385  1.1739 -1.4517 -0.9620
18703THY      O63637   1.469   5.545   3.665 -0.0998  0.3012 -0.3398
18703THY     HO63638   1.457   5.637   3.693  0.5791  0.5219 -0.3078
18703THY    CA163639   1.413   5.549   3.544  0.1183  0.0362  0.3055
18703THY    CA263640   1.409   5.440   3.453 -0.4368 -0.2491  0.8994
18703THY    CP163641   1.440   5.295   3.496 -0.5372  0.6628  0.1175
18703THY    HP163642   1.498   5.292   3.589 -1.5062  1.2788 -2.1203
18703THY    CP263643   1.529   5.217   3.403  0.2025  0.3989 -0.4475
18703THY    HP263644   1.553   5.121   3.449  0.5145  1.7525  0.2524
18703THY    HP363645   1.624   5.269   3.383 -0.7303 -2.2025  0.4554
18703THY    HP463646   1.490   5.189   3.305 -0.1050  0.0317  1.1609
18703THY    CP363647   1.310   5.217   3.525  0.3559 -0.0309  0.1966
18703THY    HP563648   1.338   5.113   3.544 -1.2295 -0.9217 -0.4306
18703THY    HP663649   1.230   5.221   3.450 -0.1182  0.4786  0.3744
18703THY    HP763650   1.271   5.260   3.618 -0.0015 -0.0940  0.0096
18703THY    CA363651   1.363   5.464   3.323 -0.9885  0.6500  0.2163
18703THY    HA363652   1.352   5.394   3.241 -0.8444  1.1623 -0.4194
18703THY    CA463653   1.306   5.590   3.291 -0.1537 -0.1781  0.3463
18703THY    HA463654   1.258   5.604   3.194  1.2720 -0.8304  1.0101
18703THY    CA563655   1.306   5.696   3.383  0.0212  0.6177 -0.3598
18703THY    CM163656   1.246   5.819   3.337  0.3866 -0.7571 -0.4096
18703THY    HM163657   1.142   5.813   3.304  0.2920 -0.4445 -0.5268
18703THY    HM263658   1.316   5.866   3.267  0.8022 -0.6870 -0.9078
18703THY    HM363659   1.243   5.881   3.427  0.6840 -0.2735 -1.0740
18703THY    CA663660   1.356   5.672   3.513  0.5323 -0.0950 -0.3965
18703THY    HA663661   1.351   5.752   3.586 -5.0141 -1.5460  0.9685
18704THY      O63662   5.938   4.717   4.979  0.0580  0.0295  0.3849
18704THY     HO63663   5.893   4.632   4.992  0.6942 -0.4995 -0.0446
18704THY    CA163664   6.017   4.710   5.084 -0.1115 -0.5619  0.1104
18704THY    CA263665   6.086   4.820   5.130  0.2241  0.2095 -0.1854
18704THY    CP163666   6.062   4.951   5.055 -0.2701 -0.0875 -0.2507
18704THY    HP163667   6.001   4.951   4.964 -2.4868  1.3096 -0.8419
18704THY    CP263668   6.200   5.019   5.008 -0.0978  0.4734  0.4091
18704THY    HP263669   6.267   5.042   5.091  0.4986 -0.4760  2.3199
18704THY    HP363670   6.177   5.112   4.955  1.7814 -0.7627  0.2205
18704THY    HP463671   6.248   4.949   4.937 -0.0470  0.7612  0.1518
18704THY    CP363672   6.005   5.056   5.151  0.7654 -0.0805 -0.1237
18704THY    HP563673   5.909   5.024   5.194  0.2056 -1.3706 -0.2256
18704THY    HP663674   5.991   5.150   5.097  2.1119  2.6649  1.8015
18704THY    HP763675   6.061   5.079   5.243  1.3746  0.3500 -2.9738
18704THY    CA363676   6.180   4.804   5.238  0.4740 -0.1766 -0.4146
18704THY    HA363677   6.237   4.886   5.281 -1.8668  0.9540  0.6956
18704THY    CA463678   6.200   4.670   5.288 -0.2501 -0.0070 -0.0910
18704THY    HA463679   6.268   4.656   5.372  0.1694  0.7263  4.7162
18704THY    CA563680   6.128   4.558   5.244  0.0377  1.2424  0.4458
18704THY    CM163681   6.144   4.418   5.300 -0.1795  0.6721  0.1073
18704THY    HM163682   6.215   4.357   5.244  1.9639  2.0406  1.2157
18704THY    HM263683   6.048   4.366   5.301 -0.6085  0.1070  0.8669
18704THY    HM363684   6.179   4.423   5.404 -1.0342  0.9196  1.3145
18704THY    CA663685   6.039   4.578   5.138  0.3040  0.1127 -0.1821
18704THY    HA663686   5.986   4.490   5.102  0.3836  0.9053 -0.5670
18705THY      O63687   2.442   4.960   2.024 -0.2394  0.1231 -0.0166
18705THY     HO63688   2.450   5.040   1.969 -2.6993 -0.3716 -0.0312
18705THY    CA163689   2.491   4.846   1.965 -0.0216 -0.4609 -0.2142
18705THY    CA263690   2.512   4.733   2.049 -0.3429  0.9208  0.4685
18705THY    CP163691   2.474   4.732   2.198 -0.5316 -0.0004 -0.0963
18705THY    HP163692   2.403   4.815   2.209 -0.2212 -0.8183  0.2879
18705THY    CP263693   2.590   4.754   2.292 -0.6223 -0.2397  0.4363
18705THY    HP263694   2.634   4.854   2.279 -1.0518  2.5602  1.0578
18705THY    HP363695   2.664   4.673   2.294  0.2461 -1.6053  1.1534
18705THY    HP463696   2.548   4.752   2.393  1.1759  0.5754  1.2299
18705THY    CP363697   2.388   4.607   2.236 -0.1185  1.1585 -0.7052
18705THY    HP563698   2.290   4.621   2.189  0.4968  0.1367  0.3798
18705THY    HP663699   2.362   4.599   2.342  0.0114  1.1301 -1.5574
18705THY    HP763700   2.438   4.513   2.209 -0.9576 -0.9166 -0.5998
18705THY    CA363701   2.578   4.622   1.979  0.8001  0.5292  0.5749
18705THY    HA363702   2.606   4.531   2.032  1.4318 -0.3785  0.2312
18705THY    CA463703   2.605   4.622   1.846 -0.6859  0.3293 -0.7824
18705THY    HA463704   2.653   4.539   1.795  0.9343 -1.5204  1.1596
18705THY    CA563705   2.579   4.737   1.766  0.7134 -0.9779  0.4193
18705THY    CM163706   2.612   4.735   1.621  0.5590 -0.1504 -0.1405
18705THY    HM163707   2.514   4.735   1.571  0.4429  0.0680  0.2707
18705THY    HM263708   2.655   4.637   1.600  1.6985  0.3621  0.2417
18705THY    HM363709   2.669   4.826   1.600 -0.6590 -1.6502  0.3272
18705THY    CA663710   2.524   4.852   1.830 -0.0123 -0.1100  0.5554
18705THY    HA663711   2.508   4.941   1.770  2.0816 -1.2061  0.2684
18706THY      O63712   1.419   1.779   3.299  0.0380 -0.3863 -0.5749
18706THY     HO63713   1.425   1.684   3.320 -0.3128  0.6357 -0.3891
18706THY    CA163714   1.370   1.837   3.416 -0.2230 -0.1021 -0.0015
18706THY    CA263715   1.299   1.955   3.406 -0.3467  0.1347  0.1793
18706THY    CP163716   1.272   2.022   3.270 -0.0746  0.9095  0.4098
18706THY    HP163717   1.356   2.006   3.200  0.1107  0.2112  3.7790
18706THY    CP263718   1.266   2.177   3.273  0.5297  0.4092  0.9016
18706THY    HP263719   1.181   2.213   3.333 -0.6799 -0.5968 -0.1520
18706THY    HP363720   1.244   2.211   3.171 -0.6576  0.3332 -0.0301
18706THY    HP463721   1.363   2.220   3.298  0.6032  1.0923  0.3476
18706THY    CP363722   1.138   1.969   3.208 -0.2368  0.0372 -0.1645
18706THY    HP563723   1.115   2.017   3.113  2.1473  0.6497  2.4326
18706THY    HP663724   1.056   1.991   3.278 -1.4327 -1.3936  0.0450
18706THY    HP763725   1.139   1.860   3.195  0.3085 -1.2654 -0.0161
18706THY    CA363726   1.261   2.015   3.530 -0.3198 -1.0676 -0.6745
18706THY    HA363727   1.205   2.108   3.531  1.1055  0.6134  0.2365
18706THY    CA463728   1.279   1.934   3.650 -0.0224 -0.5549  0.0327
18706THY    HA463729   1.227   1.964   3.740  0.0645 -0.6283  0.4110
18706THY    CA563730   1.350   1.818   3.651 -0.5061  0.6251  0.0382
18706THY    CM163731   1.364   1.734   3.771 -0.2071 -0.4398 -0.0772
18706THY    HM163732   1.470   1.715   3.791 -0.1050 -0.0051  0.8915
18706THY    HM263733   1.300   1.644   3.765 -0.8657  0.7512  0.2906
18706THY    HM363734   1.328   1.784   3.862 -0.4223 -0.4754 -0.1637
18706THY    CA663735   1.406   1.776   3.529  0.4318 -0.6048  0.8747
18706THY    HA663736   1.453   1.679   3.525 -1.9689  2.2232 -0.5350
18707THY      O63737   7.119   2.870   2.492  0.2994  0.5826 -0.0755
18707THY     HO63738   7.159   2.818   2.421  1.6024  0.8834  0.4803
18707THY    CA163739   7.161   2.997   2.469 -0.3071  0.0774  1.3874
18707THY    CA263740   7.125   3.098   2.559  0.1547 -0.5227 -0.1189
18707THY    CP163741   7.079   3.063   2.701  0.3743 -0.4256  0.2345
18707THY    HP163742   7.018   2.971   2.707 -0.2653  2.3741  0.7423
18707THY    CP263743   6.988   3.162   2.772  0.2099  0.3369 -0.0140
18707THY    HP263744   7.044   3.250   2.805 -0.0081  2.1856 -0.5277
18707THY    HP363745   6.948   3.123   2.866 -0.6778 -0.0935 -0.1837
18707THY    HP463746   6.896   3.192   2.720 -1.1823  3.1453  0.9534
18707THY    CP363747   7.202   3.032   2.788 -0.3699 -0.0277 -0.2852
18707THY    HP563748   7.285   3.102   2.771 -1.1941  1.9132  1.2528
18707THY    HP663749   7.236   2.931   2.759 -0.2218  0.7187 -0.4537
18707THY    HP763750   7.184   3.020   2.895  0.2639  0.2195  0.8086
18707THY    CA363751   7.164   3.229   2.531 -0.1055 -0.2486 -0.6815
18707THY    HA363752   7.151   3.310   2.601  2.7992 -0.2368 -0.1113
18707THY    CA463753   7.228   3.254   2.410 -0.3994 -0.3322 -0.2812
18707THY    HA463754   7.253   3.353   2.371  0.2446  1.4496  0.2986
18707THY    CA563755   7.247   3.161   2.314 -0.2876  0.8198 -0.6921
18707THY    CM163756   7.327   3.191   2.193  0.0613 -0.3363 -0.2559
18707THY    HM163757   7.398   3.119   2.150  1.4033  1.1405  0.1251
18707THY    HM263758   7.381   3.286   2.187  2.5117  1.2080 -1.4576
18707THY    HM363759   7.249   3.201   2.116 -0.5228  0.3070  0.2587
18707THY    CA663760   7.222   3.028   2.343  0.6057 -0.0671  0.2239
18707THY    HA663761   7.249   2.947   2.276  0.8308 -0.0780  0.3079
18708THY      O63762   5.529   2.840   2.626  0.1193 -0.7563 -0.0133
18708THY     HO63763   5.569   2.751   2.625  0.7672 -1.4615  0.2717
18708THY    CA163764   5.540   2.880   2.496 -0.3558 -0.5757 -0.0700
18708THY    CA263765   5.466   2.986   2.448 -0.0627  0.4056 -0.3343
18708THY    CP163766   5.380   3.072   2.531  0.5845  0.2225  0.2851
18708THY    HP163767   5.362   3.034   2.632 -1.4975 -0.6110 -1.1023
18708THY    CP263768   5.234   3.091   2.474 -0.0958  0.4292  0.0482
18708THY    HP263769   5.176   3.144   2.550 -0.7341  1.0111 -1.4414
18708THY    HP363770   5.188   2.993   2.459 -0.8260  1.8059  0.1627
18708THY    HP463771   5.228   3.151   2.382 -1.3595  0.5701  0.1680
18708THY    CP363772   5.441   3.211   2.544  0.7707  0.4656 -0.3349
18708THY    HP563773   5.382   3.269   2.615  1.2822  2.2412 -1.8593
18708THY    HP663774   5.433   3.274   2.455  0.0019  0.3938 -0.5228
18708THY    HP763775   5.545   3.207   2.581  1.1538 -0.6306 -1.1914
18708THY    CA363776   5.488   3.027   2.316 -0.0933  0.4303 -0.0790
18708THY    HA363777   5.439   3.117   2.281 -0.2147 -1.5106 -0.8650
18708THY    CA463778   5.580   2.961   2.232  0.2736 -0.1822 -0.6854
18708THY    HA463779   5.594   2.994   2.129 -1.4018 -1.0493 -2.4660
18708THY    CA563780   5.654   2.855   2.285  0.8434 -0.5724  0.1342
18708THY    CM163781   5.753   2.785   2.197  0.2223  0.1316 -0.1219
18708THY    HM163782   5.840   2.849   2.181  0.0866 -0.4466 -0.0750
18708THY    HM263783   5.701   2.761   2.103 -1.3986  1.6164 -2.9330
18708THY    HM363784   5.781   2.690   2.245  0.1387 -1.0522 -0.7669
18708THY    CA663785   5.626   2.811   2.415  0.0032  0.0762  0.1241
18708THY    HA663786   5.689   2.730   2.451 -0.7707  0.1846 -0.4408
18709THY      O63787   8.359   8.494   4.728 -0.1548  0.4771 -0.1934
18709THY     HO63788   8.314   8.518   4.811 -0.8595 -0.6057  2.6584
18709THY    CA163789   8.458   8.398   4.758 -0.0472  0.5946  0.3316
18709THY    CA263790   8.518   8.325   4.658  0.0540 -0.0211  0.4285
18709THY    CP163791   8.507   8.349   4.507  0.1573  0.5758  0.6698
18709THY    HP163792   8.451   8.441   4.486  1.3433  2.7150  1.9692
18709THY    CP263793   8.427   8.228   4.450  0.0257 -0.7075 -0.0376
18709THY    HP263794   8.329   8.219   4.498 -0.2203 -1.0753  0.6351
18709THY    HP363795   8.481   8.133   4.458 -0.2815 -0.2956 -0.1803
18709THY    HP463796   8.410   8.259   4.346  0.7987 -0.1191  2.6215
18709THY    CP363797   8.635   8.394   4.436 -0.0073 -0.2885 -0.0576
18709THY    HP563798   8.615   8.435   4.336  0.1555 -1.2579 -2.2162
18709THY    HP663799   8.710   8.315   4.421 -0.5098  1.7311 -0.9851
18709THY    HP763800   8.695   8.457   4.503  2.7020 -1.8435 -0.7939
18709THY    CA363801   8.604   8.223   4.701  0.0815 -0.4876  0.2834
18709THY    HA363802   8.666   8.167   4.632  0.9785  0.2344  0.3803
18709THY    CA463803   8.623   8.193   4.841 -0.0877 -0.3946  0.5144
18709THY    HA463804   8.693   8.124   4.886  0.9250  1.3945  2.5961
18709THY    CA563805   8.571   8.280   4.936 -0.4758 -0.4282 -0.0397
18709THY    CM163806   8.603   8.271   5.081 -0.2099 -0.0693  0.1562
18709THY    HM163807   8.538   8.205   5.140  0.4752  2.2038  1.3952
18709THY    HM263808   8.589   8.371   5.124 -0.5083 -1.9239  0.9626
18709THY    HM363809   8.706   8.238   5.097 -0.6252 -1.2753 -1.8993
18709THY    CA663810   8.488   8.386   4.892  0.0604  0.6487  0.6344
18709THY    HA663811   8.440   8.445   4.970 -0.8059  0.2471  0.4790
18710THY      O63812   3.052   6.653   2.566 -0.1484 -0.1449  0.0060
18710THY     HO63813   3.113   6.726   2.545  0.1042  0.3962 -0.0482
18710THY    CA163814   3.028   6.689   2.699 -0.7489 -0.1520 -0.8287
18710THY    CA263815   3.021   6.595   2.803  0.6823  0.1893  0.5856
18710THY    CP163816   3.031   6.443   2.781 -0.5194  0.3677  0.2829
18710THY    HP163817   3.047   6.411   2.677  0.1410  0.5279  0.0771
18710THY    CP263818   2.908   6.371   2.828 -0.3968  0.2209 -0.7129
18710THY    HP263819   2.906   6.267   2.794 -1.7427 -1.2213 -0.2595
18710THY    HP363820   2.826   6.418   2.772 -0.5046  2.1958  1.6710
18710THY    HP463821   2.885   6.370   2.935  1.7511  0.7374 -1.0557
18710THY    CP363822   3.164   6.387   2.844 -0.1194  0.1333  0.2447
18710THY    HP563823   3.150   6.279   2.835  1.3598  2.6496 -0.2446
18710THY    HP663824   3.171   6.412   2.951 -3.0376  0.3811  0.2850
18710THY    HP763825   3.251   6.422   2.788  0.2998  0.4973 -0.2037
18710THY    CA363826   3.006   6.644   2.936  0.8605 -0.1609  0.5610
18710THY    HA363827   3.008   6.573   3.018  0.6656 -0.6803 -0.0598
18710THY    CA463828   2.989   6.778   2.959 -0.6210  0.3678  0.1138
18710THY    HA463829   2.970   6.815   3.059 -1.5802  0.3925 -0.4195
18710THY    CA563830   2.999   6.867   2.858  0.6394  0.8155 -0.1671
18710THY    CM163831   2.968   7.015   2.883 -0.0564 -0.5412 -0.1142
18710THY    HM163832   2.967   7.068   2.787 -3.0091  0.1849  1.3758
18710THY    HM263833   3.047   7.065   2.940  0.4430 -0.4609 -0.9888
18710THY    HM363834   2.868   7.019   2.928  0.1057 -0.1668 -0.2298
18710THY    CA663835   3.031   6.827   2.727 -0.0020 -0.2530  0.2696
18710THY    HA663836   3.030   6.898   2.645  0.3405  0.5174  1.1875
18711THY      O63837   8.586   2.697   3.362 -0.5603 -0.4944 -0.1170
18711THY     HO63838   8.579   2.613   3.410 -0.4175  0.9423  0.6598
18711THY    CA163839   8.666   2.673   3.259  0.4310  0.0656  0.9311
18711THY    CA263840   8.631   2.695   3.125  0.4740  0.0102 -0.0135
18711THY    CP163841   8.494   2.753   3.094 -0.8380 -0.1692  0.2265
18711THY    HP163842   8.437   2.780   3.184 -0.3955 -0.0874  0.9137
18711THY    CP263843   8.414   2.644   3.019  0.6932 -0.4046 -0.4287
18711THY    HP263844   8.391   2.566   3.092 -0.2260 -1.1062 -0.8334
18711THY    HP363845   8.479   2.601   2.942  2.0490  1.1291 -1.2041
18711THY    HP463846   8.327   2.695   2.976  0.8264 -0.1963 -0.0213
18711THY    CP363847   8.496   2.881   3.009 -0.0252 -0.0825 -0.0477
18711THY    HP563848   8.405   2.941   3.020  0.7509 -3.8877  2.1748
18711THY    HP663849   8.524   2.861   2.904  0.0203  0.1029 -1.0017
18711THY    HP763850   8.572   2.944   3.056 -0.2252  0.1754  0.0030
18711THY    CA363851   8.718   2.668   3.016  0.0811  0.9099  0.3577
18711THY    HA363852   8.705   2.694   2.911 -0.3279  0.8610 -0.0452
18711THY    CA463853   8.843   2.620   3.051  0.2460 -0.1895 -0.5598
18711THY    HA463854   8.919   2.597   2.977  2.4477  0.7795  2.8514
18711THY    CA563855   8.885   2.597   3.178  0.0898  0.0438 -0.8652
18711THY    CM163856   9.017   2.530   3.195  1.0572 -0.3377 -0.3399
18711THY    HM163857   9.012   2.424   3.224  2.1363  2.7905  0.3585
18711THY    HM263858   9.081   2.576   3.271  1.6335  0.1593 -1.8989
18711THY    HM363859   9.069   2.517   3.099  1.3640 -0.0723 -1.1221
18711THY    CA663860   8.795   2.620   3.286 -0.6378  0.4956  0.5972
18711THY    HA663861   8.827   2.600   3.388 -1.4086  0.7810  0.7920
18712THY      O63862   1.570   1.531   3.334 -0.0186  0.7541  0.4225
18712THY     HO63863   1.658   1.571   3.341 -1.6208 -1.1288  4.9482
18712THY    CA163864   1.591   1.403   3.290  0.1805  0.4843  0.1357
18712THY    CA263865   1.487   1.306   3.289 -0.2264  0.2731 -0.1605
18712THY    CP163866   1.344   1.346   3.305 -0.6859 -0.6803  0.1824
18712THY    HP163867   1.340   1.453   3.328 -1.0484 -1.0442  0.2480
18712THY    CP263868   1.282   1.273   3.424 -0.0889 -0.3078 -0.8106
18712THY    HP263869   1.265   1.167   3.402  0.6551 -2.3667 -0.5379
18712THY    HP363870   1.180   1.308   3.445  1.0264  0.8849  2.0603
18712THY    HP463871   1.347   1.271   3.512 -0.2371 -0.0755  1.6057
18712THY    CP363872   1.277   1.327   3.177  0.3501  0.3269 -0.0606
18712THY    HP563873   1.270   1.223   3.145  0.4712 -0.4808  0.1761
18712THY    HP663874   1.308   1.397   3.099  0.3269  1.5098  1.3100
18712THY    HP763875   1.169   1.345   3.187 -0.0464 -1.4504 -1.2465
18712THY    CA363876   1.528   1.171   3.269  0.0130  0.2556  0.6867
18712THY    HA363877   1.462   1.085   3.275  1.2638  1.3917 -0.2362
18712THY    CA463878   1.661   1.139   3.249 -0.4917  1.2955 -0.2294
18712THY    HA463879   1.692   1.037   3.230  0.3453 -0.7616  0.3624
18712THY    CA563880   1.749   1.241   3.219 -0.2506 -0.0877 -0.5406
18712THY    CM163881   1.893   1.202   3.189 -0.1453  0.1198 -0.0931
18712THY    HM163882   1.947   1.276   3.128 -0.0124  1.6149  1.0963
18712THY    HM263883   1.914   1.106   3.142  0.6744  0.8927 -0.3048
18712THY    HM363884   1.941   1.193   3.287  0.1999 -0.1706 -1.6753
18712THY    CA663885   1.719   1.372   3.256 -1.0778 -0.1699  0.4828
18712THY    HA663886   1.783   1.459   3.249 -0.3635  1.6722  0.1688
18713THY      O63887   3.139   6.466   5.356 -0.5763  0.1692  0.0620
18713THY     HO63888   3.186   6.519   5.422 -0.2318 -1.3237  1.6961
18713THY    CA163889   3.207   6.483   5.240  0.4938  0.3646 -0.6948
18713THY    CA263890   3.161   6.418   5.119  0.2994 -0.1883 -0.9208
18713THY    CP163891   3.025   6.347   5.116  0.7076 -0.3198  0.4614
18713THY    HP163892   2.963   6.400   5.189  0.6501 -0.6303  0.8315
18713THY    CP263893   3.036   6.192   5.155 -0.8755 -0.1351 -0.0652
18713THY    HP263894   3.108   6.131   5.099  0.4477  2.7006 -1.3142
18713THY    HP363895   2.938   6.145   5.143  0.8944 -1.0833 -3.8729
18713THY    HP463896   3.055   6.174   5.262 -0.7233 -0.2467 -0.5778
18713THY    CP363897   2.941   6.369   4.991  0.3465  0.3987  0.1341
18713THY    HP563898   2.835   6.341   5.002  0.1352 -2.0111 -0.2642
18713THY    HP663899   2.976   6.329   4.895  1.7582  1.4367 -1.2618
18713THY    HP763900   2.945   6.476   4.969  0.3678 -1.6700 -0.2581
18713THY    CA363901   3.253   6.421   5.011 -0.0322 -0.4511  0.6672
18713THY    HA363902   3.234   6.366   4.920 -0.8946  0.0247  0.1460
18713THY    CA463903   3.366   6.510   5.012 -0.2320 -0.2030 -0.2226
18713THY    HA463904   3.425   6.521   4.922 -0.7474 -0.9708 -2.8197
18713THY    CA563905   3.406   6.577   5.130 -0.5316  0.2624  0.1375
18713THY    CM163906   3.544   6.646   5.132 -0.1959  0.4021  0.5051
18713THY    HM163907   3.556   6.744   5.180 -0.4934  0.7573  0.3723
18713THY    HM263908   3.593   6.649   5.034 -0.4121  0.2704 -0.0954
18713THY    HM363909   3.615   6.586   5.189  1.6919 -0.7333  1.5504
18713THY    CA663910   3.322   6.568   5.239  0.0358 -0.5169  0.0846
18713THY    HA663911   3.352   6.616   5.332 -0.8033 -0.3017  0.2105
18714THY      O63912   7.308   7.237   4.726 -0.0020  0.4273  0.3079
18714THY     HO63913   7.260   7.214   4.644  2.3214 -1.3037  1.1955
18714THY    CA163914   7.228   7.204   4.829  0.4195 -0.2388  0.3427
18714THY    CA263915   7.263   7.213   4.962  0.4475  0.3026 -0.4945
18714THY    CP163916   7.406   7.263   4.993 -0.1574  0.3797  1.0514
18714THY    HP163917   7.476   7.262   4.909  1.0683  1.2312 -3.1867
18714THY    CP263918   7.491   7.163   5.073  0.2192 -0.0143  0.1246
18714THY    HP263919   7.583   7.189   5.127  0.6622 -0.0872 -1.2211
18714THY    HP363920   7.506   7.073   5.012 -0.4171 -0.3536  0.2454
18714THY    HP463921   7.431   7.136   5.160  1.6928  1.4759  1.4135
18714THY    CP363922   7.411   7.399   5.051  0.3008  0.2468 -0.4186
18714THY    HP563923   7.344   7.470   5.002  3.4886 -1.7159  1.4992
18714THY    HP663924   7.513   7.437   5.033 -0.6126 -0.7014  1.7355
18714THY    HP763925   7.388   7.391   5.158  1.4533  0.6689  1.3369
18714THY    CA363926   7.163   7.186   5.058  0.0908  0.0519 -0.4879
18714THY    HA363927   7.186   7.186   5.164  2.7684 -0.3771 -3.1437
18714THY    CA463928   7.041   7.143   5.016 -0.5183 -0.5853  0.4313
18714THY    HA463929   6.964   7.112   5.086 -0.7647 -1.3987 -0.8714
18714THY    CA563930   7.009   7.135   4.882  0.1181  0.4039  0.1239
18714THY    CM163931   6.870   7.091   4.839  0.1695 -0.0261 -0.3623
18714THY    HM163932   6.867   7.011   4.764 -0.1843  0.1077 -0.4716
18714THY    HM263933   6.822   7.179   4.795 -0.9827  0.8286 -0.5482
18714THY    HM363934   6.796   7.064   4.915 -1.4376 -1.3913  0.0242
18714THY    CA663935   7.106   7.158   4.786  0.4294 -0.1897  0.6897
18714THY    HA663936   7.077   7.148   4.682 -1.2852  0.1322  1.8925
18715THY      O63937   6.940   0.774   6.196 -0.3139  0.0700 -0.2398
18715THY     HO63938   7.029   0.754   6.230 -0.4491  0.6748  0.1684
18715THY    CA163939   6.858   0.708   6.276 -0.2670 -0.0937  0.2481
18715THY    CA263940   6.723   0.729   6.262  0.3015 -0.1202  0.0844
18715THY    CP163941   6.670   0.842   6.169  0.0827  0.6644  0.0329
18715THY    HP163942   6.744   0.910   6.124 -3.5071 -2.2912  2.4212
18715THY    CP263943   6.590   0.936   6.260 -0.0452  0.1554 -0.3706
18715THY    HP263944   6.511   0.889   6.321 -0.9299  0.5073  1.4840
18715THY    HP363945   6.549   1.024   6.210  3.2993 -1.2963  0.4980
18715THY    HP463946   6.663   0.979   6.328  1.1131 -2.2704  1.7373
18715THY    CP363947   6.574   0.790   6.066  0.6214  0.2259  0.0798
18715THY    HP563948   6.505   0.870   6.035  1.6654 -1.5616  0.3274
18715THY    HP663949   6.511   0.720   6.122  0.2486  0.6272  0.7263
18715THY    HP763950   6.619   0.747   5.976  1.3591  0.0479  1.1740
18715THY    CA363951   6.632   0.644   6.332 -1.0415  0.4772 -0.7782
18715THY    HA363952   6.525   0.656   6.323 -0.9506  0.0799 -0.2030
18715THY    CA463953   6.680   0.555   6.426  0.4798 -0.2124 -0.1864
18715THY    HA463954   6.603   0.500   6.479 -2.8697 -4.2492  0.1076
18715THY    CA563955   6.815   0.531   6.434  0.1746  1.0889 -0.5481
18715THY    CM163956   6.874   0.426   6.528 -0.6161  0.5509  0.5267
18715THY    HM163957   6.973   0.457   6.564 -0.8045  0.7076  0.9541
18715THY    HM263958   6.897   0.341   6.462  0.0897  0.4872  0.7582
18715THY    HM363959   6.809   0.401   6.612 -1.7490 -0.9635 -1.8775
18715THY    CA663960   6.905   0.609   6.361 -0.8104 -0.3423 -0.8134
18715THY    HA663961   7.011   0.588   6.356 -0.7478 -0.5648 -0.4513
18716THY      O63962   8.387   5.250   2.423 -0.1254 -0.0566  0.1703
18716THY     HO63963   8.395   5.255   2.519  1.9972 -0.2244  0.9461
18716THY    CA163964   8.281   5.323   2.389 -0.0316 -0.1342  0.5566
18716THY    CA263965   8.207   5.288   2.271  0.3949 -0.4422 -0.2066
18716THY    CP163966   8.261   5.183   2.167  0.6212  0.2556 -0.5353
18716THY    HP163967   8.330   5.113   2.217  0.5393  1.6342  0.3307
18716THY    CP263968   8.335   5.259   2.052 -0.1331 -0.4284 -0.0078
18716THY    HP263969   8.267   5.296   1.974 -0.0370 -1.6870 -2.3101
18716THY    HP363970   8.404   5.189   2.002 -1.6109 -0.1379 -1.7379
18716THY    HP463971   8.390   5.344   2.094  0.1595 -1.5639  0.3907
18716THY    CP363972   8.139   5.102   2.122 -0.2420  0.6991  0.3791
18716THY    HP563973   8.073   5.075   2.205 -0.2605  0.6187  0.1797
18716THY    HP663974   8.168   5.015   2.063  0.2054 -0.4266  1.2613
18716THY    HP763975   8.070   5.161   2.060  1.4352 -0.4181  1.2524
18716THY    CA363976   8.085   5.354   2.247  0.0183  0.2481 -0.6120
18716THY    HA363977   8.026   5.337   2.158 -0.6997  0.9139 -1.7666
18716THY    CA463978   8.033   5.447   2.345  0.2351  0.3423 -1.0893
18716THY    HA463979   7.934   5.491   2.337  0.2450  1.4007 -0.8321
18716THY    CA563980   8.100   5.466   2.464 -0.2969 -0.4071 -0.0774
18716THY    CM163981   8.056   5.572   2.559 -0.3354 -0.4022  0.0082
18716THY    HM163982   7.967   5.547   2.618 -0.4995 -0.1694  1.0906
18716THY    HM263983   8.039   5.660   2.495 -0.2232 -0.8566 -0.2971
18716THY    HM363984   8.123   5.613   2.635 -1.9257  0.6944  0.6821
18716THY    CA663985   8.226   5.403   2.486  0.4641  0.1001  0.3886
18716THY    HA663986   8.277   5.414   2.582 -1.6957  1.2939  0.6226
18717THY      O63987   6.356   3.098   3.501  0.0571 -0.1843  0.2212
18717THY     HO63988   6.429   3.130   3.446  1.0107  1.5038  1.0057
18717THY    CA163989   6.251   3.096   3.421 -0.0842  0.1204 -0.7969
18717THY    CA263990   6.121   3.127   3.468 -0.3416 -0.0939 -0.2356
18717THY    CP163991   6.099   3.165   3.610  0.1457 -0.3654 -0.1444
18717THY    HP163992   6.189   3.147   3.670  0.1808 -0.6341 -0.9114
18717THY    CP263993   5.984   3.091   3.672  0.0775 -0.2042 -0.0839
18717THY    HP263994   5.961   3.118   3.776  0.1040  0.1648 -1.4122
18717THY    HP363995   5.987   2.982   3.673 -2.8859 -1.6185 -0.3077
18717THY    HP463996   5.892   3.113   3.616 -0.3036  1.4337  3.1069
18717THY    CP363997   6.073   3.311   3.633  0.6200 -0.0292 -0.0768
18717THY    HP563998   6.059   3.329   3.740  1.4685  0.1606 -0.4917
18717THY    HP663999   5.991   3.345   3.569  1.0387  0.8407  2.9341
18717THY    HP764000   6.156   3.374   3.597  0.3885 -3.0857 -1.3564
18717THY    CA364001   6.014   3.150   3.381  0.3413  0.0670  0.3368
18717THY    HA364002   5.916   3.185   3.410  0.0018  0.4635 -0.9008
18717THY    CA464003   6.039   3.129   3.244  0.1266 -0.5511  0.1577
18717THY    HA464004   5.955   3.155   3.181  1.0257 -1.8187  0.0438
18717THY    CA564005   6.165   3.080   3.196  1.0104  0.1570  0.0838
18717THY    CM164006   6.191   3.052   3.049 -0.1155 -1.0356  0.3660
18717THY    HM164007   6.099   3.002   3.015 -1.0800  2.4801 -0.5864
18717THY    HM264008   6.282   2.992   3.032  1.2043  0.1497  1.9490
18717THY    HM364009   6.209   3.146   2.997 -2.3123 -1.8743  0.3913
18717THY    CA664010   6.270   3.060   3.282  0.7512 -0.4077 -0.4950
18717THY    HA664011   6.363   3.018   3.244  1.5062  2.4385 -1.5910
18718THY      O64012   1.572   1.088   4.246 -0.4504  0.9831  0.3471
18718THY     HO64013   1.581   1.003   4.294 -1.4056 -0.9184 -0.9005
18718THY    CA164014   1.483   1.164   4.317 -0.2945 -0.3208 -1.5495
18718THY    CA264015   1.454   1.299   4.278 -0.1949 -0.1773 -0.4317
18718THY    CP164016   1.534   1.366   4.162 -0.2586  0.1254  0.0308
18718THY    HP164017   1.562   1.297   4.081  1.0070  0.4778  0.1010
18718THY    CP264018   1.672   1.415   4.205 -0.1102  0.2633  0.0510
18718THY    HP264019   1.736   1.446   4.123  2.0104  0.2140 -3.8308
18718THY    HP364020   1.728   1.331   4.247  1.1700  1.4858  1.4477
18718THY    HP464021   1.664   1.484   4.290  1.7692 -0.5051  1.2755
18718THY    CP364022   1.482   1.481   4.078  0.3226  0.5077  0.6855
18718THY    HP564023   1.473   1.564   4.149 -0.2567  0.2408  0.8550
18718THY    HP664024   1.383   1.466   4.033  0.6068  0.8186 -2.9728
18718THY    HP764025   1.559   1.499   4.001  0.3311 -0.0937 -1.6075
18718THY    CA364026   1.355   1.367   4.345 -0.8572 -0.4423  0.2993
18718THY    HA364027   1.336   1.474   4.333  1.4230  1.3784  1.0247
18718THY    CA464028   1.284   1.299   4.452  0.0365 -0.7050 -0.1355
18718THY    HA464029   1.209   1.352   4.510 -0.4405 -0.2673 -1.2818
18718THY    CA564030   1.310   1.163   4.490 -0.5834 -0.5230  0.2238
18718THY    CM164031   1.230   1.095   4.601 -0.0239 -0.3860  0.6590
18718THY    HM164032   1.304   1.085   4.681  1.0912 -1.4998 -0.2638
18718THY    HM264033   1.183   1.003   4.565 -0.2468  0.7877  0.3001
18718THY    HM364034   1.149   1.166   4.624 -2.3787  1.0270 -2.2505
18718THY    CA664035   1.412   1.104   4.421  0.6308 -0.1071  0.8943
18718THY    HA664036   1.432   1.003   4.455  0.0010 -1.4417  0.3011
18719THY      O64037   2.140   1.424   2.729  0.2643  0.3808 -0.2190
18719THY     HO64038   2.094   1.398   2.648  1.0045 -0.3867  0.7763
18719THY    CA164039   2.272   1.434   2.694 -0.7305 -0.6222 -0.4097
18719THY    CA264040   2.354   1.543   2.730  0.3034  0.3104  0.3336
18719THY    CP164041   2.300   1.662   2.812 -0.2960 -0.9321 -0.3164
18719THY    HP164042   2.198   1.643   2.849  0.5902  1.3787 -0.9442
18719THY    CP264043   2.304   1.798   2.742 -0.1915 -0.0736 -0.6109
18719THY    HP264044   2.288   1.888   2.802 -0.7442 -0.1411 -0.6624
18719THY    HP364045   2.237   1.815   2.656 -1.7608  1.5561  2.2713
18719THY    HP464046   2.394   1.802   2.680 -1.3724 -1.9046 -1.1531
18719THY    CP364047   2.376   1.679   2.957 -0.0882  0.1227 -0.1975
18719THY    HP564048   2.360   1.775   3.007 -0.7586  0.1646 -0.3291
18719THY    HP664049   2.483   1.680   2.932  0.8401  3.4960 -1.5175
18719THY    HP764050   2.366   1.586   3.014  0.7930 -0.5296 -0.7073
18719THY    CA364051   2.488   1.541   2.686  0.2834 -0.1994  0.1367
18719THY    HA364052   2.547   1.627   2.714 -1.2226  1.3475  0.7310
18719THY    CA464053   2.538   1.434   2.613 -0.4976 -0.5015 -0.4849
18719THY    HA464054   2.643   1.440   2.589  0.2018  2.0102 -1.2503
18719THY    CA564055   2.455   1.325   2.583  0.4489 -0.3161  0.5028
18719THY    CM164056   2.511   1.196   2.513  0.4410 -0.1579  0.7611
18719THY    HM164057   2.604   1.220   2.461 -0.3541 -2.6817 -1.2706
18719THY    HM264058   2.438   1.147   2.449  0.6998  0.8667 -1.0435
18719THY    HM364059   2.536   1.120   2.588 -2.0830 -1.3515 -1.4064
18719THY    CA664060   2.323   1.328   2.621  0.1525  0.0766  0.6291
18719THY    HA664061   2.259   1.243   2.601  3.3012  0.6696 -2.0418
18720THY      O64062   8.955   7.407   2.506  0.1438  0.4555  0.3399
18720THY     HO64063   9.048   7.428   2.489 -0.5533 -1.8737  1.9910
18720THY    CA164064   8.914   7.310   2.424 -0.0360  0.6011  0.1646
18720THY    CA264065   8.778   7.289   2.413  0.4727 -0.1166  0.2348
18720THY    CP164066   8.683   7.352   2.514  0.4545 -0.2306  0.6714
18720THY    HP164067   8.739   7.394   2.598  2.8650 -1.6522  0.5624
18720THY    CP264068   8.578   7.260   2.576  0.4942  0.1985 -0.1575
18720THY    HP264069   8.627   7.182   2.637  0.5421 -0.6417 -0.7968
18720THY    HP364070   8.501   7.212   2.514 -0.1744  0.7005  0.2433
18720THY    HP464071   8.523   7.328   2.642 -2.1815 -3.9739  2.1517
18720THY    CP364072   8.604   7.461   2.450  0.1343  0.0245  0.1857
18720THY    HP564073   8.545   7.515   2.526 -0.5697  0.0019 -0.5303
18720THY    HP664074   8.526   7.424   2.382 -0.6262  1.1465 -0.3327
18720THY    HP764075   8.663   7.524   2.383  0.4664 -0.4570 -0.6182
18720THY    CA364076   8.732   7.190   2.327 -0.4207 -0.1950 -0.5286
18720THY    HA364077   8.627   7.165   2.335 -1.1899 -1.0519  2.0428
18720THY    CA464078   8.822   7.130   2.233 -0.5192 -0.1751 -0.0631
18720THY    HA464079   8.797   7.051   2.163 -0.0339 -1.2488  0.7057
18720THY    CA564080   8.959   7.163   2.235 -0.5107  0.4458 -0.2664
18720THY    CM164081   9.055   7.112   2.134  0.2852  0.2696 -0.0682
18720THY    HM164082   9.159   7.122   2.167  0.2925  1.1501 -2.4026
18720THY    HM264083   9.034   7.168   2.043 -1.3103  1.8287  2.0249
18720THY    HM364084   9.044   7.013   2.087 -0.3337 -2.3205  1.1650
18720THY    CA664085   9.003   7.260   2.326 -0.5015 -0.7212  0.0719
18720THY    HA664086   9.106   7.294   2.326 -0.5173  0.6384  0.1589
18721THY      O64087   0.820   8.693   3.743  0.3930 -0.1071 -0.0827
18721THY     HO64088   0.730   8.720   3.770  0.7253 -1.2747  2.5771
18721THY    CA164089   0.827   8.559   3.724  0.4665  0.8586  0.0640
18721THY    CA264090   0.949   8.494   3.724  0.0828  0.3541 -0.5675
18721THY    CP164091   1.077   8.582   3.747 -0.0751 -0.2020 -0.5145
18721THY    HP164092   1.053   8.677   3.795 -2.2054  0.7709 -1.4764
18721THY    CP264093   1.129   8.621   3.604  0.6084  0.7141 -0.0122
18721THY    HP264094   1.114   8.536   3.537  3.6198  1.3359 -1.1733
18721THY    HP364095   1.236   8.644   3.598  0.6015  1.3543  0.2132
18721THY    HP464096   1.075   8.701   3.551  0.7441  0.6533  0.0402
18721THY    CP364097   1.179   8.515   3.838 -0.0612  0.3618 -0.4659
18721THY    HP564098   1.204   8.415   3.800  0.6719  0.9887 -0.5337
18721THY    HP664099   1.142   8.497   3.940 -0.5761  0.6327  1.8614
18721THY    HP764100   1.271   8.573   3.852 -0.8824  2.5995  0.3761
18721THY    CA364101   0.955   8.357   3.696 -0.3233  0.4432  0.7491
18721THY    HA364102   1.045   8.297   3.685 -3.4633  0.0600 -4.5954
18721THY    CA464103   0.839   8.289   3.670 -0.2371  0.0232  0.0992
18721THY    HA464104   0.840   8.186   3.635 -2.8372  0.5633 -0.1834
18721THY    CA564105   0.716   8.355   3.683 -0.0382  0.3177  0.5834
18721THY    CM164106   0.589   8.273   3.654 -0.2100  0.1891 -0.1823
18721THY    HM164107   0.608   8.231   3.554  0.9787 -0.7642  2.4294
18721THY    HM264108   0.491   8.319   3.673 -0.0521  0.4517  0.0439
18721THY    HM364109   0.588   8.196   3.732 -0.8194  0.8504  0.4902
18721THY    CA664110   0.707   8.491   3.701 -0.1282  0.4270  0.0766
18721THY    HA664111   0.617   8.549   3.680  0.6889 -0.7997  0.9468
18722THY      O64112   0.683   5.477   7.142  0.0151  0.3729  0.0264
18722THY     HO64113   0.755   5.412   7.153 -0.9188 -1.4161 -1.3929
18722THY    CA164114   0.630   5.438   7.022 -0.2370 -0.0660 -0.0465
18722THY    CA264115   0.508   5.477   6.982  0.9718  0.3998  0.4669
18722THY    CP164116   0.418   5.554   7.076 -0.1075  0.6251  0.5436
18722THY    HP164117   0.462   5.555   7.176 -0.3416  0.8595 -2.3755
18722THY    CP264118   0.284   5.490   7.092  0.1685  0.1279 -0.0803
18722THY    HP264119   0.309   5.387   7.119 -1.8491 -0.7510 -0.8384
18722THY    HP364120   0.220   5.496   7.003 -3.0758  2.3994  2.8041
18722THY    HP464121   0.232   5.534   7.178 -0.1564  0.3474 -0.8858
18722THY    CP364122   0.408   5.698   7.029  0.4455 -0.8627  0.0355
18722THY    HP564123   0.342   5.710   6.942  0.3408 -0.9481 -1.0803
18722THY    HP664124   0.507   5.745   7.026  0.6642 -3.0198 -0.4386
18722THY    HP764125   0.343   5.748   7.102 -0.1040  0.4474 -2.4613
18722THY    CA364126   0.462   5.444   6.852 -0.5679 -0.2106  0.3701
18722THY    HA364127   0.367   5.485   6.819 -0.7304  1.9094  1.8734
18722THY    CA464128   0.543   5.357   6.769 -0.0621 -0.6019  0.9633
18722THY    HA464129   0.510   5.326   6.670 -0.1918  0.5756 -3.3713
18722THY    CA564130   0.667   5.318   6.815 -0.0160 -0.4830  0.8441
18722THY    CM164131   0.758   5.240   6.735  0.0263  0.3319  0.2923
18722THY    HM164132   0.781   5.154   6.798  1.0213 -0.6032 -0.1548
18722THY    HM264133   0.844   5.303   6.709 -1.1770 -1.3077  1.3447
18722THY    HM364134   0.703   5.197   6.651 -2.7339  1.1906  1.8889
18722THY    CA664135   0.708   5.359   6.940 -0.7205 -0.5673  0.5682
18722THY    HA664136   0.801   5.322   6.982 -1.8209  1.3246 -0.1976
18723THY      O64137   1.095   5.723   5.523  0.3836 -0.5110  0.2730
18723THY     HO64138   1.181   5.766   5.510  0.5057 -2.1523 -0.3836
18723THY    CA164139   1.018   5.778   5.626 -0.1190  0.3376  0.0366
18723THY    CA264140   0.891   5.733   5.651 -0.0663  0.1912  0.0812
18723THY    CP164141   0.818   5.629   5.566 -0.1674  0.0338 -0.3397
18723THY    HP164142   0.880   5.620   5.476  1.6793  1.2766 -0.8257
18723THY    CP264143   0.679   5.682   5.524 -0.3186  0.2015 -0.3127
18723THY    HP264144   0.692   5.786   5.491  4.1032  1.9756 -0.0743
18723THY    HP364145   0.600   5.663   5.598 -0.2023  0.6107  0.7337
18723THY    HP464146   0.641   5.625   5.439 -2.3274 -1.1064  2.6712
18723THY    CP364147   0.806   5.488   5.634  0.8216 -0.0129 -0.4176
18723THY    HP564148   0.704   5.457   5.660  0.8658 -0.3521 -0.8460
18723THY    HP664149   0.863   5.493   5.727  0.5520  0.2693 -2.0555
18723THY    HP764150   0.849   5.409   5.572 -0.6953  1.3772 -2.4199
18723THY    CA364151   0.812   5.786   5.753 -0.4195 -0.8485  0.2120
18723THY    HA364152   0.713   5.745   5.771  0.4229 -1.8807 -2.4666
18723THY    CA464153   0.870   5.880   5.839 -0.0686 -0.1446 -0.7740
18723THY    HA464154   0.815   5.917   5.925  2.1660  1.2733 -0.5951
18723THY    CA564155   1.000   5.928   5.820 -0.0626  0.1260  0.5828
18723THY    CM164156   1.053   6.042   5.895 -0.0372 -0.1658  0.6651
18723THY    HM164157   1.108   6.001   5.981 -0.1064 -0.2627  0.3675
18723THY    HM264158   0.965   6.097   5.931 -1.4913 -2.7132  0.1561
18723THY    HM364159   1.121   6.105   5.837 -1.3640 -0.4985  1.8344
18723THY    CA664160   1.070   5.881   5.705 -0.2761 -0.6348  0.9048
18723THY    HA664161   1.167   5.919   5.675  0.7576  0.5388 -0.6813
18724THY      O64162   0.852   7.768   5.090  0.0829 -0.1413 -0.3859
18724THY     HO64163   0.846   7.730   5.001 -1.8549  0.9466 -2.8975
18724THY    CA164164   0.763   7.697   5.168  0.2129  0.1369  0.1804
18724THY    CA264165   0.712   7.751   5.289  0.5069 -0.6032 -0.4945
18724THY    CP164166   0.747   7.890   5.329 -0.2218 -0.2393 -0.0135
18724THY    HP164167   0.820   7.938   5.263  0.0839 -0.2544 -0.4875
18724THY    CP264168   0.814   7.886   5.466  0.5125 -0.3554  0.4022
18724THY    HP264169   0.907   7.830   5.449 -0.0321 -0.9754 -0.3460
18724THY    HP364170   0.756   7.825   5.536  0.7733 -2.1122 -2.0479
18724THY    HP464171   0.833   7.987   5.503  1.0775  0.7605 -0.1033
18724THY    CP364172   0.625   7.979   5.354 -0.2716  0.6780  0.1330
18724THY    HP564173   0.578   8.003   5.258  1.1890 -0.1655 -0.2407
18724THY    HP664174   0.652   8.079   5.389 -0.8951  0.6360  0.3197
18724THY    HP764175   0.561   7.927   5.426 -0.7937  0.0029 -0.1878
18724THY    CA364176   0.618   7.678   5.374 -0.3311  0.8395 -0.5303
18724THY    HA364177   0.584   7.704   5.474 -0.5906  0.3889  0.9885
18724THY    CA464178   0.582   7.559   5.318  0.2516  0.6328  0.8833
18724THY    HA464179   0.514   7.502   5.380  0.2849 -0.7862 -0.7840
18724THY    CA564180   0.649   7.496   5.209 -0.1438 -0.0343  0.3539
18724THY    CM164181   0.620   7.345   5.180  0.3495 -0.1056 -0.3700
18724THY    HM164182   0.531   7.319   5.240 -0.2201  0.3726  2.4147
18724THY    HM264183   0.694   7.275   5.220  1.6015 -2.9521 -0.7835
18724THY    HM364184   0.604   7.331   5.073 -2.7481  0.0189  1.2882
18724THY    CA664185   0.733   7.568   5.128 -0.5297  0.2533  0.1015
18724THY    HA664186   0.766   7.523   5.035 -0.4368 -0.0915  0.8665
18725THY      O64187   8.966   9.402   2.020 -0.3870 -0.3143 -0.0484
18725THY     HO64188   8.884   9.439   1.982  1.1920 -1.8354  2.1585
18725THY    CA164189   8.954   9.273   2.061 -0.8635 -0.3046 -0.4207
18725THY    CA264190   9.065   9.207   2.111 -0.0741 -0.2402 -0.9695
18725THY    CP164191   9.190   9.287   2.156  0.6328 -0.5479 -0.7376
18725THY    HP164192   9.147   9.387   2.171 -0.5882 -0.1530 -1.3086
18725THY    CP264193   9.296   9.293   2.055 -0.5003  0.4437  0.0083
18725THY    HP264194   9.322   9.189   2.031  2.8927 -0.3704  0.9133
18725THY    HP364195   9.388   9.352   2.067 -1.1141 -1.2430  1.3966
18725THY    HP464196   9.252   9.337   1.965 -0.6895  0.1361 -0.7965
18725THY    CP364197   9.246   9.235   2.290  0.0143 -0.2350  0.0727
18725THY    HP564198   9.167   9.222   2.365  1.6821  1.4746 -0.7347
18725THY    HP664199   9.301   9.320   2.333  0.2736 -0.1840 -0.1210
18725THY    HP764200   9.301   9.140   2.284 -1.4297 -0.8715 -0.7488
18725THY    CA364201   9.063   9.068   2.125 -0.2123  0.5098 -0.5850
18725THY    HA364202   9.149   9.013   2.160  0.7750 -0.0125  0.5722
18725THY    CA464203   8.953   8.997   2.093 -0.0935  0.2530 -0.4675
18725THY    HA464204   8.951   8.889   2.101 -1.7376 -0.1006 -0.4916
18725THY    CA564205   8.837   9.060   2.050  0.2233  0.9549  0.2088
18725THY    CM164206   8.712   8.989   2.035 -0.3115 -0.5722 -0.3341
18725THY    HM164207   8.621   9.049   2.042 -1.0152  0.4391 -1.4584
18725THY    HM264208   8.710   8.899   2.099  2.2284 -0.2361 -0.2148
18725THY    HM364209   8.702   8.951   1.932 -0.0240 -0.5015 -0.6035
18725THY    CA664210   8.838   9.197   2.031 -0.0115 -0.0586  0.2813
18725THY    HA664211   8.744   9.240   1.995  0.0767 -0.1205  0.4221
18726THY      O64212   0.992   3.590   7.372 -0.1798 -0.1355 -0.4865
18726THY     HO64213   1.078   3.632   7.389 -1.2035  0.1775  1.6102
18726THY    CA164214   1.023   3.460   7.353 -0.4224  0.4486 -0.3668
18726THY    CA264215   0.938   3.372   7.290 -0.1191  0.6060 -0.4171
18726THY    CP164216   0.791   3.406   7.254 -0.7032  0.0513  0.6590
18726THY    HP164217   0.751   3.497   7.299 -2.5863  0.7218 -0.4660
18726THY    CP264218   0.703   3.302   7.319  0.2371  0.1787 -0.1600
18726THY    HP264219   0.600   3.336   7.305 -0.2073  2.6761 -0.2869
18726THY    HP364220   0.718   3.298   7.428 -1.4359  0.4263 -0.5600
18726THY    HP464221   0.710   3.201   7.279  0.9475  1.6373 -0.7280
18726THY    CP364222   0.762   3.394   7.098  0.0786  0.4601  0.3832
18726THY    HP564223   0.810   3.482   7.053  1.7136  0.7374 -0.3234
18726THY    HP664224   0.653   3.396   7.087  0.1014  0.2150  0.2846
18726THY    HP764225   0.800   3.306   7.045 -0.4378  0.6539  0.0381
18726THY    CA364226   0.979   3.238   7.274 -0.1664 -0.8919  0.2525
18726THY    HA364227   0.926   3.158   7.223  1.6295  0.7477 -2.1097
18726THY    CA464228   1.109   3.203   7.307  0.7053  0.7282  0.3713
18726THY    HA464229   1.144   3.102   7.287 -0.7100  1.6726 -0.3323
18726THY    CA564230   1.189   3.284   7.387 -0.3733  0.1373 -0.2303
18726THY    CM164231   1.333   3.251   7.410 -0.4366 -0.2369 -0.0748
18726THY    HM164232   1.350   3.277   7.515  0.0214 -0.3478  0.0883
18726THY    HM264233   1.397   3.310   7.344  1.6695 -0.5499 -2.5521
18726THY    HM364234   1.356   3.144   7.397  0.3085 -0.0473  0.0543
18726THY    CA664235   1.146   3.417   7.408  0.5415  0.9832 -0.0395
18726THY    HA664236   1.204   3.491   7.463 -1.7820  1.0742  1.8795
18727THY      O64237   1.096   1.945   4.871  0.0682  0.3139  0.2264
18727THY     HO64238   1.175   1.892   4.890  0.7347  0.0254  1.0857
18727THY    CA164239   1.079   1.940   4.740  0.2351 -0.1872 -0.0029
18727THY    CA264240   1.003   2.034   4.669 -0.0747  0.0054  0.4913
18727THY    CP164241   0.936   2.153   4.743  0.2091  0.3665 -0.2593
18727THY    HP164242   1.008   2.181   4.821 -1.1593  1.3899  0.5544
18727THY    CP264243   0.809   2.105   4.817  0.1430  0.4949  0.2930
18727THY    HP264244   0.818   2.003   4.857  1.6471  1.1429  0.6569
18727THY    HP364245   0.725   2.109   4.747  0.6572 -0.1378  0.2368
18727THY    HP464246   0.787   2.159   4.910  0.8746  0.1888  1.1429
18727THY    CP364247   0.908   2.269   4.659 -0.4576 -0.2363 -0.2177
18727THY    HP564248   0.995   2.281   4.595  0.4127  0.7663 -1.0585
18727THY    HP664249   0.906   2.361   4.719  0.7857  0.6164 -0.7272
18727THY    HP764250   0.820   2.267   4.593 -1.1659  0.5796  1.3336
18727THY    CA364251   0.973   2.000   4.533  0.3208  0.0119  0.2298
18727THY    HA364252   0.918   2.067   4.468  2.4935  0.0254  2.1677
18727THY    CA464253   1.035   1.886   4.471  0.4162  0.1453 -0.8701
18727THY    HA464254   1.012   1.869   4.366  0.2991  0.4354 -2.6801
18727THY    CA564255   1.107   1.797   4.546 -0.1789 -0.3838 -0.1849
18727THY    CM164256   1.165   1.665   4.488 -0.0606 -0.0161  0.1211
18727THY    HM164257   1.119   1.570   4.519  0.7908  0.4012 -0.1741
18727THY    HM264258   1.269   1.653   4.523 -0.6036  1.4403 -0.6373
18727THY    HM364259   1.154   1.678   4.380 -0.4642  0.2644  2.6127
18727THY    CA664260   1.114   1.819   4.685 -0.3705 -0.2450  0.5816
18727THY    HA664261   1.172   1.744   4.738 -1.3684 -1.1587 -0.9032
18728THY      O64262   0.692   7.640   2.437  0.2983 -0.1905 -0.2174
18728THY     HO64263   0.684   7.544   2.454  0.2944 -0.2838 -0.2343
18728THY    CA164264   0.602   7.662   2.337  0.6070  0.1982  0.0970
18728THY    CA264265   0.528   7.779   2.330  0.6783 -0.0452  0.4766
18728THY    CP164266   0.564   7.899   2.414 -1.0643 -0.4135  0.1471
18728THY    HP164267   0.645   7.876   2.485 -1.1343  0.0691  1.3187
18728THY    CP264268   0.441   7.953   2.494 -0.4615 -0.1239  0.2888
18728THY    HP264269   0.355   7.975   2.430 -0.2580 -1.1625 -1.6993
18728THY    HP364270   0.468   8.047   2.545  2.1749 -0.7919 -0.0158
18728THY    HP464271   0.422   7.887   2.580 -1.8756 -0.6865 -0.0723
18728THY    CP364272   0.624   8.003   2.318 -0.1757 -0.2318  0.3959
18728THY    HP564273   0.551   8.029   2.241  0.0546 -0.5308  0.1729
18728THY    HP664274   0.708   7.956   2.265  1.1218  1.8616  0.2096
18728THY    HP764275   0.667   8.094   2.360 -0.0162 -2.6522  1.5174
18728THY    CA364276   0.418   7.791   2.235  0.8070  0.1007  0.2150
18728THY    HA364277   0.366   7.886   2.222  2.3113  0.2911  1.1069
18728THY    CA464278   0.391   7.677   2.149  0.7468 -0.8308  0.6377
18728THY    HA464279   0.308   7.689   2.079 -1.1267  1.2569  0.4335
18728THY    CA564280   0.479   7.568   2.150  0.9165 -0.3575  0.5536
18728THY    CM164281   0.458   7.445   2.064 -0.4178  0.1378  0.3765
18728THY    HM164282   0.350   7.436   2.049 -0.5810  1.0275  0.7099
18728THY    HM264283   0.501   7.355   2.111  1.5311  0.5130  1.4665
18728THY    HM364284   0.512   7.452   1.969  0.2378  0.5098  0.4126
18728THY    CA664285   0.579   7.562   2.248 -0.4707  0.1611 -0.2237
18728THY    HA664286   0.657   7.487   2.244  0.8922 -0.1799  1.1669
18729THY      O64287   3.732   7.069   7.452  0.8460  0.3968  0.4677
18729THY     HO64288   3.701   7.057   7.544  0.8550  0.4232  0.6320
18729THY    CA164289   3.673   7.185   7.414  0.0802  0.6082 -0.8293
18729THY    CA264290   3.701   7.235   7.285 -0.0624 -0.1804 -0.2127
18729THY    CP164291   3.801   7.148   7.200 -0.3968  0.1848  0.5432
18729THY    HP164292   3.802   7.040   7.220  0.2764 -1.3275  0.2351
18729THY    CP264293   3.951   7.196   7.227  0.4505 -0.3283  0.1051
18729THY    HP264294   3.957   7.304   7.210 -2.4092  1.5446  0.6797
18729THY    HP364295   4.021   7.156   7.153  2.0233  0.8901  0.4862
18729THY    HP464296   3.989   7.175   7.327  1.1219 -1.0450 -2.3575
18729THY    CP364297   3.773   7.161   7.047 -0.0786  0.5226 -0.6137
18729THY    HP564298   3.671   7.127   7.023 -0.2995 -1.3345  1.1909
18729THY    HP664299   3.851   7.118   6.983 -1.3892 -0.8109 -1.0930
18729THY    HP764300   3.760   7.268   7.025  0.4087 -1.5736 -0.9496
18729THY    CA364301   3.637   7.359   7.244 -0.2963 -0.7773 -0.1705
18729THY    HA364302   3.653   7.394   7.142 -0.1355 -0.5034  0.5706
18729THY    CA464303   3.556   7.423   7.338  0.4624  0.3284 -0.1637
18729THY    HA464304   3.502   7.510   7.302 -0.3049  1.6047 -0.0907
18729THY    CA564305   3.536   7.369   7.469 -0.2050  0.4367  0.4487
18729THY    CM164306   3.440   7.450   7.559 -0.6569 -0.2004  0.3761
18729THY    HM164307   3.486   7.522   7.628 -0.2084 -1.1052  0.9775
18729THY    HM264308   3.382   7.375   7.614 -1.7357 -3.6253 -1.5514
18729THY    HM364309   3.367   7.503   7.496  0.3035 -4.0086 -2.4362
18729THY    CA664310   3.602   7.249   7.512 -0.8594  0.8535  0.5028
18729THY    HA664311   3.585   7.195   7.604  0.1668 -0.1007 -1.5275
18730THY      O64312   1.003   7.390   6.095 -0.2444  0.2450 -0.5682
18730THY     HO64313   1.005   7.300   6.060 -0.9699 -2.1633  0.2743
18730THY    CA164314   0.874   7.417   6.132  0.2691 -0.3417  0.3390
18730THY    CA264315   0.843   7.502   6.241 -0.3049 -0.1806 -0.0470
18730THY    CP164316   0.955   7.576   6.321 -0.2365 -0.1331  0.1997
18730THY    HP164317   1.025   7.620   6.249 -2.8459 -1.8236  1.8163
18730THY    CP264318   1.034   7.480   6.411 -0.2601  0.4135  0.0034
18730THY    HP264319   0.953   7.451   6.480 -0.2614  0.7496  0.7666
18730THY    HP364320   1.110   7.535   6.468  0.5010 -0.3732 -0.2286
18730THY    HP464321   1.070   7.392   6.357  0.5119  0.4033  0.3147
18730THY    CP364322   0.900   7.690   6.416 -0.9575 -0.4426  0.0361
18730THY    HP564323   0.984   7.753   6.447 -2.5327  1.2786  1.3737
18730THY    HP664324   0.855   7.648   6.506 -1.8471 -0.5343  0.7793
18730THY    HP764325   0.823   7.755   6.372 -2.6715 -1.0653 -2.2975
18730THY    CA364326   0.708   7.509   6.281  0.3492  0.0495 -0.0917
18730THY    HA364327   0.689   7.567   6.371  3.7042  1.1382 -0.4874
18730THY    CA464328   0.603   7.454   6.207  0.9098  0.6690  0.1488
18730THY    HA464329   0.499   7.465   6.236  0.9996  0.6441  1.1147
18730THY    CA564330   0.642   7.368   6.096  0.4217 -0.2216 -0.5872
18730THY    CM164331   0.529   7.317   6.002 -0.0595 -0.0311 -1.5301
18730THY    HM164332   0.577   7.241   5.938  1.8776  0.0569 -0.4604
18730THY    HM264333   0.486   7.387   5.929 -0.6448 -0.3492 -2.2048
18730THY    HM364334   0.459   7.264   6.067  0.8115  0.3430 -2.2669
18730THY    CA664335   0.773   7.350   6.066  0.2071  0.0331 -0.0056
18730THY    HA664336   0.804   7.287   5.984  0.8600  0.4771 -0.2625
18731THY      O64337   1.520   6.807   7.656  0.8004  0.2182  0.2366
18731THY     HO64338   1.518   6.755   7.738  0.4220 -0.1691 -0.3734
18731THY    CA164339   1.415   6.758   7.584  0.3419 -0.7429 -0.5377
18731THY    CA264340   1.345   6.837   7.485 -0.2383 -0.4520  0.7076
18731THY    CP164341   1.405   6.974   7.451  0.3663  0.7712 -0.6287
18731THY    HP164342   1.501   6.998   7.498  1.9442 -2.7192  0.5638
18731THY    CP264343   1.310   7.084   7.495  0.3450 -0.0145  0.2687
18731THY    HP264344   1.216   7.074   7.440  0.4894 -0.0525 -1.0252
18731THY    HP364345   1.356   7.184   7.491  1.2556 -1.0305 -0.1636
18731THY    HP464346   1.275   7.066   7.597 -0.8620 -0.4293  0.1779
18731THY    CP364347   1.422   6.992   7.295 -0.4359 -1.1468 -0.6684
18731THY    HP564348   1.483   6.907   7.262 -0.7684  1.9371 -2.2485
18731THY    HP664349   1.465   7.091   7.277 -0.4359  1.1217 -0.2056
18731THY    HP764350   1.327   6.987   7.240 -2.1782  1.6048  0.1906
18731THY    CA364351   1.239   6.781   7.405  0.5908 -0.7092  0.7645
18731THY    HA364352   1.192   6.832   7.321  0.0199 -1.7016 -1.3204
18731THY    CA464353   1.186   6.655   7.444  0.0361  0.2579 -0.0371
18731THY    HA464354   1.103   6.607   7.393 -2.6886  2.4190  2.0247
18731THY    CA564355   1.261   6.583   7.538  1.0882 -0.2049 -0.0736
18731THY    CM164356   1.212   6.439   7.569 -0.8929 -0.1550  0.2092
18731THY    HM164357   1.210   6.370   7.483 -0.0076  1.2057 -1.6084
18731THY    HM264358   1.111   6.443   7.612 -1.1305 -0.7284  4.3727
18731THY    HM364359   1.284   6.392   7.636 -0.3626 -0.0937  1.1042
18731THY    CA664360   1.367   6.629   7.609 -0.1103 -0.4720 -0.1652
18731THY    HA664361   1.418   6.563   7.679 -1.3116  0.8855  0.3015
18732THY      O64362   2.444   5.548   1.910 -0.1757 -0.1511 -0.3735
18732THY     HO64363   2.463   5.465   1.957 -3.8816  3.2889  0.4297
18732THY    CA164364   2.512   5.647   1.975  0.4712  0.1231 -0.5927
18732THY    CA264365   2.541   5.773   1.920 -0.3105 -0.6058  0.0305
18732THY    CP164366   2.502   5.810   1.781 -0.0204 -0.3264  0.6154
18732THY    HP164367   2.418   5.748   1.747  1.2823 -1.0034 -0.8338
18732THY    CP264368   2.621   5.784   1.693 -0.3745  0.1175  0.6565
18732THY    HP264369   2.709   5.849   1.701  1.9817 -0.8794 -2.1495
18732THY    HP364370   2.589   5.793   1.589 -0.1141 -0.1701 -1.2657
18732THY    HP464371   2.642   5.676   1.694 -0.7724 -2.2672  0.5070
18732THY    CP364372   2.458   5.959   1.759  0.4893  0.0111  0.0577
18732THY    HP564373   2.382   5.991   1.831 -0.2640 -0.5374 -0.4707
18732THY    HP664374   2.404   5.962   1.664 -0.9112  0.6353 -2.6568
18732THY    HP764375   2.548   6.022   1.757  0.6316  0.7729 -0.1143
18732THY    CA364376   2.591   5.875   2.002 -0.2458  0.6616 -0.9240
18732THY    HA364377   2.620   5.970   1.959  0.4572  2.9911 -0.0111
18732THY    CA464378   2.638   5.837   2.130 -0.6202  0.3148  0.4661
18732THY    HA464379   2.697   5.907   2.189  0.9087 -0.8376  0.2025
18732THY    CA564380   2.626   5.711   2.177 -0.3486  0.3198  0.2648
18732THY    CM164381   2.689   5.682   2.314  0.0679  0.2182 -0.2476
18732THY    HM164382   2.648   5.749   2.391 -1.2023 -1.2972  0.7806
18732THY    HM264383   2.796   5.705   2.308  0.0056  0.1355  0.0221
18732THY    HM364384   2.686   5.580   2.356  0.4763  2.3694  0.5598
18732THY    CA664385   2.551   5.617   2.107 -0.1331 -0.1860 -0.6066
18732THY    HA664386   2.528   5.519   2.148  0.8851 -0.5535 -1.0185
18733THY      O64387   3.706   8.471   3.054 -0.2164  0.2908  0.3373
18733THY     HO64388   3.682   8.529   2.980 -2.5292  1.7423  1.3981
18733THY    CA164389   3.757   8.551   3.148  0.6244  0.0308 -0.2757
18733THY    CA264390   3.724   8.537   3.286  0.1489  0.0404 -0.3880
18733THY    CP164391   3.638   8.426   3.335 -0.1785 -0.3216 -0.3946
18733THY    HP164392   3.595   8.376   3.248  2.4653 -1.1004 -1.5014
18733THY    CP264393   3.523   8.462   3.429  0.1760 -0.1110 -0.5477
18733THY    HP264394   3.466   8.371   3.447 -1.6734 -1.7443  0.2258
18733THY    HP364395   3.457   8.539   3.389  0.3752  0.4133 -0.0995
18733THY    HP464396   3.563   8.488   3.528 -0.2376 -0.3328  1.0370
18733THY    CP364397   3.723   8.323   3.406  0.4659 -0.3314  0.3859
18733THY    HP564398   3.660   8.251   3.460  2.6307 -0.8564 -2.0664
18733THY    HP664399   3.784   8.372   3.483 -1.0343  1.5846 -0.5923
18733THY    HP764400   3.772   8.265   3.327 -2.2464  0.0720 -2.7690
18733THY    CA364401   3.771   8.633   3.377 -0.2249 -0.2618  0.1600
18733THY    HA364402   3.745   8.614   3.481  0.8158  0.3862  2.0301
18733THY    CA464403   3.848   8.735   3.321 -0.2300  0.4146 -0.0598
18733THY    HA464404   3.896   8.801   3.393  0.0319  1.6305 -1.5252
18733THY    CA564405   3.875   8.756   3.183  0.1452  0.0870  0.2337
18733THY    CM164406   3.981   8.860   3.136 -1.1375 -0.3173  0.1649
18733THY    HM164407   3.963   8.927   3.052 -1.3273 -0.4516 -0.0523
18733THY    HM264408   4.081   8.815   3.125 -1.9608  3.5883 -3.2657
18733THY    HM364409   4.015   8.925   3.218 -1.3548 -0.8574  0.9737
18733THY    CA664410   3.819   8.661   3.099  0.0086  0.8195  0.0801
18733THY    HA664411   3.848   8.668   2.995 -0.8180  0.4523 -1.4995
18734THY      O64412   0.932   8.874   3.164 -0.1227  0.2439 -0.4674
18734THY     HO64413   0.882   8.811   3.219  1.2064  2.0596  0.0122
18734THY    CA164414   0.953   8.983   3.247  0.5827 -0.1126  0.0380
18734THY    CA264415   0.995   9.107   3.192  0.3930 -0.9754  0.0650
18734THY    CP164416   1.016   9.120   3.042 -0.0682  0.4877 -0.1532
18734THY    HP164417   1.008   9.023   2.992 -0.9297  0.3316 -0.0148
18734THY    CP264418   1.151   9.189   3.012 -0.1138  0.1319  0.1157
18734THY    HP264419   1.163   9.199   2.904 -0.5284 -0.0660 -1.2366
18734THY    HP364420   1.235   9.137   3.059  0.7130  0.9324  2.0747
18734THY    HP464421   1.160   9.289   3.057  1.8854  0.6415 -0.2499
18734THY    CP364422   0.900   9.200   2.981 -0.2945 -0.5503 -0.1254
18734THY    HP564423   0.884   9.298   3.027  0.2259  0.6982 -0.6074
18734THY    HP664424   0.818   9.143   3.028 -0.3839  1.8001  1.7927
18734THY    HP764425   0.885   9.207   2.872  1.2675 -0.7134  1.1038
18734THY    CA364426   1.021   9.216   3.279 -0.3838  0.8093  0.5945
18734THY    HA364427   1.054   9.316   3.251  0.7914 -0.7033 -0.1742
18734THY    CA464428   1.006   9.189   3.417  0.2874 -0.1590 -0.3898
18734THY    HA464429   1.034   9.270   3.483 -0.9262 -1.4926  1.1975
18734THY    CA564430   0.967   9.065   3.473 -0.1471  0.5716  0.0275
18734THY    CM164431   0.968   9.036   3.616  0.6571 -0.3528  0.0508
18734THY    HM164432   1.028   9.110   3.669 -0.0173  0.3196  0.1258
18734THY    HM264433   1.005   8.934   3.635 -0.2665 -0.1885 -0.2634
18734THY    HM364434   0.872   9.028   3.667  1.8337  1.7724 -1.5755
18734THY    CA664435   0.940   8.959   3.383  0.4250  0.0232 -0.0381
18734THY    HA664436   0.903   8.864   3.421  0.6496  0.6477  0.1228
18735THY      O64437   3.853   3.196   2.324  0.2137 -0.1751 -0.1313
18735THY     HO64438   3.811   3.282   2.341 -2.7149  0.5701 -1.5955
18735THY    CA164439   3.740   3.120   2.326  0.0519 -0.1199 -0.2975
18735THY    CA264440   3.741   2.979   2.328  1.0419  0.3920 -0.6341
18735THY    CP164441   3.866   2.896   2.308 -0.2129 -0.1800  0.1643
18735THY    HP164442   3.953   2.922   2.370 -1.9229  2.1230  0.6153
18735THY    CP264443   3.887   2.911   2.157  0.3069 -0.6855  0.7977
18735THY    HP264444   3.815   2.851   2.099  0.2147 -1.9457  2.0771
18735THY    HP364445   3.989   2.875   2.141 -0.2539  0.3417 -1.4279
18735THY    HP464446   3.878   3.011   2.112  0.0407  0.4418  1.2896
18735THY    CP364447   3.859   2.749   2.338  0.1041 -0.1869 -0.2405
18735THY    HP564448   3.957   2.709   2.306  0.5109  1.1979 -0.3911
18735THY    HP664449   3.779   2.706   2.277  1.6878 -2.4139 -0.2333
18735THY    HP764450   3.852   2.722   2.444  0.1730 -0.5656 -1.8751
18735THY    CA364451   3.621   2.906   2.345  0.5029 -0.1375  0.0229
18735THY    HA364452   3.604   2.799   2.345 -2.5221  2.4482  0.3638
18735THY    CA464453   3.503   2.980   2.379 -0.0774 -0.0409  0.7053
18735THY    HA464454   3.408   2.928   2.381 -0.0942  0.5005  0.7528
18735THY    CA564455   3.507   3.122   2.375 -0.3211  0.0830  0.4897
18735THY    CM164456   3.381   3.197   2.396  0.0172 -0.1148 -0.1638
18735THY    HM164457   3.383   3.269   2.478  2.6213 -0.9744  0.8533
18735THY    HM264458   3.306   3.123   2.425  0.1583  1.1877  0.1869
18735THY    HM364459   3.350   3.249   2.304  0.5473 -1.6104 -2.3595
18735THY    CA664460   3.622   3.196   2.351  0.9724  0.0912  0.2132
18735THY    HA664461   3.614   3.305   2.351 -1.8607  0.3463  0.0906
18736THY      O64462   8.907   3.422   3.919  0.3573 -0.1799  0.2221
18736THY     HO64463   8.971   3.388   3.854  2.0974  0.2980  2.3515
18736THY    CA164464   8.793   3.425   3.849 -0.2984  0.2784 -0.0671
18736THY    CA264465   8.700   3.520   3.880  0.2235 -0.7425  0.0387
18736THY    CP164466   8.722   3.623   3.991  0.3389 -0.0890  0.0647
18736THY    HP164467   8.806   3.593   4.053  0.2829 -0.9511 -2.0141
18736THY    CP264468   8.613   3.607   4.087  0.0406 -0.2146  0.3500
18736THY    HP264469   8.635   3.683   4.163  3.0240 -0.1815 -0.4138
18736THY    HP364470   8.614   3.507   4.131  0.8790  1.1008  0.9077
18736THY    HP464471   8.512   3.614   4.044 -0.5471  0.4020 -2.9601
18736THY    CP364472   8.731   3.763   3.936 -0.1637  0.7364  0.0669
18736THY    HP564473   8.777   3.829   4.010 -0.7793 -0.3668  1.7946
18736THY    HP664474   8.633   3.809   3.921 -0.0892 -2.3247 -0.5385
18736THY    HP764475   8.777   3.767   3.836  0.7415  1.0839 -1.0881
18736THY    CA364476   8.582   3.532   3.805  0.0240 -0.0565 -0.0395
18736THY    HA364477   8.503   3.605   3.821 -0.2126 -1.2420 -0.0042
18736THY    CA464478   8.562   3.446   3.695 -0.1084  0.5156 -0.5379
18736THY    HA464479   8.472   3.460   3.636 -1.8032  3.1526  0.3934
18736THY    CA564480   8.665   3.355   3.659  0.3372  1.0006 -0.1598
18736THY    CM164481   8.659   3.268   3.530  0.2682 -0.2471 -0.4878
18736THY    HM164482   8.620   3.323   3.444 -1.0677  1.4561  1.3909
18736THY    HM264483   8.581   3.192   3.539 -2.0241 -0.2686  1.7559
18736THY    HM364484   8.755   3.219   3.510 -0.6781 -1.5945 -1.9100
18736THY    CA664485   8.775   3.342   3.739  0.4950 -0.8755 -0.2147
18736THY    HA664486   8.859   3.279   3.709  0.8049  1.4674 -1.0063
18737THY      O64487   8.271   7.297   5.484 -0.4758 -0.4259  0.6816
18737THY     HO64488   8.202   7.296   5.416  2.6474 -3.9554 -0.5576
18737THY    CA164489   8.231   7.383   5.577  0.3546  0.2954 -0.3119
18737THY    CA264490   8.309   7.488   5.627 -0.5747  0.5172  0.5881
18737THY    CP164491   8.449   7.504   5.577  0.6502 -0.1254  0.2714
18737THY    HP164492   8.456   7.469   5.473 -0.7465 -0.6938  1.5718
18737THY    CP264493   8.535   7.421   5.664  0.7473 -0.0212  0.8471
18737THY    HP264494   8.523   7.458   5.767 -1.5655 -0.5657  1.8094
18737THY    HP364495   8.643   7.422   5.647  0.7635 -0.0430 -0.3016
18737THY    HP464496   8.504   7.316   5.663  0.0575 -1.4122  1.0463
18737THY    CP364497   8.503   7.644   5.566 -0.7137 -0.2711 -0.1203
18737THY    HP564498   8.427   7.713   5.526  0.4287 -0.7781  0.8736
18737THY    HP664499   8.597   7.653   5.511  2.1661  3.5193 -3.5573
18737THY    HP764500   8.512   7.678   5.670  1.1157 -0.2633 -0.5553
18737THY    CA364501   8.247   7.580   5.718  0.5788  0.2130 -0.0077
18737THY    HA364502   8.309   7.662   5.751 -1.7107  1.2513  1.3915
18737THY    CA464503   8.121   7.557   5.764  0.3450  0.0973 -0.1347
18737THY    HA464504   8.066   7.621   5.832  0.1328 -0.4725  0.3025
18737THY    CA564505   8.047   7.444   5.722 -0.5969 -0.1464  0.6443
18737THY    CM164506   7.902   7.429   5.759 -0.0248 -0.4088 -0.4257
18737THY    HM164507   7.857   7.528   5.774  0.2001  1.0966 -0.5337
18737THY    HM264508   7.898   7.366   5.849  2.4996 -0.4420 -0.7524
18737THY    HM364509   7.847   7.362   5.691  0.2842  0.3026 -1.4274
18737THY    CA664510   8.105   7.356   5.628  0.1451 -0.2752  0.0858
18737THY    HA664511   8.037   7.278   5.598  1.0879 -0.0857 -0.8330
18738THY      O64512   1.802   2.495   6.688 -0.2011 -0.0123 -0.7918
18738THY     HO64513   1.839   2.527   6.604 -1.7141 -0.0259  1.0863
18738THY    CA164514   1.693   2.430   6.644  0.5905 -1.4723  0.4089
18738THY    CA264515   1.578   2.408   6.726  0.0952  0.7664 -0.1910
18738THY    CP164516   1.562   2.477   6.860 -0.0045 -0.2332  0.0833
18738THY    HP164517   1.659   2.490   6.910  0.4138 -1.2473  0.9849
18738THY    CP264518   1.485   2.394   6.975 -0.2167 -0.3712 -0.2888
18738THY    HP264519   1.475   2.458   7.063 -0.5976  1.0833 -2.2749
18738THY    HP364520   1.545   2.306   7.000 -1.4615 -2.5867 -1.8560
18738THY    HP464521   1.385   2.368   6.938 -1.5014  0.7557  2.6516
18738THY    CP364522   1.506   2.614   6.843 -0.7032 -0.2886 -0.1695
18738THY    HP564523   1.397   2.624   6.844 -0.6906 -0.4369 -0.0229
18738THY    HP664524   1.530   2.643   6.740  0.6807  0.0665  0.0261
18738THY    HP764525   1.553   2.689   6.909 -0.3707 -2.8384  2.0168
18738THY    CA364526   1.459   2.349   6.662  0.2784 -0.7971  0.0707
18738THY    HA364527   1.363   2.342   6.712  0.8265  0.6608  1.9626
18738THY    CA464528   1.463   2.300   6.528  0.3277 -0.2397  0.3111
18738THY    HA464529   1.383   2.249   6.476  1.5983 -0.4394 -1.5458
18738THY    CA564530   1.585   2.314   6.457  0.1063  0.1158 -0.8780
18738THY    CM164531   1.592   2.241   6.329 -0.5351  0.8463  0.5338
18738THY    HM164532   1.519   2.159   6.326 -2.1824 -2.0601  1.9598
18738THY    HM264533   1.692   2.196   6.320  1.0685  3.8232  3.1365
18738THY    HM364534   1.572   2.312   6.248  0.1005 -1.4266 -1.7174
18738THY    CA664535   1.697   2.382   6.516 -0.7023 -0.0126  0.0876
18738THY    HA664536   1.792   2.385   6.465  0.6943  2.0875 -2.7407
18739THY      O64537   7.773   3.364   2.637 -0.7162 -0.1893 -1.0197
18739THY     HO64538   7.843   3.303   2.607  0.2820 -0.8050  0.3715
18739THY    CA164539   7.812   3.371   2.767 -0.4253 -0.2553 -0.0899
18739THY    CA264540   7.802   3.493   2.828 -0.2296  0.0867  0.3448
18739THY    CP164541   7.769   3.614   2.748 -0.3653  0.0121 -0.1754
18739THY    HP164542   7.732   3.586   2.648  0.2155 -0.2630  0.0255
18739THY    CP264543   7.891   3.701   2.723  0.5569 -0.3151  0.5864
18739THY    HP264544   7.871   3.799   2.679 -0.4833 -0.9139  0.1220
18739THY    HP364545   7.966   3.648   2.662 -0.4465 -1.3691  0.3436
18739THY    HP464546   7.935   3.720   2.821  1.3008 -0.9721  2.4263
18739THY    CP364547   7.655   3.698   2.822 -0.1244 -0.3420  0.7833
18739THY    HP564548   7.623   3.777   2.753  0.5903 -2.5375 -0.7710
18739THY    HP664549   7.681   3.732   2.923 -2.3208  2.1256 -3.9792
18739THY    HP764550   7.566   3.637   2.837 -1.5163 -0.2701  2.7402
18739THY    CA364551   7.821   3.497   2.966  0.0997 -0.5240 -0.1044
18739THY    HA364552   7.810   3.584   3.030  0.2471 -0.2821 -0.2599
18739THY    CA464553   7.851   3.379   3.030 -1.1573  0.2615  0.4412
18739THY    HA464554   7.869   3.380   3.137 -0.0240  0.1458 -1.8002
18739THY    CA564555   7.862   3.257   2.964  0.6825  0.1235  0.6224
18739THY    CM164556   7.885   3.140   3.044 -0.1790  0.3935 -0.0877
18739THY    HM164557   7.860   3.149   3.150 -1.0109  0.3071 -1.0463
18739THY    HM264558   7.988   3.106   3.028  0.2779 -0.2471  1.5304
18739THY    HM364559   7.815   3.060   3.015 -0.9191  1.2331  0.2394
18739THY    CA664560   7.833   3.253   2.829 -0.1921 -0.2053  0.4215
18739THY    HA664561   7.834   3.162   2.770  0.3356 -0.8753  0.8472
18740THY      O64562   1.636   2.427   4.203  0.1524  0.0737 -0.6636
18740THY     HO64563   1.704   2.492   4.181 -2.3364  1.2885  2.5930
18740THY    CA164564   1.627   2.426   4.338 -0.1200 -0.6804 -0.3366
18740THY    CA264565   1.509   2.412   4.410 -0.1701  0.4826  0.2616
18740THY    CP164566   1.379   2.415   4.321  0.0418 -0.6047  0.2218
18740THY    HP164567   1.402   2.368   4.225  0.4466 -0.5348  0.2728
18740THY    CP264568   1.327   2.557   4.323 -0.0997 -0.1866  0.5258
18740THY    HP264569   1.297   2.595   4.422  1.8369  0.3939  0.6521
18740THY    HP364570   1.244   2.580   4.256  0.9833 -2.4244 -1.6859
18740THY    HP464571   1.398   2.628   4.278 -0.6270 -0.7735  0.6943
18740THY    CP364572   1.278   2.314   4.373  0.0677 -0.1107 -1.1398
18740THY    HP564573   1.311   2.216   4.410 -0.7879  2.6680 -0.4620
18740THY    HP664574   1.199   2.312   4.296  1.1327 -1.4919  2.1965
18740THY    HP764575   1.235   2.358   4.463  1.8818  0.3270 -0.1713
18740THY    CA364576   1.508   2.410   4.553  0.4572  0.6606 -0.0739
18740THY    HA364577   1.414   2.412   4.608 -0.6036 -1.0793  0.8951
18740THY    CA464578   1.622   2.435   4.614  0.7440 -0.4339  0.1702
18740THY    HA464579   1.623   2.438   4.722 -0.0622 -0.4019 -0.3857
18740THY    CA564580   1.743   2.441   4.547 -0.1994  0.2190 -0.2162
18740THY    CM164581   1.872   2.445   4.624  0.7119  0.1646 -0.4559
18740THY    HM164582   1.867   2.527   4.696 -1.1381  1.2762 -1.4797
18740THY    HM264583   1.958   2.450   4.556 -0.3821 -1.2965 -0.9460
18740THY    HM364584   1.887   2.353   4.682 -0.3504  0.7729 -0.2698
18740THY    CA664585   1.747   2.435   4.403 -0.1351 -0.6172 -0.2285
18740THY    HA664586   1.840   2.428   4.347  0.1112 -0.5125  1.7678
18741THY      O64587   8.013   4.057   1.766  0.0650 -0.3346  0.4310
18741THY     HO64588   8.020   4.146   1.729 -0.0406  0.2781  0.6964
18741THY    CA164589   7.913   4.072   1.857  0.3229  0.8225 -0.1914
18741THY    CA264590   7.912   3.993   1.983  0.1892  0.2913 -0.4397
18741THY    CP164591   8.007   3.873   1.999 -0.7327 -0.1983 -0.2092
18741THY    HP164592   8.094   3.885   1.934 -0.5784 -0.3459 -1.8260
18741THY    CP264593   7.955   3.732   1.953 -0.5408 -0.0127  0.0708
18741THY    HP264594   7.911   3.684   2.041 -1.0019  0.5004  1.3912
18741THY    HP364595   8.036   3.671   1.910 -1.0013 -0.4264 -0.2493
18741THY    HP464596   7.872   3.747   1.884 -1.0295  0.9420  2.1067
18741THY    CP364597   8.058   3.867   2.146  0.1291 -0.3338 -1.0774
18741THY    HP564598   8.096   3.965   2.179  0.0854  1.2906 -1.5695
18741THY    HP664599   8.138   3.793   2.156  0.4539 -0.4612 -0.7514
18741THY    HP764600   7.972   3.840   2.208  0.3499  0.4110 -0.1421
18741THY    CA364601   7.805   4.022   2.071  0.6668 -0.1512 -0.0435
18741THY    HA364602   7.789   3.963   2.161  0.7952  0.1412  0.3662
18741THY    CA464603   7.713   4.125   2.046 -0.6600  0.3520  0.1320
18741THY    HA464604   7.634   4.147   2.118  1.2189  1.5265  3.9696
18741THY    CA564605   7.724   4.204   1.929  0.0715 -0.0985 -0.2099
18741THY    CM164606   7.619   4.305   1.885 -0.4391  0.0547 -0.1049
18741THY    HM164607   7.544   4.303   1.965  1.9365  2.4212 -0.2719
18741THY    HM264608   7.585   4.265   1.788 -0.6525 -0.0704  0.3839
18741THY    HM364609   7.645   4.409   1.868 -2.7739 -0.5889  0.4406
18741THY    CA664610   7.825   4.182   1.834  0.1195 -0.0231 -0.8187
18741THY    HA664611   7.818   4.238   1.742 -0.6118  1.3248  1.4167
18742THY      O64612   7.470   6.506   3.957 -0.0053 -0.0298  0.3584
18742THY     HO64613   7.496   6.596   3.929  1.1636 -2.6221 -0.6680
18742THY    CA164614   7.533   6.487   4.069 -0.0779  0.1414  0.0181
18742THY    CA264615   7.572   6.366   4.112 -0.1228  0.0909  0.2570
18742THY    CP164616   7.528   6.238   4.039  0.1373  0.1267 -0.0002
18742THY    HP164617   7.520   6.251   3.930  1.4037 -0.3264 -2.3902
18742THY    CP264618   7.390   6.193   4.081  0.5251 -0.1344  0.3068
18742THY    HP264619   7.350   6.105   4.028 -1.8067  2.6296 -0.4505
18742THY    HP364620   7.327   6.282   4.070  1.2661  2.7049  1.2881
18742THY    HP464621   7.392   6.171   4.188 -2.2743  0.2510  1.5419
18742THY    CP364622   7.636   6.128   4.039  0.5698  0.2250  0.7988
18742THY    HP564623   7.645   6.068   4.130 -3.8227 -1.0206 -2.2443
18742THY    HP664624   7.729   6.170   3.999 -0.3375 -2.7854  0.1937
18742THY    HP764625   7.607   6.061   3.957  0.1856  0.5002  0.6209
18742THY    CA364626   7.619   6.351   4.242  0.1089 -0.8161  0.1794
18742THY    HA364627   7.652   6.259   4.289  0.4202  2.9009  1.9917
18742THY    CA464628   7.673   6.468   4.306 -0.4256  0.6730  0.1294
18742THY    HA464629   7.738   6.462   4.393  2.3429 -1.3135 -0.9227
18742THY    CA564630   7.659   6.594   4.255 -0.6356  0.3690 -0.3704
18742THY    CM164631   7.720   6.717   4.317 -0.5431 -0.5840 -0.0132
18742THY    HM164632   7.727   6.797   4.242  2.1958 -0.1686  0.2465
18742THY    HM264633   7.822   6.698   4.351 -0.6631  0.1360  0.5950
18742THY    HM364634   7.668   6.736   4.411 -0.6975 -0.5939 -0.3792
18742THY    CA664635   7.583   6.602   4.139  0.1144  0.1215 -0.4886
18742THY    HA664636   7.558   6.702   4.103  1.7714 -1.3894 -0.5560
18743THY      O64637   6.847   1.584   3.565  0.2362 -0.4569  0.2948
18743THY     HO64638   6.911   1.562   3.496  1.9155  1.6198 -1.8534
18743THY    CA164639   6.854   1.717   3.606  0.2575  0.1723 -0.3071
18743THY    CA264640   6.811   1.764   3.728  0.4360  0.1629 -0.1227
18743THY    CP164641   6.781   1.670   3.846  0.5750 -0.3563  0.3927
18743THY    HP164642   6.767   1.566   3.814  1.6057  0.7749 -0.1243
18743THY    CP264643   6.657   1.706   3.938 -0.6534  0.1741 -0.5955
18743THY    HP264644   6.667   1.799   3.994  0.1381 -0.1868 -0.4470
18743THY    HP364645   6.640   1.628   4.013  0.0637 -1.1871 -2.1475
18743THY    HP464646   6.565   1.722   3.880 -1.2171  1.6555  2.0598
18743THY    CP364647   6.908   1.664   3.931 -0.0331  0.1101  0.4272
18743THY    HP564648   6.928   1.762   3.976 -0.7572 -2.5529  1.9214
18743THY    HP664649   6.995   1.645   3.867 -0.8430 -1.7152  2.4118
18743THY    HP764650   6.913   1.592   4.013  1.5995  0.0235  0.4153
18743THY    CA364651   6.807   1.906   3.754  0.9602  0.2096  1.2031
18743THY    HA364652   6.773   1.953   3.845 -1.2815  0.8619 -1.4114
18743THY    CA464653   6.842   1.992   3.647 -0.5759 -0.4046  0.2124
18743THY    HA464654   6.829   2.099   3.661 -1.0406 -0.5987  0.1847
18743THY    CA564655   6.887   1.937   3.527 -0.1918  0.4144  0.0426
18743THY    CM164656   6.926   2.024   3.414 -0.8698  0.5679  0.0947
18743THY    HM164657   7.033   2.047   3.416 -0.6657 -1.2751 -0.5195
18743THY    HM264658   6.861   2.112   3.409 -1.4454 -0.3933 -0.3679
18743THY    HM364659   6.908   1.973   3.319  0.4288 -0.6535  1.8071
18743THY    CA664660   6.890   1.805   3.506 -0.1103  0.5356 -0.1392
18743THY    HA664661   6.918   1.769   3.407 -1.0566 -0.4934  1.8057
18744THY      O64662   1.765   0.570   4.810  0.0738  0.6229  0.4692
18744THY     HO64663   1.814   0.625   4.875  2.2170 -0.9536  0.5365
18744THY    CA164664   1.645   0.632   4.794 -0.5688 -0.4160  0.1539
18744THY    CA264665   1.547   0.571   4.709  0.9012  0.8686  0.3338
18744THY    CP164666   1.580   0.442   4.641  0.8845  0.3358  0.0414
18744THY    HP164667   1.682   0.405   4.654  0.3953  2.8740 -0.5595
18744THY    CP264668   1.537   0.443   4.489  0.6367 -0.1546 -1.0063
18744THY    HP264669   1.584   0.359   4.437  1.6922 -0.6610 -0.1286
18744THY    HP364670   1.580   0.533   4.443  0.5205 -0.6220 -1.1863
18744THY    HP464671   1.428   0.437   4.473  0.3442  1.5393 -0.7457
18744THY    CP364672   1.499   0.329   4.697 -0.0922  0.4494  0.6350
18744THY    HP564673   1.543   0.232   4.675  2.0405  1.7523  1.2422
18744THY    HP664674   1.398   0.322   4.654 -0.1101  0.8169 -1.9907
18744THY    HP764675   1.476   0.339   4.803  0.2531  0.5161  0.7234
18744THY    CA364676   1.429   0.645   4.682  0.2035  0.2191 -0.9065
18744THY    HA364677   1.362   0.601   4.608  0.0804  0.0869 -0.4992
18744THY    CA464678   1.410   0.769   4.755  0.6161  0.4099 -0.3409
18744THY    HA464679   1.319   0.826   4.740  1.8108  0.6375  1.7546
18744THY    CA564680   1.518   0.825   4.829 -0.5069 -0.1544  0.0909
18744THY    CM164681   1.508   0.957   4.899  0.4983  0.3351 -0.4570
18744THY    HM164682   1.605   1.004   4.918 -0.4383  0.3066  1.6086
18744THY    HM264683   1.455   0.942   4.994  1.8861  1.0310 -1.0559
18744THY    HM364684   1.462   1.023   4.824  3.6218 -1.8690 -0.5537
18744THY    CA664685   1.624   0.752   4.851 -0.4106 -1.1303  0.1798
18744THY    HA664686   1.707   0.784   4.913  1.8746 -4.0383  0.3055
18745THY      O64687   8.882   6.887   4.176 -0.2156  0.1873  0.2101
18745THY     HO64688   8.913   6.930   4.094 -0.2016 -1.1802 -2.2291
18745THY    CA164689   8.809   6.786   4.126 -0.2484  0.3033 -0.2221
18745THY    CA264690   8.801   6.663   4.182 -0.1630 -0.2325  0.0459
18745THY    CP164691   8.865   6.640   4.322 -0.2165  0.0561  0.3449
18745THY    HP164692   8.857   6.734   4.377 -1.3020  1.3232 -0.4468
18745THY    CP264693   9.024   6.620   4.305 -0.0672  0.1219 -0.1498
18745THY    HP264694   9.054   6.520   4.271 -1.3455 -0.0769 -0.4812
18745THY    HP364695   9.070   6.626   4.405 -0.9331  0.7473 -2.4695
18745THY    HP464696   9.068   6.690   4.234  0.4499 -0.0786 -0.6671
18745THY    CP364697   8.799   6.530   4.409  0.2435 -0.3034  0.0853
18745THY    HP564698   8.843   6.523   4.509 -0.7047  0.1291  0.1773
18745THY    HP664699   8.814   6.434   4.357 -0.1688 -0.4350  0.0897
18745THY    HP764700   8.692   6.545   4.424  0.2231 -1.0288  0.7441
18745THY    CA364701   8.733   6.553   4.119  0.7672 -0.6101  0.5237
18745THY    HA364702   8.737   6.452   4.159 -0.6632  1.2676  1.1647
18745THY    CA464703   8.670   6.574   3.994  0.3318 -0.2954  0.1689
18745THY    HA464704   8.624   6.497   3.932  1.2993 -0.9569  0.1038
18745THY    CA564705   8.679   6.704   3.938  1.2998 -0.0900  0.5991
18745THY    CM164706   8.627   6.730   3.800 -0.0349  0.9122  0.2363
18745THY    HM164707   8.646   6.823   3.745 -4.1921 -0.8541  0.2652
18745THY    HM264708   8.517   6.737   3.805 -0.0807  1.4475 -0.8086
18745THY    HM364709   8.641   6.650   3.727  1.1469 -2.3428  3.1149
18745THY    CA664710   8.747   6.804   4.004 -0.0197 -0.4130  0.7886
18745THY    HA664711   8.747   6.901   3.956  1.2921 -0.3384  0.8356
18746THY      O64712   8.281   5.687   3.601  0.1059 -0.3365  0.2841
18746THY     HO64713   8.268   5.675   3.505  0.5441 -0.3932  0.2504
18746THY    CA164714   8.382   5.612   3.640  0.7202  0.1893  0.2747
18746THY    CA264715   8.440   5.634   3.770  0.3068  0.2116  0.0904
18746THY    CP164716   8.384   5.741   3.866 -0.3615  0.1374  0.4714
18746THY    HP164717   8.290   5.779   3.824 -0.8570 -0.4239 -1.2771
18746THY    CP264718   8.484   5.852   3.875  0.4071  0.2398 -0.3880
18746THY    HP264719   8.445   5.934   3.936  0.7825  1.6989 -1.2668
18746THY    HP364720   8.497   5.887   3.772 -1.0698  0.0337 -0.3656
18746THY    HP464721   8.574   5.807   3.919 -0.3861 -0.1240 -2.4596
18746THY    CP364722   8.342   5.685   4.006  1.1533 -0.3215  0.1515
18746THY    HP564723   8.295   5.755   4.076  1.3028 -1.2917  1.2535
18746THY    HP664724   8.428   5.632   4.048 -0.8620  0.7730 -2.4750
18746THY    HP764725   8.271   5.605   3.982 -0.7552 -1.4708  2.0888
18746THY    CA364726   8.545   5.552   3.809  0.3832  0.3753  0.5059
18746THY    HA364727   8.597   5.559   3.904  0.5165  0.4525 -1.2214
18746THY    CA464728   8.603   5.458   3.720  0.5383 -0.1971 -0.8727
18746THY    HA464729   8.689   5.399   3.752  0.2299  1.1547 -0.5989
18746THY    CA564730   8.545   5.446   3.590  0.8909 -0.1773  0.3766
18746THY    CM164731   8.594   5.341   3.492  0.1076 -0.8825 -0.0830
18746THY    HM164732   8.681   5.374   3.434  2.0017  0.3442 -2.6236
18746THY    HM264733   8.515   5.297   3.429  0.1746  0.9664 -3.1210
18746THY    HM364734   8.639   5.258   3.547 -0.1267 -1.8154 -0.8359
18746THY    CA664735   8.429   5.514   3.558  0.8577  0.4026 -0.5225
18746THY    HA664736   8.390   5.494   3.459  0.1609  0.6787 -0.5495
18747THY      O64737   5.419   8.593   3.127  0.3334 -0.2419  0.1219
18747THY     HO64738   5.375   8.506   3.133  0.7405  0.7945 -0.0254
18747THY    CA164739   5.500   8.598   3.239 -0.0666  0.4372  0.1098
18747THY    CA264740   5.524   8.725   3.298 -0.5449 -0.3091  1.0884
18747THY    CP164741   5.453   8.849   3.245  0.1992 -0.0534  0.1093
18747THY    HP164742   5.355   8.817   3.209  1.1422 -0.9578 -1.9227
18747THY    CP264743   5.521   8.918   3.126  0.6188  0.0961 -0.9954
18747THY    HP264744   5.559   8.838   3.061  0.2009  1.2141 -2.1419
18747THY    HP364745   5.613   8.975   3.146  1.8103 -2.7656 -1.7278
18747THY    HP464746   5.453   8.985   3.073 -0.2616 -0.9862 -2.6714
18747THY    CP364747   5.426   8.957   3.346 -0.4552  0.6929  0.2361
18747THY    HP564748   5.527   8.996   3.363 -0.0460  0.0856 -0.5284
18747THY    HP664749   5.369   8.920   3.432 -1.5912 -1.2030 -2.8039
18747THY    HP764750   5.373   9.045   3.307  0.7818  0.5090  0.9154
18747THY    CA364751   5.629   8.738   3.393 -0.8061 -0.1330  0.1543
18747THY    HA364752   5.647   8.834   3.439 -2.1729  1.1882 -0.1816
18747THY    CA464753   5.686   8.621   3.443 -0.1176  0.2535 -0.8033
18747THY    HA464754   5.763   8.636   3.519  0.6706 -1.1238  3.2545
18747THY    CA564755   5.658   8.499   3.382  0.1577 -0.7382 -0.6149
18747THY    CM164756   5.722   8.377   3.432 -0.5517  1.0395 -0.1126
18747THY    HM164757   5.831   8.394   3.427 -0.3791  3.7313 -0.0257
18747THY    HM264758   5.699   8.294   3.364  0.4065  0.6410 -0.0735
18747THY    HM364759   5.700   8.347   3.535 -0.3540  1.6468  1.6997
18747THY    CA664760   5.571   8.489   3.277 -0.1746  0.2099 -0.0110
18747THY    HA664761   5.562   8.396   3.220  2.4269  2.3054 -1.6880
18748THY      O64762   1.582   4.389   5.974 -0.3828 -0.6492 -0.4215
18748THY     HO64763   1.509   4.325   5.979 -0.0206  1.2816 -0.7632
18748THY    CA164764   1.514   4.487   5.917  0.1923  0.0114  0.6458
18748THY    CA264765   1.538   4.623   5.936  0.2204  0.0415 -0.3185
18748THY    CP164766   1.660   4.677   6.017  0.7417  0.4446 -0.3271
18748THY    HP164767   1.689   4.612   6.100 -1.5318  1.6323  0.1071
18748THY    CP264768   1.656   4.820   6.083  0.2467  0.6828  0.4358
18748THY    HP264769   1.605   4.816   6.180 -0.3326  0.4488  1.6064
18748THY    HP364770   1.614   4.889   6.009  0.0252  0.1032 -0.3105
18748THY    HP464771   1.752   4.860   6.117  0.3062 -0.4004  1.2587
18748THY    CP364772   1.787   4.671   5.925 -1.0322  0.9179  0.5610
18748THY    HP564773   1.880   4.720   5.958  0.6088 -0.7044 -1.3151
18748THY    HP664774   1.761   4.716   5.828  2.2441 -1.2157 -1.6995
18748THY    HP764775   1.813   4.566   5.912 -1.4228  1.2412  0.4196
18748THY    CA364776   1.467   4.713   5.861  1.0311  0.0434 -0.4818
18748THY    HA364777   1.481   4.820   5.862  0.0698  1.4150 -0.3556
18748THY    CA464778   1.381   4.671   5.758  0.7089  0.1978 -0.2974
18748THY    HA464779   1.342   4.745   5.688  1.3536 -1.4145 -1.4278
18748THY    CA564780   1.367   4.533   5.736  0.5868  0.0914  0.1085
18748THY    CM164781   1.279   4.478   5.624  0.5725  0.0549 -0.1848
18748THY    HM164782   1.193   4.545   5.634  0.9275  3.0692 -0.0745
18748THY    HM264783   1.251   4.374   5.641 -0.2407  1.1859  0.2014
18748THY    HM364784   1.319   4.489   5.522 -0.3902 -0.1846  1.6148
18748THY    CA664785   1.431   4.443   5.820  0.3279  0.8217 -0.0180
18748THY    HA664786   1.423   4.340   5.787  2.0276 -1.0013  0.3719
18749THY      O64787   7.995   8.668   6.827 -0.1421  0.2062  0.7044
18749THY     HO64788   7.924   8.611   6.863 -0.9427 -1.5439  0.5329
18749THY    CA164789   8.017   8.641   6.700 -0.4696  0.0274 -0.0588
18749THY    CA264790   8.075   8.735   6.614  0.3060  0.3157  0.4921
18749THY    CP164791   8.103   8.882   6.661  1.3059  0.6773  0.1390
18749THY    HP164792   8.072   8.908   6.763  0.7655  0.1017  1.8962
18749THY    CP264793   8.027   8.986   6.577  0.5356  0.4266 -0.8870
18749THY    HP264794   8.032   9.087   6.619 -0.5460  2.5397 -1.6432
18749THY    HP364795   7.921   8.956   6.583 -0.8727 -0.0911  3.2681
18749THY    HP464796   8.057   8.970   6.473  0.2952  0.6050 -2.6963
18749THY    CP364797   8.241   8.922   6.643 -0.1629  0.0166 -0.9029
18749THY    HP564798   8.272   8.949   6.542 -1.1726 -1.2508 -4.0527
18749THY    HP664799   8.304   8.837   6.670  0.7209  0.8403 -0.0099
18749THY    HP764800   8.256   9.012   6.704  2.5853 -0.8689 -0.6889
18749THY    CA364801   8.092   8.700   6.482 -0.3421  0.5511  0.3204
18749THY    HA364802   8.139   8.773   6.417 -1.2075 -1.0781 -0.5022
18749THY    CA464803   8.043   8.575   6.423  0.6864  0.1380 -0.4717
18749THY    HA464804   8.053   8.556   6.317  0.4397  0.3624 -1.9761
18749THY    CA564805   7.973   8.488   6.503  0.5545  0.3535  0.3515
18749THY    CM164806   7.912   8.353   6.456  0.0631  0.7256 -1.2166
18749THY    HM164807   7.991   8.281   6.430 -1.1068 -2.5451 -1.5116
18749THY    HM264808   7.872   8.385   6.359 -1.5053  1.7498  0.1207
18749THY    HM364809   7.834   8.310   6.520  0.7156  2.3300 -0.1072
18749THY    CA664810   7.964   8.520   6.643  0.1608  0.0604  0.0745
18749THY    HA664811   7.908   8.455   6.710  1.4360  0.3420 -0.7692
18750THY      O64812   5.304   4.842   3.106  0.2364 -0.3257 -0.2905
18750THY     HO64813   5.400   4.851   3.108  0.2319  3.4898  0.6092
18750THY    CA164814   5.288   4.732   3.191  0.4236 -0.0945 -0.2838
18750THY    CA264815   5.176   4.719   3.276 -0.2511 -0.5376  0.3713
18750THY    CP164816   5.062   4.814   3.259 -0.4292 -0.1602  0.2851
18750THY    HP164817   5.101   4.908   3.219 -0.2209 -0.4166  0.0909
18750THY    CP264818   5.000   4.853   3.394 -0.3583  0.7287 -0.1285
18750THY    HP264819   4.966   4.772   3.459  0.9881  0.3371 -1.0602
18750THY    HP364820   4.927   4.935   3.392 -0.7217 -0.2427 -0.4601
18750THY    HP464821   5.082   4.906   3.444  0.8314 -1.0758 -0.1582
18750THY    CP364822   4.945   4.766   3.165  0.0141  0.0604 -0.0056
18750THY    HP564823   4.861   4.836   3.152 -1.2037 -0.0183 -1.4363
18750THY    HP664824   4.911   4.667   3.198  1.1732 -2.9976 -1.5507
18750THY    HP764825   4.984   4.742   3.066 -1.7175 -0.8287  0.7010
18750THY    CA364826   5.183   4.620   3.380  0.7402 -0.4649 -0.2350
18750THY    HA364827   5.093   4.603   3.438 -1.0363 -2.3843  1.9442
18750THY    CA464828   5.302   4.550   3.409 -0.8144 -0.7976 -0.0727
18750THY    HA464829   5.301   4.476   3.488  0.1392 -1.5226 -0.8914
18750THY    CA564830   5.409   4.568   3.326  0.0373  0.3504  0.0043
18750THY    CM164831   5.536   4.497   3.353 -0.3119  0.3218 -0.4171
18750THY    HM164832   5.529   4.432   3.441 -0.7984  1.4653  1.1356
18750THY    HM264833   5.626   4.560   3.357 -0.4610 -0.3624 -0.1561
18750THY    HM364834   5.555   4.422   3.276  0.7438  0.8763 -0.7453
18750THY    CA664835   5.402   4.659   3.222  0.1147  0.4900 -0.7530
18750THY    HA664836   5.489   4.669   3.158  0.8634  1.4408 -1.1093
18751THY      O64837   7.385   7.600   6.519  0.0324 -0.3740 -0.6478
18751THY     HO64838   7.397   7.573   6.426 -1.2770 -0.8520  0.3244
18751THY    CA164839   7.444   7.721   6.529 -0.4109 -0.2122  0.0672
18751THY    CA264840   7.405   7.824   6.620  0.3325 -0.7548 -0.1039
18751THY    CP164841   7.298   7.796   6.725 -0.1250  0.1622 -0.1532
18751THY    HP164842   7.237   7.712   6.689 -1.1372 -0.6686  0.9055
18751THY    CP264843   7.204   7.912   6.754  0.4117  0.5231  0.2716
18751THY    HP264844   7.134   7.897   6.837 -1.7756 -0.9053  1.9131
18751THY    HP364845   7.146   7.933   6.663  0.1710  0.2800 -1.3067
18751THY    HP464846   7.260   8.003   6.776 -2.6147 -2.0836  3.0162
18751THY    CP364847   7.363   7.748   6.853 -0.5958 -0.4302 -0.3984
18751THY    HP564848   7.472   7.758   6.850 -0.4877 -0.5078 -1.4440
18751THY    HP664849   7.337   7.643   6.873  0.4665  2.7547 -0.1746
18751THY    HP764850   7.339   7.806   6.943 -0.4897 -2.4433  3.0041
18751THY    CA364851   7.469   7.946   6.608 -0.3463  0.3576 -0.3204
18751THY    HA364852   7.443   8.031   6.670  0.9023 -1.5403  1.5293
18751THY    CA464853   7.566   7.967   6.506  0.2416 -0.1324 -0.3213
18751THY    HA464854   7.612   8.065   6.505 -0.6983  1.5930  0.1809
18751THY    CA564855   7.608   7.867   6.433 -0.2734  0.4624  0.8114
18751THY    CM164856   7.709   7.891   6.327 -0.7580  0.0116 -0.2088
18751THY    HM164857   7.675   7.852   6.230 -0.2221 -0.1470 -0.2863
18751THY    HM264858   7.807   7.847   6.349  1.7795  2.2752  5.6371
18751THY    HM364859   7.729   7.997   6.310  0.1942 -0.7254 -0.4850
18751THY    CA664860   7.542   7.746   6.439 -0.3226 -0.1509 -0.3568
18751THY    HA664861   7.568   7.673   6.363  2.4012  0.6220 -0.3259
18752THY      O64862   5.279   8.520   4.035  0.8349 -0.1907 -0.0124
18752THY     HO64863   5.223   8.549   3.961  0.1425  0.8867  1.5107
18752THY    CA164864   5.398   8.582   4.025 -0.5378  0.6158  0.0337
18752THY    CA264865   5.488   8.589   4.134  0.0904 -0.2373  0.0536
18752THY    CP164866   5.439   8.549   4.278  0.1443 -0.3543  0.1092
18752THY    HP164867   5.372   8.462   4.272 -1.3110 -1.2953  1.2513
18752THY    CP264868   5.349   8.658   4.351 -0.1482 -0.1249 -0.1935
18752THY    HP264869   5.255   8.662   4.295  0.2644 -0.8090  0.0864
18752THY    HP364870   5.411   8.749   4.358  1.3584  1.0974 -1.2519
18752THY    HP464871   5.329   8.635   4.457 -0.2336 -0.2212 -0.5570
18752THY    CP364872   5.548   8.515   4.376  0.6856 -0.0325 -1.0351
18752THY    HP564873   5.620   8.457   4.318 -0.0766 -1.6702 -0.4017
18752THY    HP664874   5.507   8.455   4.458 -1.4921  0.5750  1.0957
18752THY    HP764875   5.593   8.604   4.422 -0.0273 -2.2738  0.5809
18752THY    CA364876   5.619   8.639   4.119 -0.2911  0.4477  0.8074
18752THY    HA364877   5.686   8.651   4.204 -0.6403  0.7157  0.8664
18752THY    CA464878   5.658   8.682   3.994 -0.3197  0.7563 -0.1902
18752THY    HA464879   5.753   8.732   3.979 -0.0392  1.1595 -0.5935
18752THY    CA564880   5.574   8.685   3.882 -0.4745  0.6527 -0.2355
18752THY    CM164881   5.639   8.711   3.748  0.1501 -0.3042 -0.2737
18752THY    HM164882   5.746   8.724   3.763  0.1810  0.7490 -1.5648
18752THY    HM264883   5.600   8.791   3.683  1.1606 -0.0536  0.4372
18752THY    HM364884   5.619   8.616   3.698 -1.7658  2.3094 -1.3537
18752THY    CA664885   5.443   8.623   3.900  0.0579 -0.2256 -0.0185
18752THY    HA664886   5.384   8.616   3.809  0.3801 -0.3402 -1.7311
18753THY      O64887   5.260   5.936   3.008 -0.0620 -0.4370  0.6459
18753THY     HO64888   5.350   5.919   2.974 -0.0275 -1.2043  2.1976
18753THY    CA164889   5.167   5.890   2.918  0.2295 -0.3872 -0.6853
18753THY    CA264890   5.030   5.898   2.931  0.0344  0.2215  0.0100
18753THY    CP164891   4.962   5.948   3.058 -0.5579  0.2214 -0.1234
18753THY    HP164892   5.041   6.005   3.107 -0.4837 -0.7048  0.5835
18753THY    CP264893   4.899   5.844   3.152 -0.1740  0.2695 -0.6756
18753THY    HP264894   4.973   5.774   3.192 -0.5936  1.1327 -0.6337
18753THY    HP364895   4.820   5.788   3.100 -0.3933 -0.5921  0.3969
18753THY    HP464896   4.858   5.905   3.233 -0.0268 -0.8360  0.9626
18753THY    CP364897   4.865   6.060   3.024 -0.2411 -0.1535 -0.1086
18753THY    HP564898   4.775   6.022   2.974 -0.0841 -1.6567  1.3934
18753THY    HP664899   4.906   6.131   2.951 -0.3943  1.3778  1.6325
18753THY    HP764900   4.841   6.109   3.120 -0.1574  0.2683 -0.8760
18753THY    CA364901   4.947   5.855   2.826 -0.1231  0.0454  0.0526
18753THY    HA364902   4.839   5.855   2.838 -0.0721  0.5093  0.0304
18753THY    CA464903   5.004   5.807   2.713 -0.5127  0.5663 -0.9196
18753THY    HA464904   4.944   5.768   2.631 -2.8861 -0.0462  3.4268
18753THY    CA564905   5.142   5.805   2.699 -0.0328  0.0809 -0.6766
18753THY    CM164906   5.181   5.750   2.570  0.8215 -0.0964  0.6280
18753THY    HM164907   5.144   5.808   2.486 -2.5393  0.0019 -1.1587
18753THY    HM264908   5.149   5.645   2.567  3.4312  3.4111 -0.4865
18753THY    HM364909   5.291   5.743   2.576  0.9735  2.0853  3.2542
18753THY    CA664910   5.226   5.839   2.803 -0.2890 -0.0304 -0.4236
18753THY    HA664911   5.333   5.834   2.788 -0.6166 -2.7586 -0.4101
18754THY      O64912   4.969   8.396   5.749  0.2279 -0.5834 -0.4188
18754THY     HO64913   5.045   8.456   5.735  0.5199  2.7156  0.1894
18754THY    CA164914   4.867   8.451   5.676  0.8009  0.2619  0.0650
18754THY    CA264915   4.745   8.379   5.645 -0.2566  0.1102  0.0836
18754THY    CP164916   4.725   8.240   5.699  0.3228  0.2009  0.1300
18754THY    HP164917   4.802   8.227   5.777 -0.8907  1.6217  1.0747
18754THY    CP264918   4.750   8.124   5.592  0.3501 -0.2700 -0.0925
18754THY    HP264919   4.702   8.156   5.498  1.4097 -1.0015 -0.5813
18754THY    HP364920   4.719   8.024   5.625 -0.3887 -0.2398  0.1360
18754THY    HP464921   4.856   8.119   5.567  0.6250  1.0807 -1.7595
18754THY    CP364922   4.588   8.211   5.772 -0.4756  0.1748 -0.9292
18754THY    HP564923   4.553   8.299   5.828 -0.7826 -1.8383  0.3031
18754THY    HP664924   4.587   8.130   5.846 -1.2399  0.5694 -0.5700
18754THY    HP764925   4.510   8.202   5.696  1.3349 -1.8719 -0.2441
18754THY    CA364926   4.643   8.436   5.569 -0.2058 -0.1103 -0.3511
18754THY    HA364927   4.558   8.373   5.543  0.5437 -1.7590 -0.7421
18754THY    CA464928   4.673   8.560   5.518 -0.5322  0.0566 -0.0682
18754THY    HA464929   4.601   8.609   5.453  0.2562 -1.1070 -0.4122
18754THY    CA564930   4.790   8.630   5.541  0.4319 -0.6535  0.5615
18754THY    CM164931   4.815   8.771   5.493  0.1761  0.0751  0.3732
18754THY    HM164932   4.887   8.827   5.554  1.2098  0.8924 -1.7369
18754THY    HM264933   4.720   8.825   5.483 -1.0867  0.5255 -1.6953
18754THY    HM364934   4.864   8.763   5.395  2.3775  1.1132  0.3598
18754THY    CA664935   4.887   8.574   5.621  0.0997  0.1910  0.2114
18754THY    HA664936   4.976   8.634   5.642  0.6319 -0.8338 -0.1876
18755THY      O64937   3.517   5.352   7.761  0.3951  0.5326  0.6046
18755THY     HO64938   3.578   5.378   7.833  1.5700  0.1762 -1.0344
18755THY    CA164939   3.537   5.218   7.740  0.6062 -0.3506 -0.4881
18755THY    CA264940   3.531   5.169   7.610 -0.6928  0.5038 -0.0927
18755THY    CP164941   3.536   5.270   7.488 -0.0956 -0.0667 -0.2527
18755THY    HP164942   3.468   5.350   7.521  1.1664 -0.5424  1.0644
18755THY    CP264943   3.462   5.216   7.365  0.0310 -0.4824 -0.3775
18755THY    HP264944   3.377   5.149   7.384 -1.1526  1.1035  1.4563
18755THY    HP364945   3.533   5.167   7.298  0.4584  0.4486 -1.0680
18755THY    HP464946   3.416   5.301   7.313 -1.0885 -1.3679 -1.4856
18755THY    CP364947   3.672   5.337   7.450 -0.2322  0.1081  0.3005
18755THY    HP564948   3.727   5.275   7.378  1.5116  2.1150 -0.6216
18755THY    HP664949   3.738   5.352   7.536  0.7216 -0.9850  2.8567
18755THY    HP764950   3.658   5.430   7.394 -1.0123  0.1443  0.2109
18755THY    CA364951   3.551   5.028   7.584 -0.0357  0.2871 -0.7616
18755THY    HA364952   3.545   4.984   7.485  0.9718  0.6461 -1.7575
18755THY    CA464953   3.557   4.943   7.695 -0.3481  0.3156  0.0481
18755THY    HA464954   3.562   4.837   7.670 -1.2031 -0.0243  0.0803
18755THY    CA564955   3.556   4.996   7.827  0.1429  0.1998  0.2032
18755THY    CM164956   3.562   4.899   7.945  1.0179 -0.3460  0.0424
18755THY    HM164957   3.465   4.850   7.961 -0.3372 -0.0129  2.6111
18755THY    HM264958   3.576   4.951   8.040 -2.1391 -1.3875  3.2171
18755THY    HM364959   3.630   4.814   7.939  0.6594  1.4311 -0.4049
18755THY    CA664960   3.546   5.130   7.849 -0.4858  0.1338  0.1176
18755THY    HA664961   3.532   5.166   7.950 -0.8479  0.4503 -0.8781
18756THY      O64962   1.114   4.378   2.555 -0.0169  0.3023  0.5950
18756THY     HO64963   1.172   4.348   2.483 -1.2783 -0.1224 -0.9231
18756THY    CA164964   1.165   4.359   2.678 -0.2460  0.4402  0.1660
18756THY    CA264965   1.084   4.368   2.794 -0.5698 -0.8105  0.3362
18756THY    CP164966   0.936   4.388   2.782 -0.5697  0.3214  0.4372
18756THY    HP164967   0.896   4.317   2.708 -3.0233  0.4586  1.5812
18756THY    CP264968   0.906   4.526   2.738  0.4369  0.3613 -0.8516
18756THY    HP264969   0.908   4.592   2.825  0.6923 -0.3662  0.1196
18756THY    HP364970   0.805   4.507   2.698  0.9707 -0.9624 -1.0273
18756THY    HP464971   0.985   4.550   2.666  0.0262 -0.0810 -0.7966
18756THY    CP364972   0.861   4.358   2.909  0.4149  0.1620 -0.1892
18756THY    HP564973   0.876   4.417   3.000 -0.9083  1.1944 -1.3806
18756THY    HP664974   0.878   4.255   2.944  0.5816  5.4428  1.3153
18756THY    HP764975   0.754   4.362   2.887  0.4751  0.0610  1.3125
18756THY    CA364976   1.160   4.343   2.915 -0.0158  0.0579  0.3027
18756THY    HA364977   1.113   4.353   3.012  0.1800  0.1680  0.1348
18756THY    CA464978   1.301   4.310   2.917  0.5373 -0.5412  0.2044
18756THY    HA464979   1.353   4.300   3.011 -0.8607  0.0740 -1.9470
18756THY    CA564980   1.368   4.306   2.796  1.0049 -1.2041  0.8041
18756THY    CM164981   1.520   4.275   2.793 -0.5041  0.3551 -0.0537
18756THY    HM164982   1.582   4.319   2.872 -2.3338  2.3797 -0.9413
18756THY    HM264983   1.569   4.329   2.711  1.5680  0.5563 -1.5036
18756THY    HM364984   1.551   4.170   2.796  2.2721  3.7395  0.6735
18756THY    CA664985   1.299   4.324   2.676 -0.0458 -0.0457  0.3419
18756THY    HA664986   1.347   4.320   2.578 -0.4827 -0.3586  2.1741
18757THY      O64987   5.504   8.562   5.542  0.0052  0.7710  0.0321
18757THY     HO64988   5.487   8.476   5.583  0.0008  0.7218  0.0094
18757THY    CA164989   5.628   8.605   5.573  0.0549 -0.1998  0.1520
18757THY    CA264990   5.679   8.735   5.548  0.1410  0.1435 -0.9491
18757THY    CP164991   5.600   8.850   5.487  0.6654 -0.8063  0.4476
18757THY    HP164992   5.497   8.826   5.459 -0.3168  0.4901  2.8043
18757THY    CP264993   5.662   8.903   5.359  0.4579 -0.2534  0.5167
18757THY    HP264994   5.612   8.994   5.326 -0.7970  2.3817  0.8555
18757THY    HP364995   5.673   8.823   5.284 -0.0341 -0.3659  0.5510
18757THY    HP464996   5.769   8.927   5.362  1.2819 -0.6452 -2.6412
18757THY    CP364997   5.588   8.959   5.594 -0.3641 -0.4470  0.1054
18757THY    HP564998   5.525   9.043   5.561  0.7587 -0.0980  1.0996
18757THY    HP664999   5.686   9.004   5.609 -0.2630 -3.1265  0.9557
18757THY    HP765000   5.556   8.914   5.689  0.4300 -0.5296 -0.6557
18757THY    CA365001   5.808   8.765   5.589 -0.0549  0.6001  0.1103
18757THY    HA365002   5.853   8.860   5.562  1.9236  0.0718 -0.9130
18757THY    CA465003   5.891   8.664   5.646 -0.0485  0.3121 -0.0290
18757THY    HA465004   5.996   8.678   5.672 -0.4322  2.0214 -0.1401
18757THY    CA565005   5.842   8.532   5.659  0.4365 -0.4007 -0.2951
18757THY    CM165006   5.930   8.427   5.714  0.2503 -0.1162  0.2667
18757THY    HM165007   6.026   8.421   5.661 -1.0120 -2.6659  1.2592
18757THY    HM265008   5.881   8.329   5.708 -0.1245 -2.0457  0.5409
18757THY    HM365009   5.957   8.444   5.819 -0.1262  0.4565 -2.2794
18757THY    CA665010   5.713   8.502   5.623  0.2067  0.4002  0.0809
18757THY    HA665011   5.674   8.404   5.647  0.2651  1.4619  0.3031
18758THY      O65012   0.305   7.924   4.485 -0.0413  0.5129 -0.4804
18758THY     HO65013   0.320   8.013   4.521 -1.9169 -0.1664  0.1570
18758THY    CA165014   0.398   7.882   4.401 -0.6962  1.1127 -1.0570
18758THY    CA265015   0.375   7.784   4.304 -0.6026 -0.3323 -1.0268
18758THY    CP165016   0.229   7.743   4.265 -0.3691  0.6190  0.6143
18758THY    HP165017   0.168   7.742   4.356  0.4612  1.2904  3.1217
18758THY    CP265018   0.220   7.618   4.188 -0.4916  0.1021  1.0691
18758THY    HP265019   0.249   7.528   4.243 -0.2873 -0.3748  0.8385
18758THY    HP365020   0.280   7.618   4.096  0.1573  0.5116  1.6586
18758THY    HP465021   0.112   7.621   4.169 -0.6904  1.1688  0.8826
18758THY    CP365022   0.165   7.856   4.179 -0.0020 -0.0657 -0.0970
18758THY    HP565023   0.209   7.859   4.078  1.2844  0.4643 -0.1877
18758THY    HP665024   0.179   7.951   4.233  2.3555  0.5990 -0.7447
18758THY    HP765025   0.061   7.825   4.178  0.0060 -1.2404 -0.1071
18758THY    CA365026   0.490   7.740   4.232  0.0353 -0.3482 -0.2349
18758THY    HA365027   0.480   7.665   4.153  1.1524  2.0436 -3.0915
18758THY    CA465028   0.616   7.791   4.247 -0.4514  0.5738  0.3229
18758THY    HA465029   0.700   7.760   4.186 -0.1286  1.2346 -0.1104
18758THY    CA565030   0.634   7.886   4.347 -0.2660  0.3369  0.1475
18758THY    CM165031   0.775   7.930   4.376  0.5611  0.4467  0.4367
18758THY    HM165032   0.833   7.852   4.427  1.6526 -1.0938  0.2089
18758THY    HM265033   0.789   8.019   4.438  1.6289 -0.9773  1.3026
18758THY    HM365034   0.813   7.953   4.276 -0.3274 -0.5048 -1.8678
18758THY    CA665035   0.530   7.926   4.424  0.0129  0.0885 -0.0313
18758THY    HA665036   0.549   8.002   4.499  1.0363  1.4169 -1.5300
18759THY      O65037   2.159   8.085   5.716 -0.3718  0.3884  0.4028
18759THY     HO65038   2.222   8.011   5.720 -0.3802 -1.1319  0.2889
18759THY    CA165039   2.214   8.179   5.634 -0.3603 -0.2665 -0.0497
18759THY    CA265040   2.223   8.318   5.661 -0.4269  0.4097 -0.1911
18759THY    CP165041   2.177   8.353   5.798  0.4012  0.2319  0.0422
18759THY    HP165042   2.114   8.272   5.836  1.1318 -0.1403 -0.7062
18759THY    CP265043   2.082   8.474   5.803 -0.1879  0.5030 -0.3968
18759THY    HP265044   1.996   8.450   5.740 -1.0820  1.7278 -0.5191
18759THY    HP365045   2.117   8.570   5.764  0.9541  3.2556  0.3991
18759THY    HP465046   2.048   8.492   5.906  1.1920  1.0788 -0.9728
18759THY    CP365047   2.294   8.370   5.893 -0.5227  0.0280  0.0971
18759THY    HP565048   2.359   8.282   5.885  0.0037  3.1834  0.1062
18759THY    HP665049   2.264   8.359   5.998  2.8234  1.1582  0.7377
18759THY    HP765050   2.358   8.457   5.880  2.3892  3.3461 -1.3053
18759THY    CA365051   2.297   8.401   5.577 -0.3240 -0.0074 -0.4266
18759THY    HA365052   2.314   8.508   5.591 -0.0702 -0.3806 -0.4162
18759THY    CA465053   2.350   8.355   5.457  0.3206  0.5765 -0.3187
18759THY    HA465054   2.395   8.421   5.384  1.0594 -0.2804 -1.7101
18759THY    CA565055   2.331   8.220   5.425 -0.2821  0.7473  0.0090
18759THY    CM165056   2.377   8.173   5.277  0.0076 -0.2090 -1.0096
18759THY    HM165057   2.357   8.234   5.188 -0.3544  0.1918 -0.5294
18759THY    HM265058   2.345   8.069   5.264 -0.9777  3.1699 -1.2792
18759THY    HM365059   2.486   8.168   5.289  0.0362  0.6237  0.6382
18759THY    CA665060   2.274   8.133   5.520 -0.1472  0.0881  0.1666
18759THY    HA665061   2.247   8.031   5.492 -1.6203  0.6213  0.3895
18760THY      O65062   8.345   6.741   7.260  0.0523  0.1032  0.5207
18760THY     HO65063   8.409   6.812   7.281 -0.4710 -0.3861  1.1510
18760THY    CA165064   8.396   6.649   7.171 -1.0591  0.0082 -0.9638
18760THY    CA265065   8.310   6.564   7.097  0.1525 -0.5790 -0.3985
18760THY    CP165066   8.157   6.566   7.128 -0.4751  0.3341  0.2014
18760THY    HP165067   8.135   6.656   7.187  1.4136 -0.5320  1.2993
18760THY    CP265068   8.105   6.443   7.209 -0.1671  1.0149 -0.3805
18760THY    HP265069   8.145   6.354   7.160 -0.8990  0.0545 -0.1934
18760THY    HP365070   7.996   6.443   7.208 -0.2153 -1.6014  0.4265
18760THY    HP465071   8.123   6.444   7.317  0.6662  0.8843  0.3018
18760THY    CP365072   8.084   6.587   6.994  0.3476 -0.1691 -0.0673
18760THY    HP565073   7.978   6.559   7.004  0.3254 -0.9643 -0.2954
18760THY    HP665074   8.113   6.527   6.907 -0.1447 -1.1652  1.0861
18760THY    HP765075   8.067   6.693   6.968 -2.8845  1.9177  0.0912
18760THY    CA365076   8.368   6.475   7.015 -0.3574  0.5678  0.3141
18760THY    HA365077   8.309   6.411   6.950 -0.2230  1.0471 -0.3014
18760THY    CA465078   8.512   6.466   7.007  0.2197  0.1867 -0.4432
18760THY    HA465079   8.563   6.394   6.944 -1.8872 -0.2134 -1.6488
18760THY    CA565080   8.591   6.548   7.087 -0.6482 -0.1477  0.5251
18760THY    CM165081   8.747   6.545   7.066 -0.0658  0.8119 -0.3267
18760THY    HM165082   8.800   6.625   7.120  0.1506 -2.5479  2.0039
18760THY    HM265083   8.765   6.568   6.961 -0.6116  0.8963  0.5419
18760THY    HM365084   8.797   6.451   7.092  3.1145 -1.1508  0.6778
18760THY    CA665085   8.538   6.649   7.161  0.1734 -0.0323 -0.0021
18760THY    HA665086   8.607   6.712   7.216 -0.1254 -0.4640  0.7164
18761THY      O65087   4.640   3.216   5.601 -0.7247  0.1864 -0.4551
18761THY     HO65088   4.554   3.261   5.592 -0.7618 -1.1488 -0.7514
18761THY    CA165089   4.614   3.088   5.607  0.9927  0.0263  0.4268
18761THY    CA265090   4.714   2.988   5.613  0.7039  0.1178  0.1790
18761THY    CP165091   4.851   3.034   5.651 -0.2035 -0.5277  0.2003
18761THY    HP165092   4.864   3.136   5.615 -0.8813  0.3179  0.5996
18761THY    CP265093   4.967   2.942   5.603 -0.5674  1.0089  0.0232
18761THY    HP265094   4.983   2.974   5.499  1.8988  1.6039  0.9472
18761THY    HP365095   4.938   2.838   5.619 -0.1892 -1.7117 -0.5920
18761THY    HP465096   5.059   2.953   5.662 -1.2263  2.3282 -1.2708
18761THY    CP365097   4.856   3.050   5.804 -0.5071  0.1821  0.5347
18761THY    HP565098   4.767   3.105   5.835 -1.7178 -1.6230 -0.2853
18761THY    HP665099   4.944   3.097   5.850 -2.3593  0.8796  3.5967
18761THY    HP765100   4.868   2.950   5.847  3.4729 -1.5445  0.0477
18761THY    CA365101   4.673   2.852   5.598 -0.3591  0.3762  0.9221
18761THY    HA365102   4.743   2.770   5.611 -0.4060  3.2285  1.2602
18761THY    CA465103   4.535   2.830   5.570  0.1441  0.0514  0.1512
18761THY    HA465104   4.491   2.731   5.566 -1.0529  0.3379  0.6577
18761THY    CA565105   4.454   2.940   5.547 -0.2985 -0.5450 -0.4421
18761THY    CM165106   4.307   2.912   5.520 -0.4671  0.2876 -0.4556
18761THY    HM165107   4.253   3.002   5.490 -0.0092  0.1758 -0.2152
18761THY    HM265108   4.257   2.860   5.603  0.0548 -0.7835 -2.8314
18761THY    HM365109   4.306   2.848   5.431  1.4838 -0.2337  0.1851
18761THY    CA665110   4.487   3.064   5.574 -1.0717  0.3437 -0.7467
18761THY    HA665111   4.407   3.136   5.560 -1.5621  2.7632 -0.7231
18762THY      O65112   1.055   3.413   2.773 -0.3556 -0.3131 -0.1957
18762THY     HO65113   1.130   3.352   2.781  0.3215  0.4569  0.7006
18762THY    CA165114   0.940   3.346   2.749 -0.0198  0.4912  0.1294
18762THY    CA265115   0.836   3.389   2.658 -0.4096 -0.2264  0.0536
18762THY    CP165116   0.853   3.521   2.583 -0.5972 -0.6857  0.6356
18762THY    HP165117   0.959   3.548   2.592 -0.6709 -1.1761  1.1130
18762THY    CP265118   0.776   3.631   2.652  0.2115 -0.1133 -0.3221
18762THY    HP265119   0.670   3.603   2.654 -0.4684  2.9266  1.9226
18762THY    HP365120   0.791   3.727   2.603  0.1681  0.8943  0.2134
18762THY    HP465121   0.807   3.642   2.757  0.6304 -0.3245  0.5893
18762THY    CP365122   0.811   3.519   2.439  0.0936 -0.0323  0.4175
18762THY    HP565123   0.706   3.485   2.434  0.2718  0.6586 -0.2624
18762THY    HP665124   0.861   3.436   2.388  0.6484  2.6208 -0.9677
18762THY    HP765125   0.830   3.615   2.390  1.1818  0.9773  0.7387
18762THY    CA365126   0.718   3.313   2.652  0.3892 -0.2057  0.9716
18762THY    HA365127   0.628   3.333   2.595  1.0512 -1.2611  0.9958
18762THY    CA465128   0.717   3.196   2.727 -0.7985 -0.2523  0.1908
18762THY    HA465129   0.629   3.134   2.714 -0.0280  0.3163 -1.0428
18762THY    CA565130   0.812   3.156   2.820 -0.1709 -0.3298 -0.3641
18762THY    CM165131   0.791   3.028   2.905  0.1102  0.8249  0.0962
18762THY    HM165132   0.892   2.993   2.929  0.4265 -1.2022 -0.5271
18762THY    HM265133   0.737   2.950   2.850 -0.5733  2.2823 -0.4934
18762THY    HM365134   0.730   3.057   2.991 -1.9719 -0.3841 -0.4842
18762THY    CA665135   0.926   3.235   2.834  0.8684  0.5267  0.0898
18762THY    HA665136   1.007   3.204   2.898  1.2903 -0.7976 -1.7169
18763THY      O65137   7.270   8.536   2.867 -0.0772  0.3844 -0.2056
18763THY     HO65138   7.308   8.538   2.777 -1.9329 -0.4497 -0.0828
18763THY    CA165139   7.238   8.666   2.891  0.7361 -0.1327 -0.0022
18763THY    CA265140   7.154   8.742   2.804 -0.2332 -0.2953 -0.1779
18763THY    CP165141   7.087   8.676   2.675 -0.3798 -0.2543  0.3073
18763THY    HP165142   7.124   8.573   2.667  0.3941  0.8597  0.4854
18763THY    CP265143   7.116   8.745   2.548 -0.3751 -0.0131  0.0658
18763THY    HP265144   7.070   8.844   2.554 -0.0816  1.4185  0.1257
18763THY    HP365145   7.087   8.693   2.455 -0.9757  1.1956 -1.8771
18763THY    HP465146   7.221   8.775   2.539 -0.7760  0.3964  1.6389
18763THY    CP365147   6.935   8.673   2.698 -0.4669  0.0533  0.1040
18763THY    HP565148   6.906   8.590   2.633  2.5767 -1.1579 -0.1240
18763THY    HP665149   6.891   8.765   2.658 -1.2806 -0.5200 -0.5184
18763THY    HP765150   6.898   8.656   2.800 -0.7089 -0.1046 -0.3274
18763THY    CA365151   7.133   8.875   2.834 -0.7717 -0.2238 -0.3760
18763THY    HA365152   7.058   8.932   2.779 -0.7916  0.9367  0.7548
18763THY    CA465153   7.187   8.941   2.944  0.0363 -0.2811  0.8729
18763THY    HA465154   7.162   9.046   2.957  0.6294  0.4421  0.9283
18763THY    CA565155   7.274   8.863   3.024 -0.4728 -0.0859 -0.2220
18763THY    CM165156   7.341   8.929   3.136 -0.2392  0.7071  0.5630
18763THY    HM165157   7.417   8.859   3.172 -1.1251  1.3800 -0.0823
18763THY    HM265158   7.264   8.932   3.214 -0.0494  0.9199 -0.0071
18763THY    HM365159   7.372   9.031   3.110 -0.3603 -0.5166  0.3070
18763THY    CA665160   7.306   8.725   2.998  0.0070  0.1264  0.6103
18763THY    HA665161   7.384   8.671   3.050  1.4600  0.1288  2.6036
18764THY      O65162   8.625   2.279   2.786 -0.4705  0.4220  0.4084
18764THY     HO65163   8.548   2.320   2.827 -1.5652 -0.9935 -0.1655
18764THY    CA165164   8.694   2.378   2.723 -0.4350 -1.0398  0.0887
18764THY    CA265165   8.836   2.376   2.712  0.1681 -0.3507  0.2636
18764THY    CP165166   8.915   2.248   2.731  0.2964  0.2770  0.7759
18764THY    HP165167   8.845   2.170   2.764 -2.5460 -1.9529  2.1894
18764THY    CP265168   9.002   2.269   2.857  0.2222  0.3248  0.1646
18764THY    HP265169   9.034   2.172   2.896  1.4305 -3.7112 -1.2806
18764THY    HP365170   8.954   2.333   2.932 -0.5238  1.0525 -1.2160
18764THY    HP465171   9.088   2.327   2.822  1.2794  1.8933 -0.4162
18764THY    CP365172   8.991   2.202   2.605 -0.5023 -0.3791  0.4120
18764THY    HP565173   8.920   2.209   2.522 -0.8173 -0.0237  1.9642
18764THY    HP665174   9.018   2.100   2.635 -0.3015  1.8133  1.0494
18764THY    HP765175   9.079   2.266   2.591 -1.5679 -1.4077  1.7152
18764THY    CA365176   8.900   2.495   2.671 -0.1539 -0.4248 -0.1537
18764THY    HA365177   9.008   2.499   2.665 -0.1139  0.4532  0.1492
18764THY    CA465178   8.824   2.615   2.648  0.5682 -0.1795  0.1900
18764THY    HA465179   8.865   2.713   2.625 -0.8821 -0.9408  0.6547
18764THY    CA565180   8.681   2.600   2.651  0.3134 -1.0685 -0.3634
18764THY    CM165181   8.583   2.703   2.599 -0.4961 -0.4038 -0.2613
18764THY    HM165182   8.571   2.676   2.493 -1.7346 -0.0715 -1.0765
18764THY    HM265183   8.625   2.804   2.614 -0.5222  2.3880 -0.5825
18764THY    HM365184   8.487   2.708   2.651 -1.4230 -2.1782  1.4686
18764THY    CA665185   8.618   2.486   2.703 -0.1402  0.3744 -0.7583
18764THY    HA665186   8.511   2.471   2.704 -0.1204  1.7035 -0.8954
18765THY      O65187   5.759   4.438   4.076  0.3763  0.1870 -0.1160
18765THY     HO65188   5.844   4.444   4.030  0.1510 -0.5716 -2.0315
18765THY    CA165189   5.779   4.508   4.189  0.4095  0.5333  0.4947
18765THY    CA265190   5.679   4.511   4.292 -0.2760  0.0488 -1.0075
18765THY    CP165191   5.549   4.441   4.274 -0.7134 -0.6943  0.3614
18765THY    HP165192   5.552   4.372   4.189  1.4417 -1.0863  0.8901
18765THY    CP265193   5.430   4.530   4.245  0.9054  0.9100 -0.6822
18765THY    HP265194   5.340   4.486   4.201  0.0937  1.4632  0.3950
18765THY    HP365195   5.449   4.601   4.163  2.8974  1.1579 -0.8610
18765THY    HP465196   5.388   4.582   4.331  2.1488  0.4947  1.1226
18765THY    CP365197   5.518   4.349   4.392  0.0919 -0.4786 -0.1427
18765THY    HP565198   5.449   4.270   4.361  1.8519 -1.7980 -1.2463
18765THY    HP665199   5.481   4.409   4.475 -0.1555 -2.2803  2.3870
18765THY    HP765200   5.613   4.299   4.415  1.5266 -0.9412  2.2174
18765THY    CA365201   5.716   4.564   4.418 -0.9742 -0.2340  0.0785
18765THY    HA365202   5.648   4.561   4.503 -2.0492 -1.0339  0.9006
18765THY    CA465203   5.842   4.625   4.436  0.6698  0.3602  0.1307
18765THY    HA465204   5.869   4.663   4.534  1.1107  0.7077 -1.0423
18765THY    CA565205   5.932   4.621   4.334  0.4705 -0.1811  0.0101
18765THY    CM165206   6.071   4.674   4.370  0.7344  0.4417  1.0262
18765THY    HM165207   6.148   4.630   4.305  0.2864 -0.2759  1.2861
18765THY    HM265208   6.085   4.639   4.473 -2.7721  0.4887 -0.5669
18765THY    HM365209   6.080   4.783   4.371 -0.2092  4.0381  1.1918
18765THY    CA665210   5.905   4.559   4.213  0.0336 -0.4064 -0.2974
18765THY    HA665211   5.993   4.533   4.155 -0.4971 -0.8653 -1.1157
18766THY      O65212   4.254   4.909   6.225  0.5182 -0.0610  0.0721
18766THY     HO65213   4.255   4.824   6.272 -1.5812 -1.2268 -0.6548
18766THY    CA165214   4.367   4.907   6.158 -0.5723  0.3613  0.1987
18766THY    CA265215   4.434   5.026   6.110 -0.3017 -1.2230  0.3299
18766THY    CP165216   4.374   5.169   6.121 -0.0415 -0.3223 -0.6104
18766THY    HP165217   4.279   5.174   6.176 -0.1058 -0.5392  1.2370
18766THY    CP265218   4.345   5.232   5.984  0.1412 -0.7841 -0.6155
18766THY    HP265219   4.438   5.239   5.926  0.5362 -0.4044 -2.2190
18766THY    HP365220   4.304   5.332   6.001  0.0679  1.6706 -1.0052
18766THY    HP465221   4.268   5.181   5.925  0.4476 -0.8171 -1.0479
18766THY    CP365222   4.469   5.262   6.198  0.5998  0.1480  0.1194
18766THY    HP565223   4.556   5.286   6.136 -1.6804 -2.8830  1.1044
18766THY    HP665224   4.508   5.214   6.289  0.7515 -1.6982 -3.6703
18766THY    HP765225   4.412   5.355   6.209  0.2446 -2.5254  0.2749
18766THY    CA365226   4.561   5.004   6.043  0.1490 -0.0162  0.2654
18766THY    HA365227   4.614   5.088   6.001  0.7423 -1.0606 -0.6123
18766THY    CA465228   4.608   4.876   6.027 -0.2631 -0.4844 -0.0713
18766THY    HA465229   4.696   4.871   5.964  0.7796  0.8152  1.1890
18766THY    CA565230   4.537   4.760   6.079  0.2295 -0.4987 -0.6528
18766THY    CM165231   4.597   4.623   6.090  0.1983 -1.1052  0.5664
18766THY    HM165232   4.638   4.610   6.190  0.3749 -1.2713 -0.2202
18766THY    HM265233   4.689   4.609   6.032  0.7858  0.3407 -2.5289
18766THY    HM365234   4.526   4.541   6.070  1.3154  2.8098 -1.6330
18766THY    CA665235   4.422   4.783   6.152 -0.1265  0.3720  0.4732
18766THY    HA665236   4.375   4.694   6.192 -0.9192  1.3065  1.2981
18767THY      O65237   0.824   4.969   4.013 -0.0607 -0.2894 -0.6572
18767THY     HO65238   0.833   4.890   3.957  0.7686  2.0998 -2.3665
18767THY    CA165239   0.820   5.069   3.920 -0.5552  0.1539 -0.3219
18767THY    CA265240   0.756   5.191   3.947 -0.9922 -0.4053  0.5909
18767THY    CP165241   0.709   5.216   4.090 -0.0391  1.1632 -0.0110
18767THY    HP165242   0.720   5.125   4.150  2.6802  0.7276 -0.0504
18767THY    CP265243   0.566   5.279   4.097 -0.4841  1.1257 -0.5138
18767THY    HP265244   0.541   5.283   4.204 -1.7968  0.8284 -0.5712
18767THY    HP365245   0.492   5.226   4.037  1.6529 -1.5426 -0.7174
18767THY    HP465246   0.565   5.383   4.061  0.7273  0.2085 -0.7963
18767THY    CP365247   0.808   5.311   4.156  0.0608 -0.7770  0.0746
18767THY    HP565248   0.909   5.298   4.114  0.6367  1.2706 -3.4984
18767THY    HP665249   0.807   5.292   4.264 -1.6183 -0.6999  0.4974
18767THY    HP765250   0.776   5.415   4.147  1.1250 -2.0624  0.3123
18767THY    CA365251   0.737   5.281   3.841  0.7174  0.2001 -0.9099
18767THY    HA365252   0.686   5.377   3.852 -0.8277  0.1847 -1.7057
18767THY    CA465253   0.770   5.247   3.713 -0.1782  0.3970  0.0209
18767THY    HA465254   0.751   5.314   3.629  0.7327  1.3247  1.5052
18767THY    CA565255   0.845   5.134   3.692  0.3573 -0.3665  0.8710
18767THY    CM165256   0.887   5.104   3.557 -0.7214  0.3387 -0.5535
18767THY    HM165257   0.805   5.115   3.485 -0.7014  0.2535 -0.9815
18767THY    HM265258   0.915   4.999   3.560  1.9412  1.7616  0.1095
18767THY    HM365259   0.972   5.169   3.532 -0.9164  2.6013  0.6923
18767THY    CA665260   0.864   5.042   3.791 -0.6196  0.7058 -0.2877
18767THY    HA665261   0.902   4.945   3.762 -1.2992 -0.6064 -0.1927
18768THY      O65262   6.227   0.568   5.361 -0.1108 -0.3503  0.1874
18768THY     HO65263   6.231   0.637   5.292 -2.7626 -0.5936  0.2315
18768THY    CA165264   6.131   0.597   5.457 -0.2821  0.6023  0.6152
18768THY    CA265265   6.165   0.587   5.592 -0.2497 -0.2438 -0.2071
18768THY    CP165266   6.282   0.502   5.630  0.2631 -0.4256  0.2698
18768THY    HP165267   6.326   0.460   5.538  0.4682  0.3223 -1.2370
18768THY    CP265268   6.247   0.390   5.729 -0.1206 -0.0287  0.2350
18768THY    HP265269   6.153   0.339   5.707  0.5391 -1.5035 -0.3939
18768THY    HP365270   6.252   0.424   5.833 -0.9111  0.3297 -0.6890
18768THY    HP465271   6.327   0.315   5.724  0.2813  1.4819  0.5235
18768THY    CP365272   6.393   0.592   5.696 -0.8403  0.1497  0.1150
18768THY    HP565273   6.373   0.633   5.795  2.6531  1.1936 -0.3483
18768THY    HP665274   6.412   0.678   5.631  1.8646 -1.1272 -1.2881
18768THY    HP765275   6.486   0.535   5.685  0.4020  0.2139  2.0136
18768THY    CA365276   6.065   0.623   5.688 -0.6740  0.1264 -0.2955
18768THY    HA365277   6.077   0.615   5.795 -0.7969  0.1531 -0.1335
18768THY    CA465278   5.947   0.686   5.646  0.3314 -0.4173  0.1966
18768THY    HA465279   5.871   0.720   5.717  0.6760 -0.1265  0.3652
18768THY    CA565280   5.926   0.699   5.508  0.1011  0.1239 -0.9081
18768THY    CM165281   5.799   0.765   5.455 -0.1470  0.2999  0.8220
18768THY    HM165282   5.712   0.746   5.519 -0.7521 -0.2372  1.7070
18768THY    HM265283   5.786   0.709   5.362 -0.9373  0.8439  0.0777
18768THY    HM365284   5.803   0.875   5.448  0.9619 -2.1915  0.6661
18768THY    CA665285   6.018   0.649   5.411 -0.1597  0.2701 -0.5178
18768THY    HA665286   6.008   0.668   5.305  2.5110 -0.1131 -0.9488
18769THY      O65287   6.401   2.983   6.863 -0.1918 -0.0563 -0.0881
18769THY     HO65288   6.376   3.053   6.927 -1.8533  0.7068 -1.2956
18769THY    CA165289   6.293   2.902   6.862  0.0117 -0.2128  0.0930
18769THY    CA265290   6.261   2.825   6.750  0.1757  0.0786  0.3036
18769THY    CP165291   6.349   2.804   6.625  0.6613  0.7629 -0.2329
18769THY    HP165292   6.430   2.876   6.638  0.1868 -3.1531  1.2678
18769THY    CP265293   6.284   2.840   6.489  0.5182 -0.0613 -0.1505
18769THY    HP265294   6.175   2.848   6.491  0.2378  0.9016 -3.0346
18769THY    HP365295   6.297   2.762   6.413  2.4029  1.2005 -1.1486
18769THY    HP465296   6.331   2.928   6.444  1.7253  1.2358 -0.0953
18769THY    CP365297   6.416   2.669   6.609  0.4296  0.3116 -0.1846
18769THY    HP565298   6.354   2.606   6.544 -0.2846  1.6645 -0.9231
18769THY    HP665299   6.410   2.620   6.707  1.8821  0.5708  0.1112
18769THY    HP765300   6.516   2.676   6.566  0.9761  1.2827 -1.5396
18769THY    CA365301   6.151   2.733   6.753  0.8136 -0.5209  0.1929
18769THY    HA365302   6.132   2.656   6.679  0.5792 -0.4788  0.2083
18769THY    CA465303   6.079   2.729   6.876  1.1669 -0.1782  0.0403
18769THY    HA465304   5.999   2.657   6.892 -0.3820  2.0045  2.0672
18769THY    CA565305   6.098   2.826   6.980 -0.3117  0.8583 -0.5458
18769THY    CM165306   6.010   2.832   7.103  0.5023  0.0188 -0.0907
18769THY    HM165307   5.916   2.779   7.086  1.2265 -2.0118 -0.8224
18769THY    HM265308   5.991   2.939   7.122 -0.2819 -2.0187  0.1785
18769THY    HM365309   6.065   2.794   7.190  0.5296  0.5294  1.0754
18769THY    CA665310   6.216   2.904   6.972 -0.7091 -0.6280  0.4720
18769THY    HA665311   6.245   2.958   7.062 -0.3662  0.6148 -1.6844
18770THY      O65312   9.298   2.034   5.936  0.4432 -0.0037  0.3978
18770THY     HO65313   9.321   1.988   6.019  0.7376 -0.0913  0.3824
18770THY    CA165314   9.323   2.165   5.948 -0.2882  0.9264 -0.0988
18770THY    CA265315   9.338   2.251   5.833  0.4893  0.2603 -0.1007
18770THY    CP165316   9.338   2.195   5.688 -0.2587 -0.2082  0.7443
18770THY    HP165317   9.263   2.115   5.680  0.7877  1.1845 -0.4457
18770THY    CP265318   9.480   2.151   5.643 -0.4077  0.6356  0.8343
18770THY    HP265319   9.546   2.239   5.648  1.5580 -0.4115 -0.5005
18770THY    HP365320   9.472   2.109   5.542  0.8141  1.1518 -0.7603
18770THY    HP465321   9.510   2.071   5.711  0.2664 -0.7557 -0.1427
18770THY    CP365322   9.287   2.298   5.588  0.5112  0.3104  0.1003
18770THY    HP565323   9.261   2.246   5.496 -2.4861  0.9609  0.2468
18770THY    HP665324   9.359   2.377   5.562 -0.2863 -2.4990 -0.0223
18770THY    HP765325   9.201   2.351   5.630 -1.0001 -1.7185 -0.6397
18770THY    CA365326   9.343   2.388   5.855  1.1513  0.3463 -0.3300
18770THY    HA365327   9.339   2.457   5.771 -1.7873  0.1998 -0.5352
18770THY    CA465328   9.341   2.442   5.990  0.0884  0.9287  0.8885
18770THY    HA465329   9.349   2.548   6.012 -3.2109 -0.3757  1.5253
18770THY    CA565330   9.333   2.353   6.100 -0.4468  0.4015  0.9649
18770THY    CM165331   9.343   2.407   6.238 -0.1285  0.3652 -0.5865
18770THY    HM165332   9.429   2.368   6.295  0.1553 -0.4945 -1.2369
18770THY    HM265333   9.251   2.407   6.298 -0.2201  0.2251 -0.4257
18770THY    HM365334   9.377   2.511   6.223  0.7933 -1.3038 -1.0975
18770THY    CA665335   9.319   2.213   6.075 -0.1961  0.4479  0.8584
18770THY    HA665336   9.325   2.150   6.164  0.8772  0.7112  1.3153
18771THY      O65337   3.682   7.774   5.697  0.1052 -0.4119 -0.0444
18771THY     HO65338   3.594   7.735   5.685 -0.0820 -3.3364  1.0571
18771THY    CA165339   3.747   7.728   5.582 -0.4164 -0.1411 -0.1765
18771THY    CA265340   3.779   7.814   5.476 -0.6765 -0.0508 -1.5166
18771THY    CP165341   3.758   7.971   5.494 -0.1649  0.1626  0.1042
18771THY    HP165342   3.714   7.998   5.591  1.7603  1.2725 -0.5202
18771THY    CP265343   3.658   8.025   5.389 -0.0574  0.0739  0.3920
18771THY    HP265344   3.552   8.013   5.414  0.0198 -0.2588 -1.1302
18771THY    HP365345   3.674   7.961   5.302 -0.2014  0.1447  0.2574
18771THY    HP465346   3.691   8.121   5.348  0.2870 -1.1771 -0.2432
18771THY    CP365347   3.890   8.048   5.487  0.7430  0.8484 -0.6063
18771THY    HP565348   3.968   8.005   5.552  0.5028  1.0892 -0.6794
18771THY    HP665349   3.871   8.153   5.509 -0.7353 -1.2312 -0.3729
18771THY    HP765350   3.927   8.051   5.384  0.5313  0.8032  1.0127
18771THY    CA365351   3.858   7.756   5.371 -0.3220 -0.1189 -0.4025
18771THY    HA365352   3.906   7.815   5.294 -0.4393  0.1798  0.0903
18771THY    CA465353   3.886   7.620   5.376 -0.3111 -0.1434 -0.1596
18771THY    HA465354   3.947   7.581   5.295 -0.2312 -0.2088  0.0968
18771THY    CA565355   3.839   7.532   5.472 -0.1505 -0.3256  0.1750
18771THY    CM165356   3.875   7.395   5.481 -0.2963 -0.5637  0.5085
18771THY    HM165357   3.829   7.339   5.399 -0.7284 -1.5565  2.2560
18771THY    HM265358   3.838   7.348   5.572 -1.2592 -0.8748  0.6429
18771THY    HM365359   3.982   7.371   5.484 -0.8548 -1.1799 -2.3926
18771THY    CA665360   3.777   7.590   5.585 -0.1009  0.4777 -1.0509
18771THY    HA665361   3.753   7.533   5.674 -1.9914 -0.4855 -1.8478
18772THY      O65362   7.847   4.678   2.758 -0.0378  0.3010 -0.1037
18772THY     HO65363   7.918   4.723   2.806  1.1882  0.2423 -1.9008
18772THY    CA165364   7.744   4.684   2.844  0.2634 -0.0817  0.0112
18772THY    CA265365   7.650   4.582   2.852  0.0351 -0.0995 -0.0876
18772THY    CP165366   7.670   4.449   2.777 -1.3851 -0.1406 -0.6587
18772THY    HP165367   7.757   4.454   2.711 -1.4586 -0.1802  0.1078
18772THY    CP265368   7.551   4.411   2.692 -0.4124  0.1004 -0.5500
18772THY    HP265369   7.562   4.305   2.666 -0.0014  0.4181 -0.5900
18772THY    HP365370   7.538   4.470   2.601  1.7700 -1.2976 -2.0975
18772THY    HP465371   7.460   4.419   2.752 -0.3024  0.6397 -2.7276
18772THY    CP365372   7.717   4.339   2.883  0.0004 -0.0506  0.1806
18772THY    HP565373   7.823   4.362   2.903  0.1596 -0.1016 -0.4713
18772THY    HP665374   7.717   4.240   2.835  0.9768 -0.3987  0.3335
18772THY    HP765375   7.649   4.342   2.969  1.4797  1.1365  1.4980
18772THY    CA365376   7.541   4.597   2.943  0.6446  0.5171  0.2513
18772THY    HA365377   7.482   4.515   2.983 -1.6768  0.1660  1.6532
18772THY    CA465378   7.543   4.704   3.036 -0.4545  0.2153 -1.1304
18772THY    HA465379   7.465   4.726   3.109 -0.1817 -0.2737  1.8945
18772THY    CA565380   7.624   4.808   3.019  0.3262  0.3715 -0.6915
18772THY    CM165381   7.599   4.929   3.114 -0.2346  0.0936  0.5269
18772THY    HM165382   7.523   4.995   3.070  1.5479  0.8225  3.2267
18772THY    HM265383   7.687   4.995   3.115 -0.3461 -0.6066  0.6935
18772THY    HM365384   7.577   4.892   3.215  1.2870  0.2999  0.1270
18772THY    CA665385   7.728   4.801   2.923  0.4221 -0.2236 -0.2511
18772THY    HA665386   7.794   4.888   2.917 -0.1418 -1.9724  0.1009
18773THY      O65387   7.076   3.891   5.726  0.6666  0.4617 -0.5845
18773THY     HO65388   7.153   3.911   5.782  1.0371  0.2634 -1.4201
18773THY    CA165389   6.962   3.854   5.795  0.8359 -0.2186 -0.4996
18773THY    CA265390   6.862   3.777   5.741  0.2141  0.4274  0.4441
18773THY    CP165391   6.886   3.733   5.596  0.4266  0.4341 -0.2550
18773THY    HP165392   6.993   3.731   5.574  0.5156  0.8477 -0.1179
18773THY    CP265393   6.818   3.818   5.493 -0.0182  0.0352  0.1195
18773THY    HP265394   6.890   3.836   5.412 -0.7026 -0.7551 -0.6327
18773THY    HP365395   6.812   3.921   5.529 -1.2629 -0.3446  0.1840
18773THY    HP465396   6.724   3.778   5.455 -0.2630  0.2764  0.4613
18773THY    CP365397   6.847   3.580   5.572 -0.3603  0.1396 -0.1601
18773THY    HP565398   6.927   3.530   5.627 -0.5977 -0.9569 -1.8376
18773THY    HP665399   6.852   3.558   5.465  0.0708 -0.0629  0.8635
18773THY    HP765400   6.746   3.554   5.608  0.1125  1.0743 -0.7582
18773THY    CA365401   6.759   3.728   5.820 -0.3552 -0.2918 -0.3005
18773THY    HA365402   6.679   3.665   5.782 -1.0103  2.8284 -1.5135
18773THY    CA465403   6.750   3.759   5.958  0.2045  0.3400 -0.8151
18773THY    HA465404   6.671   3.718   6.020  0.1611  1.2741  0.5967
18773THY    CA565405   6.854   3.837   6.012  0.6862 -0.3320  0.6767
18773THY    CM165406   6.844   3.875   6.156  0.6024  0.8088 -0.1223
18773THY    HM165407   6.777   3.826   6.228  0.7411  1.0776  0.0817
18773THY    HM265408   6.830   3.983   6.160  0.6808 -1.0973 -0.0002
18773THY    HM365409   6.941   3.845   6.198 -0.5785  2.6509 -1.6063
18773THY    CA665410   6.950   3.885   5.929  0.3387 -0.4357  0.4305
18773THY    HA665411   7.026   3.938   5.985  0.3121 -1.0447  1.1352
18774THY      O65412   4.258   1.212   3.628 -0.7268 -0.6024  0.0361
18774THY     HO65413   4.318   1.154   3.679  2.2817 -1.5588  2.0948
18774THY    CA165414   4.241   1.323   3.699  0.5669 -0.3668 -0.7961
18774THY    CA265415   4.119   1.354   3.765 -0.2900  0.3305  0.2373
18774THY    CP165416   4.015   1.239   3.782 -0.7013  0.1938 -0.1067
18774THY    HP165417   4.041   1.149   3.726 -0.2711  1.4809 -0.8111
18774THY    CP265418   3.870   1.290   3.743 -0.1241 -0.2406 -0.0230
18774THY    HP265419   3.838   1.387   3.784  0.5399 -0.7472  0.4195
18774THY    HP365420   3.800   1.223   3.793  0.5492  1.0188  0.1720
18774THY    HP465421   3.864   1.281   3.634 -0.8753 -0.0965 -1.4282
18774THY    CP365422   4.026   1.191   3.929 -0.3486 -0.8947  0.1187
18774THY    HP565423   3.935   1.134   3.953  0.7763  0.6735 -1.1151
18774THY    HP665424   4.036   1.281   3.990  1.4512 -0.0204 -0.6206
18774THY    HP765425   4.118   1.132   3.940  0.8007 -2.7589  1.4549
18774THY    CA365426   4.097   1.478   3.831 -0.3007  0.5417 -0.2515
18774THY    HA365427   4.008   1.497   3.890 -0.5304  0.5322 -1.2413
18774THY    CA465428   4.197   1.576   3.818 -0.1249  1.0433  0.2617
18774THY    HA465429   4.184   1.676   3.859  0.0366  3.3301 -0.6063
18774THY    CA565430   4.320   1.546   3.756  0.1280  0.3961  0.1285
18774THY    CM165431   4.436   1.649   3.752 -0.3638  0.8969 -0.5222
18774THY    HM165432   4.447   1.709   3.843  0.2028 -0.0363  0.8443
18774THY    HM265433   4.416   1.724   3.675 -0.6630  0.5895 -0.9100
18774THY    HM365434   4.535   1.607   3.729 -0.1049  0.6368  0.2140
18774THY    CA665435   4.336   1.422   3.695  0.5432  0.1881  0.1652
18774THY    HA665436   4.430   1.386   3.653 -0.0768 -1.3410  0.2256
18775THY      O65437   2.910   0.075   6.869  0.0229  0.1391  0.3508
18775THY     HO65438   2.907   0.012   6.795  1.2681  1.0265 -0.8177
18775THY    CA165439   2.909   0.199   6.817  0.1218 -0.0074  0.1322
18775THY    CA265440   2.956   0.309   6.888  0.0505 -0.6108  0.2786
18775THY    CP165441   3.009   0.294   7.036 -0.2798 -0.4668 -0.0909
18775THY    HP165442   3.033   0.191   7.064 -1.7703  2.1689  0.1911
18775THY    CP265443   2.908   0.357   7.131 -0.5289 -0.4120 -0.7775
18775THY    HP265444   2.891   0.464   7.118  1.2050  4.8843  0.4278
18775THY    HP365445   2.941   0.343   7.235  1.3274 -0.6261  1.4264
18775THY    HP465446   2.810   0.311   7.112 -1.8396  0.7772  1.3476
18775THY    CP365447   3.149   0.356   7.054  0.5667 -0.0727 -0.2314
18775THY    HP565448   3.209   0.311   6.973  0.1636 -1.3656  1.4541
18775THY    HP665449   3.211   0.324   7.139  2.4490 -1.3500 -0.1515
18775THY    HP765450   3.162   0.465   7.053  2.8657 -0.1399 -0.4556
18775THY    CA365451   2.946   0.442   6.840 -0.3922 -0.0497  0.6419
18775THY    HA365452   2.988   0.529   6.890 -0.7602 -0.4983  1.0795
18775THY    CA465453   2.910   0.460   6.707  0.3850 -0.1383  0.0849
18775THY    HA465454   2.916   0.560   6.665 -0.8066  1.7798  1.0114
18775THY    CA565455   2.871   0.352   6.627 -0.1815  0.7914  0.0279
18775THY    CM165456   2.846   0.368   6.479  0.5035  0.0445 -0.0817
18775THY    HM165457   2.777   0.289   6.450 -0.2682  0.2885  0.4885
18775THY    HM265458   2.934   0.347   6.416  2.4347  2.5509  0.0016
18775THY    HM365459   2.812   0.470   6.457 -0.4528  1.5784 -0.0427
18775THY    CA665460   2.861   0.221   6.684  0.3444 -1.2366 -0.2505
18775THY    HA665461   2.818   0.138   6.629  1.2631  0.3961 -1.8703
18776THY      O65462   0.317   4.597   5.035  0.0834 -0.9029  0.0668
18776THY     HO65463   0.357   4.562   4.953  0.3431 -1.0687  0.7376
18776THY    CA165464   0.419   4.661   5.098 -0.2174  0.0074  0.2741
18776THY    CA265465   0.417   4.692   5.235 -0.9399  0.8752  0.2295
18776THY    CP165466   0.300   4.660   5.320  0.9503 -0.7303  0.6043
18776THY    HP165467   0.213   4.641   5.257  0.6380  0.0222 -0.6080
18776THY    CP265468   0.270   4.775   5.426  0.6902  0.5824 -0.2429
18776THY    HP265469   0.161   4.779   5.432  0.5888 -0.4173 -1.2167
18776THY    HP365470   0.318   4.863   5.381  0.0608 -0.2519 -0.3171
18776THY    HP465471   0.312   4.760   5.527  1.7742  0.0584 -0.8229
18776THY    CP365472   0.318   4.526   5.405  0.0304  0.3379 -0.1429
18776THY    HP565473   0.420   4.520   5.445  1.6010 -3.2404  0.4899
18776THY    HP665474   0.311   4.439   5.339 -0.5460  0.4033 -0.1536
18776THY    HP765475   0.239   4.512   5.480 -0.7081 -0.6526 -1.5310
18776THY    CA365476   0.532   4.743   5.288  0.1281  0.0007 -0.2288
18776THY    HA365477   0.525   4.769   5.393 -2.0062 -0.3294  0.7212
18776THY    CA465478   0.650   4.775   5.212 -0.3917 -0.3847 -0.5076
18776THY    HA465479   0.735   4.823   5.261 -0.5809 -1.5643  1.1285
18776THY    CA565480   0.641   4.747   5.080  0.2764  0.6245  0.5835
18776THY    CM165481   0.753   4.780   4.992 -0.1190  0.2906 -0.2445
18776THY    HM165482   0.820   4.695   4.977  0.3512  0.0015  0.1755
18776THY    HM265483   0.814   4.862   5.032 -1.7783 -0.4618  1.4359
18776THY    HM365484   0.717   4.823   4.898 -1.0441  0.3697 -0.8050
18776THY    CA665485   0.528   4.690   5.017 -0.0120 -0.3971 -0.5273
18776THY    HA665486   0.533   4.666   4.911 -1.2996 -0.8555  1.0559
18777THY      O65487   1.273   3.249   2.720  0.0824 -0.1462  0.1285
18777THY     HO65488   1.286   3.242   2.624 -1.4510 -0.5695  2.2222
18777THY    CA165489   1.397   3.230   2.762 -0.2229 -0.3026  0.3053
18777THY    CA265490   1.447   3.196   2.888 -0.1092 -0.0422  0.9131
18777THY    CP165491   1.343   3.188   3.003  0.0456 -0.3235  0.1018
18777THY    HP165492   1.247   3.235   2.976  0.9823  0.0296  2.3796
18777THY    CP265493   1.403   3.235   3.133 -0.1751  0.2642  0.7362
18777THY    HP265494   1.332   3.242   3.216  1.7088  2.0048  0.1188
18777THY    HP365495   1.447   3.336   3.130 -0.5914 -1.9489  0.8957
18777THY    HP465496   1.474   3.162   3.173  0.6351 -0.1758  1.2699
18777THY    CP365497   1.289   3.039   3.014 -0.1726 -0.5395  0.1204
18777THY    HP565498   1.368   2.966   2.989 -0.2589  0.0516 -0.1807
18777THY    HP665499   1.205   3.025   2.945 -1.7408  1.2925  0.1323
18777THY    HP765500   1.262   3.009   3.116 -0.7326 -0.3566  1.2103
18777THY    CA365501   1.579   3.151   2.905  0.1090  0.1852  0.3388
18777THY    HA365502   1.624   3.125   3.001  0.2131 -0.1357 -0.7328
18777THY    CA465503   1.655   3.148   2.792 -0.5895  0.3669  0.0049
18777THY    HA465504   1.750   3.096   2.800 -1.0784 -0.3938 -1.0402
18777THY    CA565505   1.617   3.188   2.664 -0.3961 -0.2547  0.1339
18777THY    CM165506   1.706   3.169   2.546  0.6805 -0.6203  0.4509
18777THY    HM165507   1.812   3.164   2.576 -0.0472  1.9536 -1.6084
18777THY    HM265508   1.696   3.246   2.469  2.1191 -1.3619 -0.0674
18777THY    HM365509   1.675   3.080   2.490 -2.0039  1.9174 -0.3476
18777THY    CA665510   1.490   3.244   2.654  0.1441  0.2804 -0.3274
18777THY    HA665511   1.461   3.266   2.551  1.5952 -0.0283  0.2274
18778THY      O65512   3.612   4.515   4.317  0.1297  0.5967  0.4752
18778THY     HO65513   3.567   4.506   4.231 -2.5618  1.9396  0.2547
18778THY    CA165514   3.622   4.648   4.352 -0.8974 -0.3022 -0.5459
18778THY    CA265515   3.661   4.699   4.473 -0.2687 -0.5385  0.2861
18778THY    CP165516   3.699   4.603   4.583 -0.6396 -0.6712 -0.7056
18778THY    HP165517   3.759   4.518   4.547  1.4944  0.8350  0.0604
18778THY    CP265518   3.578   4.533   4.645 -0.4942 -0.4966  0.5242
18778THY    HP265519   3.497   4.517   4.573 -0.1780 -0.6239 -0.6200
18778THY    HP365520   3.547   4.599   4.727 -0.0956  0.0776  0.0130
18778THY    HP465521   3.612   4.439   4.691  0.5311  1.7100  1.9077
18778THY    CP365522   3.793   4.670   4.695 -0.5105  0.2241  0.2496
18778THY    HP565523   3.877   4.730   4.659  0.0046 -0.7568 -1.0447
18778THY    HP665524   3.829   4.586   4.755  1.5551 -1.5483 -0.2167
18778THY    HP765525   3.717   4.724   4.754 -1.0528 -1.5209  1.5134
18778THY    CA365526   3.667   4.836   4.495 -0.4242  0.0307  0.0765
18778THY    HA365527   3.710   4.886   4.582 -1.8781  0.3263  0.8743
18778THY    CA465528   3.646   4.923   4.392  0.4325  0.4067  0.4621
18778THY    HA465529   3.672   5.028   4.403  0.6008  1.3719  0.3283
18778THY    CA565530   3.592   4.875   4.274 -0.3386 -0.6402 -0.2882
18778THY    CM165531   3.560   4.970   4.155 -0.8808  0.0042 -0.2483
18778THY    HM165532   3.543   4.904   4.070 -1.4280 -1.5773  1.8158
18778THY    HM265533   3.648   5.033   4.136 -2.0141 -0.1291  1.3749
18778THY    HM365534   3.471   5.032   4.173  0.7529  0.0410  2.2117
18778THY    CA665535   3.587   4.740   4.256 -0.1754 -0.0242  0.3506
18778THY    HA665536   3.548   4.701   4.162 -3.1798  1.1709  0.1602
18779THY      O65537   0.808   3.785   7.419  0.0184 -0.4155  0.2116
18779THY     HO65538   0.867   3.721   7.375 -1.9125  0.7576 -2.6007
18779THY    CA165539   0.744   3.836   7.316  0.0093  0.1739  0.9511
18779THY    CA265540   0.663   3.956   7.331  0.4672 -0.4351 -0.1723
18779THY    CP165541   0.648   4.032   7.466  0.0999  0.0967  0.0812
18779THY    HP165542   0.705   3.974   7.539 -1.7200  1.6825  0.1940
18779THY    CP265543   0.515   4.027   7.530 -0.3154  1.2663  0.1273
18779THY    HP265544   0.487   3.921   7.524 -0.5277 -3.9037  0.2312
18779THY    HP365545   0.451   4.102   7.483  1.4609  0.3087  1.1063
18779THY    HP465546   0.525   4.059   7.635 -2.6921  2.1264 -1.5933
18779THY    CP365547   0.704   4.180   7.462 -0.0845 -0.1018 -0.1398
18779THY    HP565548   0.804   4.189   7.420  0.6941  1.9555  1.8945
18779THY    HP665549   0.718   4.229   7.559 -2.3796  0.0880  0.2560
18779THY    HP765550   0.647   4.243   7.393  0.4400 -1.2204 -0.8649
18779THY    CA365551   0.594   4.012   7.216 -0.0761 -0.2064  0.1957
18779THY    HA365552   0.531   4.099   7.233  1.4016 -0.0641  1.2855
18779THY    CA465553   0.596   3.945   7.097  0.3008  0.3335  0.1654
18779THY    HA465554   0.533   3.985   7.018  1.2123  0.2088  1.4286
18779THY    CA565555   0.675   3.833   7.082  0.1813  1.0581  0.4821
18779THY    CM165556   0.683   3.768   6.942 -0.4255  0.0563  0.1931
18779THY    HM165557   0.663   3.832   6.855  0.3275  0.3870  0.8875
18779THY    HM265558   0.603   3.692   6.944  0.5813  1.5825 -0.8678
18779THY    HM365559   0.770   3.704   6.926 -1.2124  0.9970 -1.1792
18779THY    CA665560   0.744   3.779   7.192  0.0663  1.1146  0.2741
18779THY    HA665561   0.800   3.688   7.173 -1.8656 -2.6920 -0.3586
18780THY      O65562   6.364   2.888   5.456 -0.0565  0.0472  0.3913
18780THY     HO65563   6.414   2.929   5.384  3.0025  0.0674 -2.7862
18780THY    CA165564   6.232   2.924   5.449  0.2759  0.1723 -0.1654
18780THY    CA265565   6.138   2.866   5.535  0.1697  0.4691 -0.1609
18780THY    CP165566   6.192   2.767   5.636  0.0354 -0.4293  0.5959
18780THY    HP165567   6.301   2.774   5.646  0.0958 -0.5700 -0.0355
18780THY    CP265568   6.162   2.625   5.574 -0.1651 -0.0651  0.0433
18780THY    HP265569   6.209   2.622   5.475 -1.8748 -0.9912  1.5507
18780THY    HP365570   6.057   2.595   5.562  1.0689 -2.0146 -4.2133
18780THY    HP465571   6.227   2.556   5.629  1.3424 -1.1545  0.5500
18780THY    CP365572   6.129   2.788   5.770  0.2059 -0.3415 -0.5230
18780THY    HP565573   6.181   2.724   5.842  0.4669 -0.5884 -0.5938
18780THY    HP665574   6.024   2.759   5.768  0.0534 -1.0991  0.0386
18780THY    HP765575   6.153   2.892   5.795 -1.8977  0.0249 -0.0950
18780THY    CA365576   6.001   2.885   5.519  0.2433  0.0340 -0.4289
18780THY    HA365577   5.925   2.827   5.571 -1.5991 -0.9658  0.9954
18780THY    CA465578   5.959   2.977   5.409 -0.6980 -0.5875  0.1947
18780THY    HA465579   5.854   3.004   5.402 -1.0829  1.0460 -0.7674
18780THY    CA565580   6.056   3.035   5.327 -0.5420 -0.1715 -0.1857
18780THY    CM165581   6.022   3.120   5.200  0.2140 -0.6731 -0.3395
18780THY    HM165582   6.022   3.227   5.223 -1.9290 -0.9900 -0.2282
18780THY    HM265583   5.921   3.108   5.159  0.4918 -1.3603 -0.3856
18780THY    HM365584   6.102   3.107   5.126  1.1442 -0.0195  1.4467
18780THY    CA665585   6.195   3.017   5.356  1.1668 -0.1710 -0.5547
18780THY    HA665586   6.269   3.044   5.282  1.3472 -1.2145 -3.4949
18781THY      O65587   8.009   5.994   6.205  0.5430  0.4414  0.5949
18781THY     HO65588   8.044   5.969   6.118 -0.3006 -0.5378  2.6305
18781THY    CA165589   8.081   5.924   6.289  0.6420 -0.1235 -0.4832
18781THY    CA265590   8.046   5.897   6.417  0.8216  0.0022 -0.6183
18781THY    CP165591   7.916   5.947   6.482 -0.4335 -0.2667 -0.0721
18781THY    HP165592   7.849   6.005   6.417 -0.7581 -0.0076 -0.1557
18781THY    CP265593   7.945   6.026   6.606  0.7266  0.3327  0.0604
18781THY    HP265594   7.845   6.042   6.648 -0.3137 -1.6638 -0.7709
18781THY    HP365595   7.997   6.118   6.578  1.6437 -0.0181 -0.5492
18781THY    HP465596   8.005   5.965   6.674  0.6067 -0.2750 -0.7602
18781THY    CP365597   7.823   5.829   6.509 -0.0906  0.3525  0.2863
18781THY    HP565598   7.727   5.875   6.532 -0.0395 -0.3153  0.7338
18781THY    HP665599   7.864   5.779   6.598  1.0385  0.4163  1.2811
18781THY    HP765600   7.812   5.760   6.424  0.5664  1.2729 -0.9998
18781THY    CA365601   8.127   5.815   6.496 -0.7204 -0.8658  0.9333
18781THY    HA365602   8.105   5.783   6.598  3.1558 -0.4286 -0.9110
18781THY    CA465603   8.244   5.754   6.443  0.3531  0.3268 -0.9315
18781THY    HA465604   8.299   5.686   6.507 -0.7344  1.6215 -0.6423
18781THY    CA565605   8.281   5.783   6.310  0.2792 -0.6607 -0.0471
18781THY    CM165606   8.399   5.719   6.248 -1.0364 -0.5328  0.0003
18781THY    HM165607   8.384   5.690   6.144 -0.2443 -1.1254  1.5929
18781THY    HM265608   8.438   5.631   6.300 -2.1956  0.1760 -0.1164
18781THY    HM365609   8.475   5.798   6.252  0.4784  2.4491 -1.4324
18781THY    CA665610   8.197   5.870   6.238 -0.1221  0.3064  0.3782
18781THY    HA665611   8.231   5.897   6.138  1.7676  1.0988  1.0666
18782THY      O65612   7.591   8.687   2.746 -0.0234  0.1812 -0.3895
18782THY     HO65613   7.620   8.599   2.774 -2.3492 -1.2333 -1.7267
18782THY    CA165614   7.614   8.773   2.842  0.1551  0.1549 -0.1735
18782THY    CA265615   7.595   8.912   2.816 -0.4308  0.4234 -0.3582
18782THY    CP165616   7.562   8.965   2.679 -0.4449 -0.5850 -0.2575
18782THY    HP165617   7.498   8.889   2.634  2.8461  0.8132 -4.1857
18782THY    CP265618   7.693   9.003   2.594  1.1584  0.9597  0.9013
18782THY    HP265619   7.757   9.081   2.637  0.8278 -0.0295  1.7405
18782THY    HP365620   7.644   9.047   2.507 -1.0124  0.7583 -1.6134
18782THY    HP465621   7.751   8.915   2.564 -0.9612  0.3452 -0.3670
18782THY    CP365622   7.478   9.099   2.698  0.6195 -0.5587 -0.1312
18782THY    HP565623   7.418   9.132   2.612 -4.6895  3.0296  0.8521
18782THY    HP665624   7.543   9.183   2.724  0.5970 -1.2107  0.0950
18782THY    HP765625   7.402   9.087   2.776  2.6812  1.4878 -0.5899
18782THY    CA365626   7.626   8.995   2.925  0.1749  0.5213  0.5144
18782THY    HA365627   7.609   9.102   2.915 -0.5509 -1.9542  0.2209
18782THY    CA465628   7.667   8.938   3.049  0.9206 -0.1448 -0.4204
18782THY    HA465629   7.673   9.000   3.137  1.4543 -1.5033  1.5686
18782THY    CA565630   7.684   8.798   3.065 -0.1808 -0.4707  0.7721
18782THY    CM165631   7.708   8.736   3.201  0.1899 -0.2879  0.1406
18782THY    HM165632   7.760   8.640   3.190 -0.6876 -3.2917 -0.1002
18782THY    HM265633   7.612   8.718   3.250 -0.3805 -1.5163 -0.3244
18782THY    HM365634   7.754   8.807   3.271 -0.7336  2.0993 -1.4786
18782THY    CA665635   7.662   8.717   2.958  0.9218  0.0651 -0.0453
18782THY    HA665636   7.671   8.610   2.973  0.2410 -0.4024 -0.1718
18783THY      O65637   6.335   7.869   3.647  0.0677 -0.1086  0.3442
18783THY     HO65638   6.260   7.915   3.604  0.7260 -0.0363  1.5332
18783THY    CA165639   6.290   7.765   3.711  0.6092  0.2231  0.0823
18783THY    CA265640   6.219   7.777   3.834 -0.4153 -0.1988 -0.0739
18783THY    CP165641   6.201   7.915   3.904  0.0190  0.2530  0.3892
18783THY    HP165642   6.175   7.988   3.827 -2.2367 -0.5600 -1.1537
18783THY    CP265643   6.327   7.961   3.982 -0.8768 -0.0536  0.3422
18783THY    HP265644   6.319   7.946   4.090 -0.2841 -0.1768 -1.0586
18783THY    HP365645   6.341   8.068   3.960 -0.8223 -4.8567 -0.4281
18783THY    HP465646   6.421   7.922   3.941 -1.1780  1.1491 -1.8039
18783THY    CP365647   6.076   7.929   3.993  0.0239 -0.7302 -0.3946
18783THY    HP565648   6.099   7.873   4.085 -1.5861  0.2155  0.4317
18783THY    HP665649   5.987   7.898   3.938  0.8473 -1.9574 -0.6714
18783THY    HP765650   6.053   8.030   4.028 -1.3473 -0.9382 -0.6189
18783THY    CA365651   6.161   7.659   3.887  0.1626 -0.0120 -0.0749
18783THY    HA365652   6.105   7.659   3.980  1.4392  0.7827 -0.2139
18783THY    CA465653   6.165   7.539   3.816  0.2651  0.4648  0.1219
18783THY    HA465654   6.109   7.450   3.844  0.2620 -0.4556 -0.1822
18783THY    CA565655   6.233   7.528   3.696  0.8013 -0.6143  0.1708
18783THY    CM165656   6.253   7.394   3.623 -1.0368 -0.0549  0.0236
18783THY    HM165657   6.294   7.321   3.694 -1.8802 -0.5357 -0.9474
18783THY    HM265658   6.334   7.416   3.553 -2.1872 -1.4080  0.0855
18783THY    HM365659   6.173   7.345   3.567  0.8572 -0.6669 -2.5853
18783THY    CA665660   6.291   7.638   3.641 -0.5741  0.1757 -0.8167
18783THY    HA665661   6.340   7.640   3.544  0.3699  0.6295 -1.2304
18784THY      O65662   3.065   5.434   4.690  0.8661  0.2279  0.1587
18784THY     HO65663   3.086   5.528   4.702  2.2839 -1.4554  0.1216
18784THY    CA165664   2.967   5.405   4.781 -0.2004  1.3474  0.1635
18784THY    CA265665   2.922   5.276   4.788  0.0194 -0.3938  0.1463
18784THY    CP165666   2.979   5.164   4.709  0.3529  0.4617  0.5544
18784THY    HP165667   3.022   5.193   4.612 -0.2509 -0.7849 -2.3024
18784THY    CP265668   2.872   5.067   4.651 -0.7057 -0.2471  0.1359
18784THY    HP265669   2.812   5.018   4.728 -0.7717  0.4551  1.2663
18784THY    HP365670   2.916   4.983   4.597 -0.8118  1.8519 -1.3615
18784THY    HP465671   2.799   5.115   4.586 -0.0346 -1.8265 -0.9210
18784THY    CP365672   3.078   5.085   4.794 -0.3553 -0.8057 -0.9966
18784THY    HP565673   3.141   5.009   4.747 -0.7030 -1.0426 -1.1415
18784THY    HP665674   3.027   5.044   4.882  0.9011 -1.4937 -4.3003
18784THY    HP765675   3.143   5.160   4.841  1.6495  0.6978 -3.4879
18784THY    CA365676   2.818   5.254   4.875 -0.3062  0.2517  0.3195
18784THY    HA365677   2.799   5.151   4.903 -1.2355 -0.7507  0.1971
18784THY    CA465678   2.757   5.358   4.946 -0.1183  0.1463 -0.5685
18784THY    HA465679   2.679   5.320   5.011  0.6740  1.1350 -0.5419
18784THY    CA565680   2.794   5.491   4.914  0.4470  0.1633 -0.0277
18784THY    CM165681   2.715   5.610   4.961  0.6820  0.5836 -0.2248
18784THY    HM165682   2.608   5.586   4.963  0.3202 -4.9972 -0.4656
18784THY    HM265683   2.737   5.695   4.895  1.6217  3.3197  1.7888
18784THY    HM365684   2.746   5.645   5.060  0.4663  0.4056  0.4984
18784THY    CA665685   2.884   5.511   4.814 -0.5851  0.1051  0.4200
18784THY    HA665686   2.896   5.613   4.780  3.6358  0.8369  0.3591
18785THY      O65687   2.020   8.533   5.460  0.0177  0.2660  0.3683
18785THY     HO65688   2.089   8.464   5.471 -0.1332 -1.4087 -0.0794
18785THY    CA165689   1.922   8.455   5.416 -0.0105 -0.0512 -0.4061
18785THY    CA265690   1.793   8.511   5.382  0.5143  0.2923 -0.4091
18785THY    CP165691   1.767   8.663   5.370  0.3516  0.9531  0.1973
18785THY    HP165692   1.858   8.722   5.389 -0.4033  2.0644  1.0538
18785THY    CP265693   1.668   8.715   5.471 -0.5581 -0.3116  0.9485
18785THY    HP265694   1.697   8.668   5.565  0.5195 -0.7258  0.7452
18785THY    HP365695   1.570   8.671   5.452 -0.2410 -0.7062  0.4098
18785THY    HP465696   1.662   8.824   5.483  1.5114  1.7026  0.9319
18785THY    CP365697   1.728   8.715   5.232 -1.1419 -0.1107 -0.0304
18785THY    HP565698   1.694   8.818   5.248  2.1389  1.2451  0.9890
18785THY    HP665699   1.641   8.664   5.191 -0.7372  1.2308 -1.9365
18785THY    HP765700   1.807   8.709   5.156 -1.6739 -0.6759  0.1026
18785THY    CA365701   1.686   8.424   5.365  0.3857 -0.5044 -0.4340
18785THY    HA365702   1.586   8.457   5.340 -0.0104  0.3530 -0.9710
18785THY    CA465703   1.703   8.286   5.379 -0.0045  0.2594 -0.5001
18785THY    HA465704   1.617   8.219   5.377 -1.0875  1.6715  0.7658
18785THY    CA565705   1.828   8.230   5.407  0.1307 -0.4517 -0.6747
18785THY    CM165706   1.835   8.086   5.416 -0.6622  0.1201 -0.8011
18785THY    HM165707   1.932   8.036   5.420 -0.7473 -0.1169 -0.9895
18785THY    HM265708   1.793   8.044   5.323 -0.0146  0.9270 -3.3909
18785THY    HM365709   1.776   8.038   5.494 -0.8536 -0.7790 -2.0711
18785THY    CA665710   1.941   8.312   5.419 -0.4830 -0.3183  0.3882
18785THY    HA665711   2.032   8.261   5.451 -2.1240  0.7336 -2.0449
18786THY      O65712   4.902   0.798   2.280  0.4000 -0.7685  0.1733
18786THY     HO65713   4.834   0.815   2.213 -2.8972  1.1896 -3.7301
18786THY    CA165714   5.003   0.876   2.262 -0.5148 -0.6928 -0.3542
18786THY    CA265715   5.139   0.839   2.305 -0.0527 -0.3803 -0.0952
18786THY    CP165716   5.164   0.697   2.368 -0.3262 -0.2864 -0.2803
18786THY    HP165717   5.064   0.660   2.396 -0.4646 -0.0841  0.2347
18786THY    CP265718   5.263   0.707   2.484  0.2847 -0.1668  0.1362
18786THY    HP265719   5.248   0.798   2.542  2.1871  0.9646 -0.2277
18786THY    HP365720   5.361   0.703   2.435  0.1100 -0.7332  1.8196
18786THY    HP465721   5.242   0.620   2.547 -0.2395 -0.7134 -0.1392
18786THY    CP365722   5.218   0.605   2.267  0.5142  0.8380 -0.1788
18786THY    HP565723   5.319   0.638   2.241  0.6354  0.9518 -0.4606
18786THY    HP665724   5.158   0.601   2.175  0.8526  0.5453  0.9716
18786THY    HP765725   5.221   0.505   2.311  1.8220  1.3970  0.0901
18786THY    CA365726   5.235   0.942   2.316  0.6723  0.1618  0.8778
18786THY    HA365727   5.333   0.925   2.360 -0.6990  2.9592 -0.3599
18786THY    CA465728   5.195   1.076   2.273 -0.4006  0.4197  0.3743
18786THY    HA465729   5.255   1.161   2.303 -2.5649  1.2065  1.7068
18786THY    CA565730   5.072   1.105   2.217  0.4126 -0.0415  0.0636
18786THY    CM165731   5.038   1.255   2.190 -0.4423  0.5912  0.4042
18786THY    HM165732   4.949   1.255   2.127  2.3952 -3.9172 -1.9676
18786THY    HM265733   5.119   1.310   2.139 -2.7556  0.7255  4.3674
18786THY    HM365734   5.014   1.298   2.288  1.2559  1.2619 -0.0804
18786THY    CA665735   4.971   1.009   2.219 -0.2050 -0.6528 -0.4280
18786THY    HA665736   4.866   1.036   2.220  0.1296 -1.7594  1.0527
18787THY      O65737   5.959   8.175   5.166 -0.7800  0.0897 -0.7060
18787THY     HO65738   5.898   8.219   5.228  2.0694  1.8739  1.0627
18787THY    CA165739   6.018   8.076   5.241  0.0838 -0.1643  0.2164
18787THY    CA265740   6.140   8.028   5.201 -0.3404 -0.2419 -0.8250
18787THY    CP165741   6.208   8.081   5.065 -0.2014 -0.3889  0.6054
18787THY    HP165742   6.184   8.187   5.050 -0.3096 -2.3760  0.3355
18787THY    CP265743   6.168   7.986   4.951  0.2069  0.2611  0.1278
18787THY    HP265744   6.216   8.023   4.860  0.1149 -0.3021 -1.1068
18787THY    HP365745   6.059   7.979   4.945  0.1393  0.4850  0.8356
18787THY    HP465746   6.198   7.882   4.967  1.1562 -1.2703  0.1339
18787THY    CP365747   6.358   8.104   5.083  0.2675  0.1786  0.9139
18787THY    HP565748   6.403   8.154   4.996 -1.0256 -1.2663 -0.3373
18787THY    HP665749   6.396   8.001   5.087 -0.9796 -0.7731  0.3931
18787THY    HP765750   6.386   8.158   5.173 -0.5072 -0.2322  2.0289
18787THY    CA365751   6.200   7.929   5.281 -0.6731  0.4826  0.4478
18787THY    HA365752   6.298   7.890   5.256 -0.5714 -0.2974  1.1799
18787THY    CA465753   6.140   7.888   5.398  0.8997  0.0233  0.1608
18787THY    HA465754   6.195   7.813   5.454  1.4358 -1.1099 -0.3209
18787THY    CA565755   6.010   7.936   5.440 -0.6764 -0.0721  0.0789
18787THY    CM165756   5.946   7.883   5.570  0.0994 -0.3265  0.5429
18787THY    HM165757   6.000   7.924   5.656 -0.7717  0.2323  0.5352
18787THY    HM265758   5.948   7.774   5.584 -0.3714  1.4994  0.7455
18787THY    HM365759   5.841   7.914   5.562 -0.8480  0.5212 -2.1970
18787THY    CA665760   5.951   8.031   5.359 -1.3259  0.1304 -0.5343
18787THY    HA665761   5.855   8.075   5.384 -2.0150  0.9170 -2.3807
18788THY      O65762   1.138   6.212   6.539 -0.4904 -0.5127  0.4413
18788THY     HO65763   1.086   6.293   6.549 -1.0879  0.1110  0.0018
18788THY    CA165764   1.055   6.102   6.549  0.5588  0.3986  0.2257
18788THY    CA265765   1.079   5.975   6.494  0.3643 -0.2232  0.7445
18788THY    CP165766   1.208   5.952   6.427 -0.5098 -0.0144  0.0992
18788THY    HP165767   1.260   6.048   6.415 -1.6827 -1.3979  0.5916
18788THY    CP265768   1.190   5.912   6.280 -0.3490 -0.5301  0.2518
18788THY    HP265769   1.125   5.823   6.277 -2.6830  0.0083  1.8375
18788THY    HP365770   1.281   5.869   6.239 -0.9574 -0.3421 -1.3073
18788THY    HP465771   1.139   5.993   6.228 -1.7707  0.3264 -0.0415
18788THY    CP365772   1.296   5.863   6.510 -0.1257  0.6753  0.7442
18788THY    HP565773   1.339   5.913   6.597 -0.4008  0.2790  1.6895
18788THY    HP665774   1.378   5.824   6.449  0.4848  0.5963  2.1159
18788THY    HP765775   1.244   5.774   6.550  0.7564  1.3566  0.5260
18788THY    CA365776   0.986   5.869   6.502 -0.9129 -0.3472 -0.0973
18788THY    HA365777   1.006   5.777   6.448  1.4917 -1.2335  0.8822
18788THY    CA465778   0.865   5.884   6.580  0.0220  0.8335 -0.1308
18788THY    HA465779   0.795   5.801   6.595 -1.6586 -2.8818  0.4282
18788THY    CA565780   0.842   6.010   6.640  0.6856  0.6185  0.1521
18788THY    CM165781   0.725   6.028   6.729  0.6246  0.2600 -0.3741
18788THY    HM165782   0.756   6.013   6.833  2.0567 -0.1470 -0.3795
18788THY    HM265783   0.647   5.954   6.710  1.0993  1.5166 -1.2355
18788THY    HM365784   0.674   6.125   6.723 -0.2870 -0.5171 -0.8913
18788THY    CA665785   0.935   6.117   6.625 -0.2061  0.3550  0.2340
18788THY    HA665786   0.922   6.206   6.685 -0.6640 -1.4925  1.4841
18789THY      O65787   0.710   1.625   4.394  0.0412 -0.6241 -0.3123
18789THY     HO65788   0.701   1.627   4.491 -2.8954 -0.8151 -0.2507
18789THY    CA165789   0.815   1.556   4.351  0.4885  0.4049  0.3849
18789THY    CA265790   0.844   1.430   4.407  0.7652 -0.6477  0.2046
18789THY    CP165791   0.755   1.378   4.524 -0.1453 -0.0966  0.6696
18789THY    HP165792   0.722   1.457   4.593  0.1421  0.1531  0.5776
18789THY    CP265793   0.835   1.270   4.613 -0.0099  0.4934  0.4503
18789THY    HP265794   0.790   1.242   4.709  1.5807  0.3768 -3.1584
18789THY    HP365795   0.922   1.332   4.637  0.7666 -0.2891 -0.2891
18789THY    HP465796   0.865   1.179   4.559 -0.6463  1.6593 -0.4755
18789THY    CP365797   0.617   1.317   4.479 -0.6033  0.4016  0.4697
18789THY    HP565798   0.555   1.287   4.565 -0.2775  1.1643  1.8990
18789THY    HP665799   0.635   1.237   4.407  1.0401 -1.2936  2.2495
18789THY    HP765800   0.564   1.400   4.430 -1.3837  1.6330  0.7388
18789THY    CA365801   0.953   1.348   4.360  0.4858 -0.2184 -0.1774
18789THY    HA365802   0.983   1.252   4.401  1.3427  0.7481  0.4891
18789THY    CA465803   1.039   1.398   4.258  0.0103 -1.0908 -0.8257
18789THY    HA465804   1.121   1.337   4.221  0.4342 -0.6270 -0.5473
18789THY    CA565805   1.013   1.531   4.204  0.3127 -0.0427  0.0393
18789THY    CM165806   1.093   1.587   4.084  0.4385 -1.0583  1.0072
18789THY    HM165807   1.069   1.522   3.999 -0.3851  0.1150 -0.2530
18789THY    HM265808   1.201   1.588   4.102  0.1678  0.8990 -0.7128
18789THY    HM365809   1.063   1.691   4.067  1.3949 -1.3499  1.2522
18789THY    CA665810   0.900   1.599   4.247  0.7004  0.4587  0.0646
18789THY    HA665811   0.868   1.687   4.192 -1.4402  0.2075 -0.8050
18790THY      O65812   4.458   7.077   4.598  0.2706 -0.1141 -0.1369
18790THY     HO65813   4.498   7.013   4.536 -1.9668  0.4143 -2.1564
18790THY    CA165814   4.321   7.076   4.586 -0.0932  0.1089  0.0195
18790THY    CA265815   4.240   7.155   4.670 -0.0176 -0.4200  0.1232
18790THY    CP165816   4.307   7.260   4.760  0.6658 -0.0438 -0.9636
18790THY    HP165817   4.413   7.240   4.778  0.8706 -0.7837 -0.5775
18790THY    CP265818   4.233   7.280   4.897 -0.4411 -1.0156 -0.0129
18790THY    HP265819   4.291   7.352   4.955 -0.7375  1.3481 -1.5717
18790THY    HP365820   4.214   7.191   4.959 -1.3031 -0.3057  0.6513
18790THY    HP465821   4.141   7.338   4.885 -0.6755  1.9298  0.3445
18790THY    CP365822   4.305   7.399   4.688 -0.2513 -0.2206 -0.0481
18790THY    HP565823   4.202   7.434   4.675 -1.9707  1.6336 -3.7448
18790THY    HP665824   4.361   7.394   4.594  1.1650  0.6437 -3.0255
18790THY    HP765825   4.361   7.475   4.742  0.6007 -2.1342  0.7505
18790THY    CA365826   4.104   7.125   4.682 -0.4001 -0.4017  0.5318
18790THY    HA365827   4.046   7.184   4.751 -2.6008 -2.4609  0.8980
18790THY    CA465828   4.046   7.025   4.607  0.5190 -0.5639  0.3774
18790THY    HA465829   3.939   7.007   4.615  0.5900  1.3041  0.5634
18790THY    CA565830   4.121   6.951   4.517 -0.0200 -0.3785  0.0436
18790THY    CM165831   4.061   6.835   4.447 -0.0255 -0.1944 -0.0683
18790THY    HM165832   3.994   6.868   4.366 -1.8537  0.1495 -2.6201
18790THY    HM265833   4.001   6.788   4.525  0.5132  0.3216  0.0996
18790THY    HM365834   4.141   6.774   4.403  1.8909  1.7172  0.9416
18790THY    CA665835   4.259   6.972   4.517 -0.1927 -0.6835 -0.1883
18790THY    HA665836   4.322   6.907   4.458 -0.7531 -2.1946  0.6035
18791THY      O65837   4.608   8.897   3.383  0.4293  0.7446 -0.2072
18791THY     HO65838   4.535   8.833   3.389 -0.3327  2.8953  0.7466
18791THY    CA165839   4.565   9.004   3.315 -0.1735 -0.2124  0.0769
18791THY    CA265840   4.638   9.127   3.318 -0.2452  0.3366  0.1220
18791THY    CP165841   4.761   9.153   3.409  0.7004 -0.5835  0.1531
18791THY    HP165842   4.774   9.066   3.474  0.4147  1.1227  1.3292
18791THY    CP265843   4.764   9.268   3.507 -0.9585  0.1286 -0.0811
18791THY    HP265844   4.664   9.272   3.552 -2.2489 -2.4430 -0.8682
18791THY    HP365845   4.800   9.359   3.457  2.6243  0.3215 -1.2360
18791THY    HP465846   4.832   9.243   3.589 -0.5064 -0.5185 -1.0138
18791THY    CP365847   4.888   9.156   3.321  0.1060 -0.4611 -0.1318
18791THY    HP565848   4.967   9.110   3.380  2.0097 -0.9373  2.3255
18791THY    HP665849   4.903   9.259   3.286 -0.1203 -1.6698 -0.4834
18791THY    HP765850   4.878   9.087   3.236  1.0289 -3.0975  2.7853
18791THY    CA365851   4.587   9.234   3.243 -0.4158  0.3731  0.0336
18791THY    HA365852   4.647   9.324   3.248  0.7809  2.6877 -0.8191
18791THY    CA465853   4.478   9.210   3.159 -0.3604  0.3514 -0.0928
18791THY    HA465854   4.451   9.288   3.088  1.3765  0.1754  0.4103
18791THY    CA565855   4.413   9.096   3.158  0.3213 -0.0006 -0.7533
18791THY    CM165856   4.292   9.084   3.076  0.7863 -0.3703  0.4520
18791THY    HM165857   4.303   9.133   2.979  1.0458 -0.1927  0.7518
18791THY    HM265858   4.195   9.109   3.122 -0.3011 -1.0947 -2.0559
18791THY    HM365859   4.276   8.979   3.050 -0.9013 -1.1322  0.8601
18791THY    CA665860   4.453   8.989   3.240  0.1511  0.6613 -0.5073
18791THY    HA665861   4.393   8.901   3.259 -2.6633  0.3514  1.2399
18792THY      O65862   3.260   7.872   5.259 -0.0144  0.1263  0.4140
18792THY     HO65863   3.263   7.809   5.184 -0.3141  1.3779 -1.1644
18792THY    CA165864   3.179   7.816   5.354  0.3175  0.3524 -0.2755
18792THY    CA265865   3.127   7.904   5.448  0.1714 -0.2119 -0.2267
18792THY    CP165866   3.156   8.057   5.460  0.8140  0.3763 -0.5735
18792THY    HP165867   3.254   8.084   5.417  0.9411  0.0484 -1.5198
18792THY    CP265868   3.171   8.092   5.605 -0.1432  0.6665 -0.3584
18792THY    HP265869   3.084   8.085   5.671 -1.3977 -0.7662  0.9904
18792THY    HP365870   3.208   8.194   5.622  1.1075 -0.5358 -0.5887
18792THY    HP465871   3.247   8.023   5.644  0.1219 -0.3270 -0.6434
18792THY    CP365872   3.037   8.129   5.394 -0.7509  0.4748  0.0162
18792THY    HP565873   2.940   8.092   5.430  0.2648  3.2017 -0.2433
18792THY    HP665874   3.056   8.120   5.287  1.2227  0.7010  1.0628
18792THY    HP765875   3.043   8.235   5.421  3.1321  0.1527 -0.0044
18792THY    CA365876   3.048   7.840   5.549  0.6530 -0.4737 -0.5682
18792THY    HA365877   3.000   7.892   5.631 -0.6267 -0.6525 -1.4346
18792THY    CA465878   3.029   7.700   5.553 -0.1427 -0.1231 -0.0182
18792THY    HA465879   2.961   7.647   5.617 -1.3158 -0.3317  1.1715
18792THY    CA565880   3.082   7.628   5.449 -0.0937 -0.2507  0.7525
18792THY    CM165881   3.071   7.481   5.434  0.4277  0.1175  0.4260
18792THY    HM165882   3.164   7.431   5.406 -0.3188 -0.1896 -0.8444
18792THY    HM265883   2.985   7.448   5.375 -0.9072  2.7272 -1.1588
18792THY    HM365884   3.040   7.435   5.529  1.3604  0.4664  0.4924
18792THY    CA665885   3.164   7.684   5.356  0.0047 -0.2943 -0.3026
18792THY    HA665886   3.205   7.628   5.273  1.0735  0.0957 -0.1416
18793THY      O65887   5.586   6.742   6.028 -0.0677  0.3124  0.4100
18793THY     HO65888   5.616   6.667   6.083  2.4352  0.0988  1.1434
18793THY    CA165889   5.700   6.798   5.975 -0.0985 -0.0010  0.3299
18793THY    CA265890   5.684   6.881   5.859 -0.6257  0.3713  0.2877
18793THY    CP165891   5.550   6.921   5.799  0.2643 -0.0794  0.1592
18793THY    HP165892   5.456   6.885   5.843 -0.5616  0.0099  2.3136
18793THY    CP265893   5.531   6.865   5.659 -0.0129  0.6923  0.3847
18793THY    HP265894   5.601   6.898   5.582  0.2094  0.4853 -0.5590
18793THY    HP365895   5.430   6.872   5.614  0.3732 -0.1398  0.8562
18793THY    HP465896   5.544   6.757   5.666 -1.2585  1.4432  0.2582
18793THY    CP365897   5.530   7.079   5.804  0.4758  0.0703  0.0985
18793THY    HP565898   5.584   7.137   5.728  0.6346 -0.8108 -1.1592
18793THY    HP665899   5.558   7.115   5.904  2.5886  0.1224 -1.4741
18793THY    HP765900   5.423   7.103   5.809  0.4973 -0.6695  0.3704
18793THY    CA365901   5.802   6.943   5.803  0.0968  0.7209  0.3729
18793THY    HA365902   5.788   6.998   5.711 -0.6590 -0.0706 -1.0882
18793THY    CA465903   5.929   6.920   5.862 -0.7904 -0.7797 -0.8743
18793THY    HA465904   6.015   6.970   5.818 -1.2076 -0.3583  0.2457
18793THY    CA565905   5.943   6.833   5.979  0.4484  0.5522 -0.1688
18793THY    CM165906   6.075   6.814   6.055 -0.1376  0.9556  0.5343
18793THY    HM165907   6.077   6.887   6.137 -0.9594  1.1021  0.4017
18793THY    HM265908   6.153   6.827   5.979 -0.3017  0.6783 -0.0720
18793THY    HM365909   6.078   6.712   6.093 -0.1142  0.9942  0.5496
18793THY    CA665910   5.823   6.771   6.032 -0.2271  0.4913 -0.0879
18793THY    HA665911   5.829   6.705   6.119 -0.5266 -0.0166 -0.7975
18794THY      O65912   3.598   0.584   6.720  0.9871 -0.1070 -0.2123
18794THY     HO65913   3.692   0.569   6.740  0.5717  2.3581  0.0513
18794THY    CA165914   3.582   0.601   6.583  0.0351 -0.5066  0.2545
18794THY    CA265915   3.468   0.657   6.529 -0.4583  0.0532 -0.0116
18794THY    CP165916   3.368   0.730   6.620  0.4067  0.0967  0.3356
18794THY    HP165917   3.390   0.705   6.724  0.4663 -0.2909 -1.3444
18794THY    CP265918   3.222   0.695   6.602  0.2824  1.0350 -0.2437
18794THY    HP265919   3.185   0.748   6.513 -3.5724  1.9565 -1.0849
18794THY    HP365920   3.155   0.720   6.685 -3.0004 -1.3955 -0.1817
18794THY    HP465921   3.211   0.591   6.568  1.7371 -0.9945  0.2066
18794THY    CP365922   3.377   0.884   6.602  0.0084  0.0100  0.4786
18794THY    HP565923   3.350   0.913   6.500  0.9461 -0.0572  1.1478
18794THY    HP665924   3.478   0.912   6.633 -0.3547  0.0252  1.8058
18794THY    HP765925   3.310   0.934   6.673 -3.4057 -1.5469 -1.4772
18794THY    CA365926   3.443   0.659   6.390  0.6207  0.1596 -0.7707
18794THY    HA365927   3.348   0.686   6.345  0.4427 -1.3809 -3.5742
18794THY    CA465928   3.539   0.596   6.309  0.0699 -0.3149 -0.8290
18794THY    HA465929   3.518   0.586   6.203  0.6707 -0.5792  0.5195
18794THY    CA565930   3.654   0.537   6.368 -0.0034 -0.2817 -0.1347
18794THY    CM165931   3.754   0.463   6.282  0.4196 -0.5018 -0.1396
18794THY    HM165932   3.850   0.516   6.281  0.1101  1.1441  0.5131
18794THY    HM265933   3.713   0.464   6.181  0.6890 -0.6159  1.2824
18794THY    HM365934   3.754   0.360   6.318 -1.5415 -0.0789 -0.0268
18794THY    CA665935   3.682   0.542   6.509  0.9314  0.2990 -0.5965
18794THY    HA665936   3.769   0.503   6.560  0.0026  1.2781 -1.4314
18795THY      O65937   9.243   0.735   5.390  0.4550 -0.1458  0.2930
18795THY     HO65938   9.337   0.711   5.396  0.5766 -1.6802  0.2379
18795THY    CA165939   9.209   0.692   5.265  0.1740 -0.6651 -0.0382
18795THY    CA265940   9.095   0.615   5.238  0.0247  0.3855  0.7972
18795THY    CP165941   8.993   0.581   5.349  0.8248  0.4381  0.4436
18795THY    HP165942   9.053   0.573   5.440  0.6503  0.5145 -0.0371
18795THY    CP265943   8.908   0.452   5.345 -0.9464  0.3117 -0.9635
18795THY    HP265944   8.836   0.461   5.262  0.6715 -1.0830 -0.3913
18795THY    HP365945   8.858   0.430   5.440 -1.1801 -0.2307 -2.9574
18795THY    HP465946   8.981   0.371   5.333 -0.8962 -1.6536 -0.6841
18795THY    CP365947   8.900   0.699   5.373  0.1247  0.2099 -0.6342
18795THY    HP565948   8.821   0.677   5.446  0.4957  0.9002  0.2754
18795THY    HP665949   8.849   0.724   5.279  1.4737 -1.3013 -3.1745
18795THY    HP765950   8.961   0.784   5.403 -2.3479 -1.5655  1.9461
18795THY    CA365951   9.083   0.557   5.107  0.4073 -0.4027 -0.9306
18795THY    HA365952   8.996   0.495   5.087 -1.5093  0.7711  1.1934
18795THY    CA465953   9.185   0.582   5.013  0.2127 -0.0793  0.3333
18795THY    HA465954   9.186   0.545   4.911  2.5413 -0.5049  1.4377
18795THY    CA565955   9.298   0.660   5.049 -0.3778  0.4050  0.6181
18795THY    CM165956   9.414   0.675   4.960 -0.1755 -0.4586 -0.0168
18795THY    HM165957   9.446   0.780   4.958 -1.5589 -1.5241  0.4156
18795THY    HM265958   9.392   0.645   4.857 -2.0964  0.4734 -2.0266
18795THY    HM365959   9.500   0.614   4.990 -0.5244 -2.8509 -1.8573
18795THY    CA665960   9.308   0.710   5.176  0.1359  0.5370 -0.2475
18795THY    HA665961   9.404   0.755   5.202  0.2256 -0.7276  0.3320
18796THY      O65962   4.112   2.588   7.166  0.2534  0.0691 -0.6170
18796THY     HO65963   4.064   2.575   7.083 -1.2119  0.6715  0.6748
18796THY    CA165964   4.180   2.471   7.196 -0.5985 -0.1147  0.5404
18796THY    CA265965   4.281   2.471   7.295  0.3829  0.6917  0.3845
18796THY    CP165966   4.330   2.601   7.358  0.4407 -0.1489  0.0258
18796THY    HP165967   4.252   2.675   7.333  0.8482 -1.0831  0.1526
18796THY    CP265968   4.463   2.653   7.277 -0.0463  0.5515 -0.5957
18796THY    HP265969   4.540   2.575   7.282  0.6530  0.2345  0.0656
18796THY    HP365970   4.505   2.741   7.327 -2.9795 -0.3010  1.4184
18796THY    HP465971   4.442   2.668   7.171 -1.3500  0.9105  0.2022
18796THY    CP365972   4.355   2.599   7.513 -0.0565  0.6915  0.4049
18796THY    HP565973   4.390   2.698   7.545  1.2989 -0.1314  0.2136
18796THY    HP665974   4.419   2.517   7.548 -0.3840  0.7025  0.1491
18796THY    HP765975   4.257   2.589   7.562  0.2777  1.3778  0.4851
18796THY    CA365976   4.336   2.342   7.322 -0.4113  0.4033 -0.5154
18796THY    HA365977   4.426   2.335   7.383 -0.8907  0.9104 -2.8095
18796THY    CA465978   4.296   2.230   7.252 -0.6057 -0.6528 -0.5917
18796THY    HA465979   4.356   2.142   7.273  0.3359  1.9622  0.5703
18796THY    CA565980   4.210   2.236   7.143 -0.7932 -0.5590  0.0118
18796THY    CM165981   4.179   2.111   7.065  0.5380  0.3990  0.0583
18796THY    HM165982   4.105   2.051   7.118  0.7068  0.0683 -0.4454
18796THY    HM265983   4.264   2.046   7.038  0.7085 -2.1435  1.2302
18796THY    HM365984   4.135   2.132   6.967  1.0896 -0.6591 -3.2027
18796THY    CA665985   4.137   2.357   7.124 -0.4017 -0.4651  0.8649
18796THY    HA665986   4.053   2.367   7.056 -1.8050  1.2471  1.0855
18797THY      O65987   8.121   3.355   2.689 -0.3042  0.2726 -0.1840
18797THY     HO65988   8.113   3.288   2.618 -3.7562  1.0934 -0.8319
18797THY    CA165989   8.251   3.355   2.739  0.3900 -0.6893 -0.1362
18797THY    CA265990   8.297   3.434   2.848 -0.0737 -0.5139  0.4816
18797THY    CP165991   8.197   3.533   2.910 -0.7595 -0.6191  0.6346
18797THY    HP165992   8.099   3.533   2.860 -1.5930  0.8970 -0.7348
18797THY    CP265993   8.256   3.678   2.910  0.2454 -0.5205  0.4017
18797THY    HP265994   8.345   3.687   2.973  0.2497 -0.7123  1.9199
18797THY    HP365995   8.178   3.748   2.943 -1.4386 -1.7124 -0.8320
18797THY    HP465996   8.286   3.703   2.807  2.5653  0.1159  0.4920
18797THY    CP365997   8.178   3.494   3.056  0.7039  0.3832 -0.2335
18797THY    HP565998   8.142   3.391   3.069 -0.4629  0.0251  0.1119
18797THY    HP665999   8.101   3.553   3.107  0.0104  1.3939 -1.9318
18797THY    HP766000   8.265   3.514   3.120  0.2581  1.0524 -0.3846
18797THY    CA366001   8.420   3.415   2.899 -0.2842  0.1510 -0.0773
18797THY    HA366002   8.454   3.473   2.985  1.1731  0.6578 -1.6292
18797THY    CA466003   8.501   3.315   2.846 -0.5930  0.2842  0.1623
18797THY    HA466004   8.596   3.294   2.894 -0.3343  0.8296  2.3225
18797THY    CA566005   8.460   3.234   2.739  0.6812 -0.2245 -0.1320
18797THY    CM166006   8.550   3.118   2.715  0.1303 -0.0481 -0.4703
18797THY    HM166007   8.500   3.039   2.658  3.7508  0.5390 -3.4589
18797THY    HM266008   8.601   3.083   2.805  0.7571 -0.0419  0.4080
18797THY    HM366009   8.637   3.147   2.655  1.5289  1.5322 -1.2241
18797THY    CA666010   8.333   3.254   2.687  0.8352 -0.5288  0.0419
18797THY    HA666011   8.295   3.192   2.607 -1.2397  0.7027 -0.3700
18798THY      O66012   5.561   8.100   4.630  0.3274 -0.1511  0.2126
18798THY     HO66013   5.516   8.039   4.569  0.2646 -2.4350  2.3805
18798THY    CA166014   5.693   8.097   4.610  0.1704  0.3491  1.4951
18798THY    CA266015   5.782   8.127   4.711 -0.1484 -0.2482  0.2210
18798THY    CP166016   5.727   8.191   4.835 -0.0846  0.4198 -0.0766
18798THY    HP166017   5.621   8.218   4.829  0.1375 -3.4370  0.4680
18798THY    CP266018   5.797   8.323   4.877 -0.9211 -0.6548 -0.0304
18798THY    HP266019   5.750   8.408   4.826 -2.5270  2.2038  0.9601
18798THY    HP366020   5.906   8.327   4.876 -0.8301  2.5910  1.1251
18798THY    HP466021   5.773   8.349   4.981 -1.7612 -1.6021  3.5235
18798THY    CP366022   5.732   8.086   4.945  0.5661 -0.2323  0.2867
18798THY    HP566023   5.688   8.129   5.036 -0.4681 -1.3669  1.7223
18798THY    HP666024   5.836   8.061   4.970  1.0148  0.0627  2.2687
18798THY    HP766025   5.675   7.997   4.915  0.5471  1.8757 -0.4673
18798THY    CA366026   5.925   8.106   4.691  0.2635 -0.1184  0.3298
18798THY    HA366027   5.994   8.140   4.768 -1.6718  1.1565  1.5837
18798THY    CA466028   5.964   8.046   4.568 -0.2176 -1.2910 -0.0442
18798THY    HA466029   6.071   8.040   4.548 -0.1183 -0.9071  0.3673
18798THY    CA566030   5.873   8.029   4.466 -0.8991  0.2305  0.7455
18798THY    CM166031   5.929   7.981   4.333  0.6075 -0.0178  0.9362
18798THY    HM166032   5.854   7.929   4.273 -1.4121  1.5050  1.9455
18798THY    HM266033   6.007   7.910   4.364 -0.0871 -0.4767 -0.0439
18798THY    HM366034   5.978   8.065   4.283 -1.3075 -2.0060  0.9508
18798THY    CA666035   5.736   8.034   4.492  0.2787  0.2388  0.0442
18798THY    HA666036   5.665   8.009   4.414  0.4959  0.6276 -1.9086
18799THY      O66037   3.113   6.399   7.413  0.3247  0.3027 -0.4470
18799THY     HO66038   3.169   6.474   7.440  1.1542 -0.0401 -0.9234
18799THY    CA166039   3.120   6.297   7.498  0.3415  0.1633  0.3457
18799THY    CA266040   3.031   6.187   7.488 -0.1944 -0.3943 -0.3972
18799THY    CP166041   2.922   6.183   7.376 -0.4063  0.2793 -0.5775
18799THY    HP166042   2.953   6.235   7.285 -1.3367 -0.1525 -0.7615
18799THY    CP266043   2.808   6.263   7.428 -0.1886  0.1275 -0.1658
18799THY    HP266044   2.851   6.354   7.471  0.9508 -0.4684 -0.4025
18799THY    HP366045   2.749   6.211   7.503 -0.0744 -1.3708 -2.5951
18799THY    HP466046   2.737   6.283   7.347 -0.7247  0.8007  0.6977
18799THY    CP366047   2.885   6.047   7.314  0.2546 -0.0624 -0.2962
18799THY    HP566048   2.794   6.051   7.253 -0.1609  0.5890  0.4810
18799THY    HP666049   2.863   5.966   7.384 -1.1935  1.3582  1.2362
18799THY    HP766050   2.970   6.011   7.256 -0.2572 -1.0374  0.0300
18799THY    CA366051   3.050   6.084   7.578 -0.0320 -0.2753  0.2190
18799THY    HA366052   2.972   6.008   7.582 -0.1249 -0.8871  0.2729
18799THY    CA466053   3.158   6.082   7.664 -0.5865 -0.8915 -0.2639
18799THY    HA466054   3.178   6.003   7.737  1.5357 -1.9899 -0.8284
18799THY    CA566055   3.248   6.191   7.670  0.7676 -0.4727  0.1867
18799THY    CM166056   3.359   6.199   7.766 -0.1052  0.0740  0.3252
18799THY    HM166057   3.453   6.205   7.710 -0.8410 -1.1405  1.0084
18799THY    HM266058   3.380   6.114   7.831  5.5838 -2.0892 -0.3839
18799THY    HM366059   3.349   6.291   7.825 -3.4702  1.4397 -0.7479
18799THY    CA666060   3.226   6.299   7.584 -0.4247 -0.5806 -0.6961
18799THY    HA666061   3.295   6.383   7.580  0.2150 -0.2141 -1.1912
18800THY      O66062   8.791   7.127   3.199  0.2037 -0.3821  0.5574
18800THY     HO66063   8.870   7.145   3.252  0.2098 -1.0941  2.9663
18800THY    CA166064   8.687   7.148   3.283  0.4910 -0.6879 -0.3250
18800THY    CA266065   8.564   7.192   3.239  0.5836  0.3950 -0.1419
18800THY    CP166066   8.538   7.223   3.086  0.5628 -0.6482 -0.1405
18800THY    HP166067   8.601   7.160   3.023 -0.1196 -0.0168 -1.4841
18800THY    CP266068   8.578   7.371   3.069 -0.1674  0.4743  0.2946
18800THY    HP266069   8.548   7.441   3.147  1.5365  0.0968  1.5177
18800THY    HP366070   8.540   7.406   2.973 -1.0180 -0.9607 -3.9449
18800THY    HP466071   8.687   7.370   3.058 -0.1158  0.7796  1.5906
18800THY    CP366072   8.391   7.200   3.048  1.0337 -0.5436 -0.5830
18800THY    HP566073   8.332   7.277   3.098  2.0097 -0.3669  0.0625
18800THY    HP666074   8.353   7.104   3.085 -1.7028  2.1070  1.3668
18800THY    HP766075   8.380   7.210   2.939 -0.0870 -0.5558 -1.6646
18800THY    CA366076   8.465   7.226   3.335 -0.8103  0.3113  0.1606
18800THY    HA366077   8.362   7.246   3.305 -0.7011 -1.2019 -1.2682
18800THY    CA466078   8.492   7.208   3.472 -0.0913  0.3233  0.1049
18800THY    HA466079   8.405   7.224   3.535 -0.8593 -0.7968  0.4989
18800THY    CA566080   8.613   7.157   3.516  0.4815 -0.4412  0.0125
18800THY    CM166081   8.639   7.129   3.660 -0.5354 -0.5972  0.6974
18800THY    HM166082   8.711   7.201   3.701 -0.7181 -0.8632  1.0388
18800THY    HM266083   8.679   7.028   3.661 -1.8878 -1.2542  0.1293
18800THY    HM366084   8.551   7.133   3.726 -0.7577 -0.6871 -1.6875
18800THY    CA666085   8.709   7.130   3.423 -0.4322  0.6262  0.1663
18800THY    HA666086   8.808   7.098   3.453  0.5573  1.2247  3.3619
18801THY      O66087   7.421   4.440   3.357  0.8331  1.1347 -0.7875
18801THY     HO66088   7.369   4.412   3.280  1.7268  0.4215 -0.5477
18801THY    CA166089   7.343   4.504   3.443  0.4998 -0.2977 -0.6975
18801THY    CA266090   7.379   4.582   3.559  0.5733  0.7683  1.0488
18801THY    CP166091   7.531   4.586   3.584 -0.0738  0.6855  0.4557
18801THY    HP166092   7.585   4.495   3.554 -1.5787 -0.0212 -0.2289
18801THY    CP266093   7.552   4.610   3.735 -0.6260  0.0303 -0.4435
18801THY    HP266094   7.525   4.715   3.749 -1.7966 -1.3295 -0.5386
18801THY    HP366095   7.653   4.591   3.772  0.0748  0.1232  2.8809
18801THY    HP466096   7.490   4.541   3.794 -0.1391  1.1677  0.0688
18801THY    CP366097   7.607   4.696   3.511  0.2844  0.2653  0.3765
18801THY    HP566098   7.579   4.703   3.405 -1.6249  0.7344  0.5006
18801THY    HP666099   7.715   4.676   3.511 -0.0753  0.3589 -1.8037
18801THY    HP766100   7.588   4.792   3.559  0.2984  1.2445 -0.0981
18801THY    CA366101   7.280   4.659   3.623  0.7719 -0.1828  0.8731
18801THY    HA366102   7.304   4.732   3.700 -0.6719 -0.4408  1.6591
18801THY    CA466103   7.147   4.634   3.583  0.7263  0.0214 -0.2146
18801THY    HA466104   7.071   4.697   3.629  0.7834 -1.0638  0.6771
18801THY    CA566105   7.110   4.554   3.476 -0.4430 -0.5587 -0.5975
18801THY    CM166106   6.965   4.537   3.434  0.0532 -0.5456 -0.9773
18801THY    HM166107   6.936   4.620   3.368  0.1480  0.0291 -0.4796
18801THY    HM266108   6.897   4.568   3.514  0.0892 -1.2674  1.1954
18801THY    HM366109   6.941   4.441   3.388  2.1706  1.2200 -2.4625
18801THY    CA666110   7.210   4.494   3.405 -0.3685  1.0160  0.1937
18801THY    HA666111   7.178   4.424   3.328  0.5530 -0.2816  1.1589
18802THY      O66112   4.446   7.525   6.737 -0.0867  0.0319 -0.3742
18802THY     HO66113   4.445   7.467   6.659  0.4325 -2.0439  2.1809
18802THY    CA166114   4.337   7.495   6.807 -0.0786 -0.1301  0.0258
18802THY    CA266115   4.329   7.510   6.952 -0.2075 -0.3925  0.6573
18802THY    CP166116   4.440   7.585   7.013  0.2005 -0.9048  0.8541
18802THY    HP166117   4.537   7.557   6.972  0.5081  1.5669 -2.2875
18802THY    CP266118   4.455   7.538   7.165  0.0034 -0.3521  0.4281
18802THY    HP266119   4.552   7.542   7.215  1.4326 -2.9139 -0.3784
18802THY    HP366120   4.433   7.430   7.164  0.8177  2.4906  0.1364
18802THY    HP466121   4.391   7.592   7.236  1.1355  2.0015 -1.1280
18802THY    CP366122   4.413   7.736   7.004 -0.2155  0.4263 -0.6181
18802THY    HP566123   4.443   7.774   6.906  0.3752  0.6265 -0.5619
18802THY    HP666124   4.484   7.794   7.065  0.0337  0.7557 -1.2527
18802THY    HP766125   4.308   7.761   7.026 -0.6157 -0.6591 -1.3032
18802THY    CA366126   4.207   7.462   7.019 -0.4973 -0.0895 -0.6364
18802THY    HA366127   4.192   7.475   7.125  0.1071  0.2898 -2.6226
18802THY    CA466128   4.112   7.395   6.944  0.3126  0.1736  0.2944
18802THY    HA466129   4.021   7.362   6.994  0.7760  0.2846 -0.8862
18802THY    CA566130   4.121   7.385   6.809  0.3733 -0.7948  0.2114
18802THY    CM166131   4.018   7.306   6.737  0.1398 -0.2014  0.3426
18802THY    HM166132   3.947   7.263   6.809 -0.6538  0.7457  3.0675
18802THY    HM266133   4.065   7.229   6.674 -1.4191 -0.3553 -0.5281
18802THY    HM366134   3.957   7.375   6.678 -0.4716  0.5098  0.4298
18802THY    CA666135   4.229   7.437   6.737 -0.2147 -0.2568 -0.1310
18802THY    HA666136   4.237   7.421   6.630  0.7691 -0.1613 -0.3664
18803THY      O66137   4.582   6.917   4.400 -0.9156  0.5689 -0.1220
18803THY     HO66138   4.644   6.858   4.445 -1.3495  1.6682  0.2290
18803THY    CA166139   4.636   6.942   4.276 -0.5372  0.3672 -0.0739
18803THY    CA266140   4.567   6.993   4.174 -0.2619 -0.3229  0.4090
18803THY    CP166141   4.426   7.045   4.192 -0.3484  0.3685 -0.6485
18803THY    HP166142   4.398   7.051   4.298  0.3431  0.4740  3.0374
18803THY    CP266143   4.324   6.960   4.109 -0.0460 -0.7883  0.4354
18803THY    HP266144   4.345   6.982   4.004 -1.7201 -1.3150 -0.3641
18803THY    HP366145   4.217   6.982   4.114 -0.3821 -3.5392 -0.2597
18803THY    HP466146   4.342   6.853   4.128 -0.1867 -0.9168  0.3887
18803THY    CP366147   4.432   7.195   4.148 -0.2973 -0.3310 -0.5229
18803THY    HP566148   4.327   7.227   4.156  0.1034  3.3108  0.3327
18803THY    HP666149   4.463   7.203   4.043 -1.9454 -0.7384  1.4069
18803THY    HP766150   4.498   7.257   4.209 -0.7967  0.1400 -0.4448
18803THY    CA366151   4.629   6.989   4.045 -0.8889 -0.1506  0.7006
18803THY    HA366152   4.575   7.016   3.955 -1.1873 -0.8979 -2.0348
18803THY    CA466153   4.759   6.928   4.032  0.3905  0.0751  0.3528
18803THY    HA466154   4.805   6.915   3.935  1.1344  0.4945 -0.1815
18803THY    CA566155   4.827   6.879   4.141  0.0856 -0.4087  0.0830
18803THY    CM166156   4.971   6.838   4.134 -0.5927  0.4216 -0.2564
18803THY    HM166157   4.995   6.752   4.197  0.1821 -0.2060 -0.5068
18803THY    HM266158   5.031   6.925   4.164 -0.1125  2.0160 -1.1060
18803THY    HM366159   4.999   6.807   4.033 -1.3546  0.7944 -2.3242
18803THY    CA666160   4.766   6.891   4.269 -0.2106 -0.5469 -0.6531
18803THY    HA666161   4.820   6.869   4.361  1.0259 -0.7365  1.3342
18804THY      O66162   2.166   4.409   7.065  0.1630  0.4436  0.0136
18804THY     HO66163   2.259   4.387   7.084  0.5082  0.7457  1.6334
18804THY    CA166164   2.128   4.342   6.958 -0.5754 -0.2196  0.3958
18804THY    CA266165   1.993   4.308   6.939  0.8890 -0.0113 -0.4290
18804THY    CP166166   1.882   4.358   7.030 -0.0603 -0.1566  0.2973
18804THY    HP166167   1.932   4.417   7.108  0.6346 -0.0538 -0.4188
18804THY    CP266168   1.810   4.239   7.097 -0.6286 -0.1285  0.7263
18804THY    HP266169   1.895   4.173   7.122  1.7316 -2.0310  2.8121
18804THY    HP366170   1.754   4.176   7.027 -0.7455 -0.5784  1.3240
18804THY    HP466171   1.745   4.264   7.181  2.1755  2.6079 -0.5436
18804THY    CP366172   1.770   4.442   6.958 -0.3124  0.7100  1.0111
18804THY    HP566173   1.707   4.458   7.046 -2.1546  0.5121 -3.5857
18804THY    HP666174   1.701   4.389   6.892  2.7808 -1.1144 -1.0573
18804THY    HP766175   1.797   4.535   6.907 -1.7322 -3.9725 -0.8594
18804THY    CA366176   1.957   4.228   6.823 -0.5411 -0.2492  0.1601
18804THY    HA366177   1.854   4.200   6.803 -1.1571  2.9446 -0.1755
18804THY    CA466178   2.062   4.188   6.732  0.2013 -0.0846 -0.2487
18804THY    HA466179   2.039   4.122   6.649  1.4467  0.6856 -1.7330
18804THY    CA566180   2.195   4.223   6.755 -0.3339  0.0933 -0.6155
18804THY    CM166181   2.302   4.189   6.662 -0.3209 -0.1369  0.3481
18804THY    HM166182   2.363   4.110   6.707  0.1692 -0.1824  0.6942
18804THY    HM266183   2.356   4.283   6.645  1.1079  3.9410  0.4392
18804THY    HM366184   2.263   4.139   6.572  3.3205 -0.5604 -2.1061
18804THY    CA666185   2.228   4.291   6.877 -0.3971 -0.2168 -0.4391
18804THY    HA666186   2.330   4.318   6.900 -1.1183  0.0496  2.3819
18805THY      O66187   7.529   6.733   3.840 -0.2181  0.8134 -0.0855
18805THY     HO66188   7.475   6.811   3.863 -0.3746  0.4977 -0.0962
18805THY    CA166189   7.658   6.768   3.862 -0.1981  0.0228 -0.2021
18805THY    CA266190   7.771   6.686   3.825 -0.0547 -0.4936 -0.2220
18805THY    CP166191   7.754   6.555   3.755 -0.0246  0.1492 -0.3714
18805THY    HP166192   7.649   6.538   3.731  0.1152 -1.9481  1.3037
18805THY    CP266193   7.820   6.439   3.826 -0.1723  0.4448 -0.1216
18805THY    HP266194   7.815   6.443   3.936 -0.9100  0.4358 -0.5151
18805THY    HP366195   7.926   6.443   3.802 -0.1801  0.3097 -0.6662
18805THY    HP466196   7.768   6.349   3.792 -0.5121  1.1147 -0.1918
18805THY    CP366197   7.830   6.567   3.618 -0.7894  0.0826  0.4299
18805THY    HP566198   7.787   6.630   3.540 -0.3572 -2.5844 -2.3295
18805THY    HP666199   7.834   6.469   3.568 -0.5130  0.1330  0.4159
18805THY    HP766200   7.936   6.586   3.637 -0.5031  1.3705 -1.9694
18805THY    CA366201   7.894   6.723   3.883 -0.0386 -0.6956  0.5483
18805THY    HA366202   7.976   6.652   3.886 -0.5014  0.1609  0.0375
18805THY    CA466203   7.900   6.839   3.962  0.0237 -0.5340 -0.0173
18805THY    HA466204   7.998   6.859   4.004  0.4328 -1.9222  1.0372
18805THY    CA566205   7.790   6.923   3.991 -0.5824  0.0360  0.0128
18805THY    CM166206   7.801   7.042   4.086  0.2351 -0.2163  0.4043
18805THY    HM166207   7.739   7.126   4.053 -0.4733 -0.1143 -0.0758
18805THY    HM266208   7.905   7.075   4.101 -0.1651 -0.6701  1.9514
18805THY    HM366209   7.765   7.008   4.183  1.3740 -0.4960 -1.7688
18805THY    CA666210   7.667   6.885   3.932 -0.0184 -0.2766 -0.3945
18805THY    HA666211   7.578   6.943   3.956 -0.5825 -0.4909 -1.1414
18806THY      O66212   1.097   2.161   2.330 -0.2619  0.2112  0.5557
18806THY     HO66213   1.193   2.169   2.338  0.0397 -2.9230  1.1487
18806THY    CA166214   1.066   2.027   2.296  0.4748  0.4755 -0.3384
18806THY    CA266215   0.946   1.987   2.225 -0.5169  0.2776  0.0891
18806THY    CP166216   0.847   2.087   2.163 -0.3264 -0.4324 -0.3301
18806THY    HP166217   0.893   2.185   2.181  0.4969 -0.2422 -0.7463
18806THY    CP266218   0.714   2.094   2.240 -0.1439  0.0277 -0.0150
18806THY    HP266219   0.666   1.996   2.232 -1.1400  2.1214  0.2429
18806THY    HP366220   0.641   2.166   2.201  2.2029  0.7257  2.9482
18806THY    HP466221   0.715   2.127   2.344 -2.1426  0.3086 -0.6633
18806THY    CP366222   0.832   2.069   2.007 -0.1698  0.2433 -0.1388
18806THY    HP566223   0.772   1.979   1.987 -0.0403  0.0691 -0.1873
18806THY    HP666224   0.930   2.065   1.957 -0.0126  0.5116  0.2634
18806THY    HP766225   0.792   2.161   1.964  2.1820  2.2261  1.9856
18806THY    CA366226   0.926   1.846   2.207 -0.7211 -0.3954  0.2414
18806THY    HA366227   0.831   1.805   2.173 -0.8062  0.6278 -0.4386
18806THY    CA466228   1.014   1.752   2.267  0.6495 -0.2897 -0.0826
18806THY    HA466229   1.001   1.645   2.268  2.0193  0.3361 -0.2605
18806THY    CA566230   1.118   1.789   2.342  0.0946 -0.3482 -0.0446
18806THY    CM166231   1.204   1.683   2.410 -1.0774  0.0930 -0.0776
18806THY    HM166232   1.140   1.599   2.438  0.8488  0.4566 -1.4954
18806THY    HM266233   1.263   1.715   2.497  0.1947 -0.5331 -0.6521
18806THY    HM366234   1.281   1.651   2.339 -0.7482 -0.1579  1.2109
18806THY    CA666235   1.141   1.929   2.359  0.3667 -0.6934  0.0161
18806THY    HA666236   1.212   1.946   2.439 -1.7277  1.5565 -1.1675
18807THY      O66237   4.547   2.960   3.209 -0.2468  0.0135 -0.5974
18807THY     HO66238   4.549   2.967   3.306 -2.5416  0.0029  2.7464
18807THY    CA166239   4.423   2.918   3.174  0.3250  0.1510  0.0188
18807THY    CA266240   4.378   2.919   3.044 -0.0570 -0.0095  0.0192
18807THY    CP166241   4.460   2.967   2.924  0.1902 -0.0572 -0.1941
18807THY    HP166242   4.558   2.994   2.965  0.5253 -1.3490  0.6682
18807THY    CP266243   4.400   3.099   2.869  0.0818  0.1210  0.6519
18807THY    HP266244   4.452   3.136   2.779 -0.2813 -0.3029  0.1460
18807THY    HP366245   4.402   3.173   2.949 -0.3395  1.0061 -0.2749
18807THY    HP466246   4.298   3.071   2.841  0.4911 -0.5916 -0.1758
18807THY    CP366247   4.477   2.868   2.812  0.1340 -0.5500 -0.2436
18807THY    HP566248   4.560   2.911   2.755 -0.7192 -1.2251  0.5348
18807THY    HP666249   4.387   2.868   2.749 -1.3348  1.3862  2.0490
18807THY    HP766250   4.483   2.762   2.839 -1.4027 -1.5934 -0.6316
18807THY    CA366251   4.248   2.869   3.021  0.7254  1.0207  0.3264
18807THY    HA366252   4.204   2.868   2.922 -0.4470  1.5202 -0.7264
18807THY    CA466253   4.167   2.817   3.126 -0.4638 -0.5917  0.1896
18807THY    HA466254   4.066   2.784   3.105  0.2081 -3.6114 -0.2708
18807THY    CA566255   4.215   2.827   3.252 -0.2339 -0.6736 -0.9210
18807THY    CM166256   4.130   2.809   3.372  0.0783 -0.4673 -0.8435
18807THY    HM166257   4.029   2.780   3.339  0.2149 -2.1032  0.4364
18807THY    HM266258   4.134   2.894   3.441 -0.1000 -1.8876  0.3513
18807THY    HM366259   4.176   2.728   3.430 -0.6101  0.5760 -0.5143
18807THY    CA666260   4.346   2.879   3.276 -0.0403  1.1955  0.1968
18807THY    HA666261   4.381   2.868   3.378  0.5573  0.8534 -1.3572
18808THY      O66262   9.013   2.480   7.505  0.1146  0.0217  0.3218
18808THY     HO66263   9.048   2.526   7.582 -1.5148  1.8913 -1.3476
18808THY    CA166264   8.952   2.367   7.554 -0.4798 -0.1841  0.1496
18808THY    CA266265   8.918   2.259   7.462  0.4735 -0.0152 -0.5275
18808THY    CP166266   8.931   2.278   7.313 -0.5714  0.4004  0.0890
18808THY    HP166267   8.946   2.384   7.291  2.1174  0.8882 -0.1147
18808THY    CP266268   8.815   2.231   7.237  0.0573  0.5959  0.0488
18808THY    HP266269   8.733   2.285   7.286 -0.2906 -0.1064  0.1674
18808THY    HP366270   8.803   2.123   7.223  1.9285  0.9616 -0.2389
18808THY    HP466271   8.817   2.272   7.136  0.7494  0.5111 -0.1777
18808THY    CP366272   9.056   2.202   7.257  0.2611 -0.2828  0.5258
18808THY    HP566273   9.082   2.244   7.159 -0.5102 -0.7489 -0.0491
18808THY    HP666274   9.016   2.103   7.233 -3.3180  0.4971  1.6443
18808THY    HP766275   9.151   2.202   7.312  0.7146 -1.0311 -0.4169
18808THY    CA366276   8.854   2.148   7.516  0.3830  0.5966  0.7549
18808THY    HA366277   8.814   2.069   7.453  0.6912  0.6087  0.5895
18808THY    CA466278   8.827   2.142   7.654  0.0345 -0.0494 -0.0324
18808THY    HA466279   8.763   2.061   7.688 -2.8491 -0.4997  1.9252
18808THY    CA566280   8.860   2.249   7.745  0.3514  0.5706  0.0946
18808THY    CM166281   8.793   2.254   7.876  0.3886 -0.0059  0.4146
18808THY    HM166282   8.696   2.304   7.864 -0.2609 -1.0149 -1.0288
18808THY    HM266283   8.858   2.297   7.953  0.2180  1.2274 -1.4267
18808THY    HM366284   8.779   2.154   7.917 -3.3812  0.8831  1.1609
18808THY    CA666285   8.926   2.365   7.693  0.0433 -0.3648 -0.1645
18808THY    HA666286   8.954   2.454   7.748 -1.0715  0.5223 -0.3342
18809THY      O66287   8.434   3.142   5.189 -0.5028 -0.3840 -0.0135
18809THY     HO66288   8.357   3.115   5.137  1.1347 -1.2686 -3.5433
18809THY    CA166289   8.438   3.050   5.291  0.2433 -0.5044  0.5711
18809THY    CA266290   8.545   3.042   5.375 -0.4074 -0.6421 -0.6234
18809THY    CP166291   8.658   3.145   5.358  0.2052  0.3527 -0.1886
18809THY    HP166292   8.670   3.180   5.255  1.8699  0.0740 -1.4641
18809THY    CP266293   8.785   3.085   5.408 -0.0443 -0.3255 -0.0407
18809THY    HP266294   8.863   3.154   5.375  0.2917  0.4095 -0.0601
18809THY    HP366295   8.807   2.986   5.365 -0.6018  0.2729 -0.4313
18809THY    HP466296   8.799   3.081   5.517  0.8907 -0.3780  1.1107
18809THY    CP366297   8.644   3.272   5.442  0.2318  0.4694  0.4917
18809THY    HP566298   8.711   3.353   5.412  0.0357 -2.1671 -0.2422
18809THY    HP666299   8.659   3.253   5.549  1.9108  0.2191  0.2150
18809THY    HP766300   8.542   3.310   5.435  0.4440  3.0585  1.7440
18809THY    CA366301   8.543   2.952   5.488 -0.7786 -0.1719 -0.2198
18809THY    HA366302   8.630   2.956   5.554  0.1176 -1.3814  2.7272
18809THY    CA466303   8.440   2.859   5.500  0.2319  0.3075  0.1379
18809THY    HA466304   8.446   2.784   5.577  2.2119 -1.1690 -1.3274
18809THY    CA566305   8.333   2.866   5.413  0.0653  0.9095 -0.6229
18809THY    CM166306   8.208   2.784   5.426 -0.3096 -0.4346  0.2330
18809THY    HM166307   8.117   2.836   5.392 -0.2269 -1.4575 -0.2748
18809THY    HM266308   8.196   2.748   5.529 -0.0676 -0.7156 -0.6768
18809THY    HM366309   8.219   2.707   5.349  2.4330 -0.1584  0.2687
18809THY    CA666310   8.334   2.962   5.310  0.2395  0.7141  0.1368
18809THY    HA666311   8.250   2.971   5.242  1.7351 -0.8789  3.3316
18810THY      O66312   1.407   4.907   5.204 -0.1444 -0.2507  0.3903
18810THY     HO66313   1.486   4.943   5.160  1.7004  1.2885 -1.5674
18810THY    CA166314   1.299   4.976   5.174 -0.5508 -0.2009  0.6469
18810THY    CA266315   1.174   4.925   5.216 -0.2278  0.5082 -0.0542
18810THY    CP166316   1.166   4.793   5.289  0.0262  0.4826  0.1344
18810THY    HP166317   1.236   4.716   5.253 -1.0111  0.7629 -0.9704
18810THY    CP266318   1.029   4.717   5.273 -0.1047 -0.2302  0.1846
18810THY    HP266319   0.951   4.746   5.344 -0.9478 -0.9704 -0.2332
18810THY    HP366320   1.046   4.612   5.298  0.7287  0.7637  0.5399
18810THY    HP466321   0.999   4.724   5.168 -2.2475  0.2238 -1.2756
18810THY    CP366322   1.200   4.800   5.439  0.3290  0.9022  0.0826
18810THY    HP566323   1.198   4.698   5.479  2.0099  2.2861  0.5544
18810THY    HP666324   1.131   4.873   5.482  1.2223  0.9794  0.9072
18810THY    HP766325   1.303   4.827   5.464  1.4029 -2.5105 -0.3498
18810THY    CA366326   1.060   4.997   5.187 -0.6698 -0.5486 -0.8994
18810THY    HA366327   0.961   4.964   5.217 -0.9191  1.5510  1.5259
18810THY    CA466328   1.068   5.122   5.127 -0.2819 -0.1972 -0.1677
18810THY    HA466329   0.979   5.184   5.117 -0.4753  1.6540 -0.1045
18810THY    CA566330   1.190   5.165   5.075  0.3442 -0.3478 -0.4797
18810THY    CM166331   1.199   5.296   4.995  0.6610 -0.3401 -0.0779
18810THY    HM166332   1.143   5.379   5.040 -0.5893 -0.8900 -0.6083
18810THY    HM266333   1.161   5.284   4.893 -2.4780  0.3986  2.3550
18810THY    HM366334   1.305   5.324   4.990  0.9995 -0.9906 -1.3861
18810THY    CA666335   1.310   5.089   5.103  0.5703  0.0016  0.1891
18810THY    HA666336   1.410   5.124   5.076 -0.2752 -0.1983  2.6298
18811THY      O66337   8.786   4.916   5.748 -0.0223  0.2833  0.0927
18811THY     HO66338   8.880   4.935   5.767 -0.1753 -0.0600  1.2756
18811THY    CA166339   8.762   4.935   5.620 -0.0478  0.5833 -0.7843
18811THY    CA266340   8.629   4.944   5.574  0.5572  0.7049 -0.4985
18811THY    CP166341   8.514   4.949   5.682  0.2627  0.6056  0.8425
18811THY    HP166342   8.531   4.905   5.781 -1.8787  0.5928 -0.1491
18811THY    CP266343   8.385   4.878   5.634 -0.6565  0.3604  0.3270
18811THY    HP266344   8.339   4.933   5.551 -0.1787  0.2590  0.5802
18811THY    HP366345   8.316   4.885   5.719 -1.5318 -0.1397 -1.5518
18811THY    HP466346   8.393   4.769   5.625 -1.7544  0.1762  0.2468
18811THY    CP366347   8.481   5.093   5.723 -0.2922 -0.1051 -0.5413
18811THY    HP566348   8.552   5.146   5.788 -2.2837  0.2966  1.7976
18811THY    HP666349   8.392   5.092   5.785  0.6137  1.2953  0.9282
18811THY    HP766350   8.463   5.158   5.636 -3.8703  0.1327 -1.0260
18811THY    CA366351   8.607   4.951   5.434  0.6630 -0.1395 -0.2752
18811THY    HA366352   8.508   4.968   5.393  0.7845  0.0900  1.1403
18811THY    CA466353   8.711   4.958   5.346  0.2442 -0.1263  0.0126
18811THY    HA466354   8.693   4.969   5.239 -1.8591  0.3373  1.8286
18811THY    CA566355   8.842   4.946   5.395 -0.3435  0.3744  0.3614
18811THY    CM166356   8.957   4.945   5.292 -0.2781  0.1388  0.5406
18811THY    HM166357   8.917   4.915   5.195  1.2499 -0.1352 -0.8126
18811THY    HM266358   9.032   4.867   5.314 -1.0082 -1.2208 -0.5825
18811THY    HM366359   9.010   5.041   5.289  0.7531  2.2209  0.1008
18811THY    CA666360   8.872   4.930   5.532  0.6015 -0.5464 -0.5523
18811THY    HA666361   8.971   4.897   5.562  0.1991 -1.0736 -2.3318
18812THY      O66362   2.093   6.110   7.369 -0.0527  0.5995 -0.0546
18812THY     HO66363   2.001   6.142   7.377  0.0860 -2.3324  1.4715
18812THY    CA166364   2.105   6.079   7.236 -0.2282  0.1128 -0.0143
18812THY    CA266365   2.227   6.067   7.173  0.2853 -0.3359  0.8945
18812THY    CP166366   2.358   6.101   7.252 -0.2104 -0.2913 -0.4782
18812THY    HP166367   2.341   6.133   7.356 -0.1286 -0.8063  1.3483
18812THY    CP266368   2.427   6.224   7.185  0.9280  0.4342  0.2075
18812THY    HP266369   2.524   6.240   7.233  0.4873  0.9442  1.5678
18812THY    HP366370   2.355   6.305   7.201  0.7049  1.4027 -0.1695
18812THY    HP466371   2.441   6.209   7.078  1.0874  0.5358 -0.4121
18812THY    CP366372   2.457   5.978   7.253  0.3517 -0.2844 -0.1924
18812THY    HP566373   2.537   5.985   7.328 -0.3662  0.7341 -2.1385
18812THY    HP666374   2.508   5.948   7.161 -1.2574 -0.5729 -2.2446
18812THY    HP766375   2.389   5.898   7.286 -0.2866 -2.0765 -0.4363
18812THY    CA366376   2.224   6.025   7.036 -0.0474 -0.1546 -0.1141
18812THY    HA366377   2.319   6.023   6.984 -1.7385 -3.6166  0.5089
18812THY    CA466378   2.109   5.982   6.965  0.4003 -0.3895 -0.7021
18812THY    HA466379   2.110   5.941   6.864 -3.1020 -0.9127  0.1640
18812THY    CA566380   1.983   6.001   7.033  0.0005  0.2861 -0.0508
18812THY    CM166381   1.862   5.940   6.971 -0.4412  0.4717 -0.5470
18812THY    HM166382   1.769   5.980   7.012 -0.8419 -2.4330  1.8429
18812THY    HM266383   1.874   5.833   6.991 -2.1716 -0.9119 -1.0445
18812THY    HM366384   1.865   5.956   6.862  0.5424  0.5356 -0.2422
18812THY    CA666385   1.988   6.054   7.165  1.0090 -0.3792 -0.1572
18812THY    HA666386   1.891   6.060   7.213  0.7724 -0.5232 -2.1783
18813THY      O66387   8.876   5.396   5.857  0.5229  0.3942  0.0343
18813THY     HO66388   8.930   5.330   5.903  1.4633  1.0438  1.2055
18813THY    CA166389   8.839   5.481   5.951 -0.2141 -0.2468  0.0836
18813THY    CA266390   8.762   5.596   5.934 -0.6192  0.1294 -0.6596
18813THY    CP166391   8.714   5.628   5.785 -0.2183  0.1494 -0.1138
18813THY    HP166392   8.786   5.584   5.715 -0.0557  0.2431  0.0052
18813THY    CP266393   8.712   5.782   5.773  0.3734  0.6291  0.2138
18813THY    HP266394   8.813   5.808   5.807  1.5770 -1.9748 -0.7320
18813THY    HP366395   8.631   5.828   5.832 -1.5457 -0.8628 -1.0762
18813THY    HP466396   8.709   5.820   5.670  1.9286  0.5966  0.2967
18813THY    CP366397   8.580   5.565   5.745 -0.1684 -0.4765  0.0073
18813THY    HP566398   8.508   5.617   5.809  1.0149 -0.6990  2.0575
18813THY    HP666399   8.578   5.456   5.743  1.9699 -0.8368 -0.0744
18813THY    HP766400   8.561   5.593   5.640  0.7839 -0.9563 -1.0893
18813THY    CA366401   8.738   5.684   6.047  0.3249  0.3239  0.1660
18813THY    HA366402   8.688   5.779   6.033  1.3482  0.6038  0.7662
18813THY    CA466403   8.773   5.639   6.171 -0.8072 -0.5761 -0.2602
18813THY    HA466404   8.748   5.697   6.259 -2.3030  0.3321 -2.1577
18813THY    CA566405   8.855   5.527   6.189 -0.1638  0.4738 -0.6091
18813THY    CM166406   8.907   5.498   6.331 -0.0789 -0.1132 -0.9221
18813THY    HM166407   8.994   5.563   6.344 -1.4466 -2.7807  1.7029
18813THY    HM266408   8.938   5.394   6.347  0.5001  1.5422 -0.5166
18813THY    HM366409   8.829   5.498   6.408  0.5608  0.5986 -2.8269
18813THY    CA666410   8.886   5.450   6.081  0.3386  0.4033 -0.1905
18813THY    HA666411   8.951   5.363   6.082  0.2487  0.6111 -0.2573
18814THY      O66412   4.389   6.190   5.042  0.4380 -0.2139 -0.5887
18814THY     HO66413   4.480   6.223   5.053 -0.0168 -0.2443  0.7234
18814THY    CA166414   4.374   6.066   5.099 -0.5716 -0.1106 -0.1403
18814THY    CA266415   4.263   5.982   5.072  0.0782 -0.3111 -0.2331
18814THY    CP166416   4.153   6.031   4.981 -0.9109 -0.5869 -0.3373
18814THY    HP166417   4.136   6.139   4.986  3.4831 -1.7782  0.6006
18814THY    CP266418   4.012   5.969   5.012 -0.1824  0.3064  0.3504
18814THY    HP266419   3.931   6.018   4.958  1.9187 -3.2947  0.1616
18814THY    HP366420   3.991   5.957   5.119 -1.5158  0.3163  2.3060
18814THY    HP466421   4.013   5.867   4.973  0.5735 -3.0181  1.5088
18814THY    CP366422   4.192   5.994   4.843  0.1561 -0.1313  0.4522
18814THY    HP566423   4.109   6.018   4.775 -0.1902  0.0468 -0.2383
18814THY    HP666424   4.215   5.888   4.825  0.7048 -0.7206  0.6629
18814THY    HP766425   4.284   6.041   4.806 -0.3431 -0.5690  1.1077
18814THY    CA366426   4.251   5.859   5.139  0.4079  0.0964  0.2451
18814THY    HA366427   4.173   5.788   5.115 -0.7410 -0.2525  1.5767
18814THY    CA466428   4.344   5.829   5.238 -0.1943  0.2303  0.0830
18814THY    HA466429   4.322   5.743   5.302  0.0592  1.6249  1.0228
18814THY    CA566430   4.457   5.913   5.260  0.1003  0.1278  1.2723
18814THY    CM166431   4.553   5.874   5.368 -0.7343  0.0303 -0.2342
18814THY    HM166432   4.517   5.785   5.421 -0.0337  2.2218  0.7129
18814THY    HM266433   4.563   5.951   5.445  2.5196 -1.1523  0.7317
18814THY    HM366434   4.654   5.874   5.324 -1.4728 -1.7295 -0.6621
18814THY    CA666435   4.474   6.024   5.185  0.1543 -0.2046  0.1778
18814THY    HA666436   4.561   6.085   5.209  0.2170  1.0317 -0.3792
18815THY      O66437   8.096   4.735   2.867  0.5282 -0.4447 -0.5689
18815THY     HO66438   8.139   4.692   2.792  2.6823  1.2025 -1.4568
18815THY    CA166439   8.098   4.863   2.833 -0.7312 -0.6716 -0.7388
18815THY    CA266440   8.108   4.962   2.930  0.6245  0.2681  0.1973
18815THY    CP166441   8.113   4.927   3.080  0.0373  0.0942  0.8451
18815THY    HP166442   8.076   4.824   3.092  1.1394  1.1842  0.5521
18815THY    CP266443   8.032   5.014   3.175 -0.2376 -0.3104 -0.3150
18815THY    HP266444   8.026   4.973   3.277 -3.4993 -0.6738 -1.0986
18815THY    HP366445   7.925   5.021   3.148 -0.6497  1.4057  0.5336
18815THY    HP466446   8.082   5.111   3.181 -1.7658 -0.5858  0.5279
18815THY    CP366447   8.261   4.928   3.121  0.1668 -0.5072  0.6458
18815THY    HP566448   8.311   4.854   3.058 -0.5151 -0.0817 -0.1936
18815THY    HP666449   8.269   4.908   3.229 -1.8841 -0.4497 -0.0601
18815THY    HP766450   8.303   5.027   3.098  0.5775  0.4225  0.7073
18815THY    CA366451   8.116   5.097   2.880 -0.0711  0.7355  0.0824
18815THY    HA366452   8.134   5.170   2.958 -0.5640 -0.8212  1.9696
18815THY    CA466453   8.105   5.128   2.744  0.5572  0.0714 -0.1106
18815THY    HA466454   8.104   5.229   2.706 -0.5486 -3.0275 -1.1613
18815THY    CA566455   8.091   5.028   2.646  0.0581 -0.4171 -0.6538
18815THY    CM166456   8.086   5.052   2.506 -0.2028  0.6962 -0.2778
18815THY    HM166457   8.052   4.969   2.443  0.1974  1.7686 -1.2787
18815THY    HM266458   8.189   5.077   2.480  0.0048  0.1783 -1.5819
18815THY    HM366459   8.019   5.137   2.485 -0.6984 -1.6262 -1.1707
18815THY    CA666460   8.086   4.894   2.696 -0.1827  0.3630 -0.4646
18815THY    HA666461   8.069   4.810   2.629  0.0354  1.2534 -1.2310
18816THY      O66462   5.070   1.605   5.860 -0.2624 -0.6338 -0.3016
18816THY     HO66463   5.009   1.679   5.875  0.4273  2.1612 -0.1792
18816THY    CA166464   5.027   1.504   5.939 -0.5752  0.8088  0.2920
18816THY    CA266465   5.096   1.377   5.941 -0.1566 -0.4421 -0.1545
18816THY    CP166466   5.206   1.345   5.833  0.3642  0.0129 -0.1817
18816THY    HP166467   5.240   1.440   5.788  0.7683  1.4275  0.3786
18816THY    CP266468   5.140   1.252   5.725 -0.4622  0.0172 -0.8616
18816THY    HP266469   5.212   1.221   5.647  2.9838  3.2427 -1.7311
18816THY    HP366470   5.047   1.295   5.688 -0.7143  2.0101  0.4162
18816THY    HP466471   5.116   1.160   5.780 -0.6213 -0.3812 -1.0596
18816THY    CP366472   5.324   1.276   5.885 -0.2388  0.8714  0.3449
18816THY    HP566473   5.388   1.257   5.798 -1.0940  0.3524 -0.2052
18816THY    HP666474   5.298   1.179   5.928 -1.0954  0.4280  0.3758
18816THY    HP766475   5.392   1.329   5.953  0.7480  0.7245 -0.6806
18816THY    CA366476   5.038   1.275   6.021 -0.0144  0.6445  0.0091
18816THY    HA366477   5.073   1.173   6.008  2.5429  0.6314  0.8002
18816THY    CA466478   4.932   1.306   6.112  0.3742  0.1316 -0.3912
18816THY    HA466479   4.885   1.222   6.162 -1.9465 -3.1563 -1.2696
18816THY    CA566480   4.889   1.438   6.125 -0.1315 -0.0269  0.2509
18816THY    CM166481   4.772   1.473   6.212 -0.3445 -0.2848 -0.8419
18816THY    HM166482   4.725   1.570   6.191  0.1498  0.9617 -0.3055
18816THY    HM266483   4.793   1.474   6.320 -1.2836 -0.0925 -0.9056
18816THY    HM366484   4.677   1.424   6.191 -0.3058 -0.4502 -0.8488
18816THY    CA666485   4.931   1.530   6.031  1.2403 -0.5993  0.3341
18816THY    HA666486   4.885   1.628   6.038 -2.8872  0.1996 -1.4468
18817THY      O66487   8.640   7.835   4.268 -0.1074  0.7846 -0.4646
18817THY     HO66488   8.658   7.808   4.360  0.8544  0.1733 -2.0729
18817THY    CA166489   8.752   7.824   4.191 -0.3159  0.9633  0.1684
18817THY    CA266490   8.787   7.922   4.097  0.0720  0.5309 -0.1534
18817THY    CP166491   8.699   8.038   4.060 -0.2100 -0.2286 -0.0370
18817THY    HP166492   8.604   8.039   4.115  0.7116  1.4912 -1.4044
18817THY    CP266493   8.671   8.038   3.908  0.6342  0.0973  0.0925
18817THY    HP266494   8.610   7.948   3.894  1.5865 -0.0364 -0.5397
18817THY    HP366495   8.750   8.030   3.833  0.5600 -0.3835  2.9282
18817THY    HP466496   8.605   8.117   3.868 -1.4195 -0.8667 -1.9945
18817THY    CP366497   8.762   8.167   4.099  0.5022  0.5837  0.1555
18817THY    HP566498   8.769   8.179   4.208  2.4538  0.6564 -1.1633
18817THY    HP666499   8.696   8.246   4.061  1.8337 -1.3641  0.4067
18817THY    HP766500   8.856   8.188   4.046 -0.3520 -1.5568 -1.1197
18817THY    CA366501   8.903   7.909   4.022 -0.4848  0.3954 -0.2893
18817THY    HA366502   8.929   7.992   3.957  1.0731  1.9400  0.4979
18817THY    CA466503   8.980   7.790   4.047 -0.1799  0.2529  0.3350
18817THY    HA466504   9.075   7.775   3.998 -0.1144  0.5105 -0.1128
18817THY    CA566505   8.942   7.695   4.136  0.1549  0.4421  0.0086
18817THY    CM166506   9.035   7.581   4.162  0.6839  0.1655 -0.2308
18817THY    HM166507   9.139   7.589   4.127  0.3851 -0.4913  1.1338
18817THY    HM266508   8.997   7.495   4.105 -1.0390  1.7581 -0.5846
18817THY    HM366509   9.009   7.542   4.260 -2.5278 -0.4016  0.1940
18817THY    CA666510   8.827   7.708   4.208 -0.0052  0.0768 -0.6256
18817THY    HA666511   8.785   7.631   4.271 -0.4005  0.9198  0.2522
18818THY      O66512   6.928   9.098   2.317 -0.0558 -0.1302 -0.6817
18818THY     HO66513   6.852   9.157   2.332 -0.2605  0.0533 -0.9862
18818THY    CA166514   6.997   9.155   2.217 -0.2567 -0.1657 -0.2918
18818THY    CA266515   7.114   9.087   2.171  0.4339  0.3720  0.1328
18818THY    CP166516   7.173   8.964   2.238  0.0111  0.5517 -0.0301
18818THY    HP166517   7.105   8.914   2.307  0.4410  0.7995 -0.2771
18818THY    CP266518   7.297   8.999   2.319 -0.1104  0.2150  0.4412
18818THY    HP266519   7.322   8.909   2.376 -0.0339  1.0514  0.9791
18818THY    HP366520   7.271   9.082   2.386  0.6690  0.1380  0.7542
18818THY    HP466521   7.378   9.042   2.259  0.4171  0.3301 -0.3626
18818THY    CP366522   7.208   8.849   2.137 -0.0027  0.1683 -0.2559
18818THY    HP566523   7.122   8.841   2.069  0.4194 -0.4720  0.5320
18818THY    HP666524   7.234   8.751   2.181  0.1962 -0.4403 -0.4785
18818THY    HP766525   7.299   8.881   2.086  0.3080  0.8935  0.0556
18818THY    CA366526   7.186   9.138   2.063 -0.1890 -0.4654 -0.6022
18818THY    HA366527   7.289   9.108   2.043  0.3856  0.0791  0.9345
18818THY    CA466528   7.131   9.242   1.991  0.2039  0.3282  0.2232
18818THY    HA466529   7.175   9.271   1.896 -1.1207 -0.4886 -0.3616
18818THY    CA566530   7.013   9.301   2.032  0.3679 -0.3145 -1.3240
18818THY    CM166531   6.944   9.401   1.937  0.8561  0.3562  0.5335
18818THY    HM166532   6.939   9.358   1.836  0.6817  0.7565 -0.4290
18818THY    HM266533   6.998   9.495   1.924  1.1137 -0.8292  0.2451
18818THY    HM366534   6.844   9.434   1.967  1.3858  0.9085  1.6911
18818THY    CA666535   6.947   9.265   2.146 -0.1417 -0.3495  0.4810
18818THY    HA666536   6.849   9.302   2.176 -1.2528  0.4340 -2.7622
18819THY      O66537   6.352   5.108   3.674  0.1525 -0.1436  0.1416
18819THY     HO66538   6.274   5.061   3.707 -0.4494 -0.3421  0.9722
18819THY    CA166539   6.328   5.160   3.553 -0.0695  0.2426 -0.1229
18819THY    CA266540   6.427   5.213   3.478 -0.3051  0.5418 -0.0041
18819THY    CP166541   6.575   5.240   3.540  0.2537  0.0335  0.3056
18819THY    HP166542   6.581   5.211   3.645  0.0276 -0.0089  0.0998
18819THY    CP266543   6.607   5.385   3.555  0.2643  0.2766  0.4842
18819THY    HP266544   6.540   5.429   3.629 -2.8171 -1.8517 -0.3454
18819THY    HP366545   6.580   5.442   3.465  0.9864  0.8577  1.7996
18819THY    HP466546   6.713   5.396   3.581  0.7927 -0.7385 -1.6546
18819THY    CP366547   6.677   5.165   3.455  0.1389 -0.5521 -0.2786
18819THY    HP566548   6.623   5.074   3.424 -2.0675  0.4265  0.6228
18819THY    HP666549   6.764   5.134   3.512 -0.4480 -0.0752 -1.0971
18819THY    HP766550   6.710   5.211   3.361  1.7443 -0.6243 -1.5101
18819THY    CA366551   6.400   5.252   3.346  0.2764  0.3671  0.0875
18819THY    HA366552   6.478   5.288   3.280  0.3091  0.0373 -0.5743
18819THY    CA466553   6.266   5.243   3.297 -0.3738  1.1985  0.0875
18819THY    HA466554   6.236   5.279   3.199 -2.2514  1.5927 -0.3178
18819THY    CA566555   6.165   5.195   3.374  0.3377  0.7623  0.9531
18819THY    CM166556   6.025   5.185   3.312  0.0973  0.0567  0.4318
18819THY    HM166557   5.955   5.155   3.390  0.0603 -1.1488 -3.0323
18819THY    HM266558   6.018   5.107   3.235 -1.3688  1.5048 -0.9237
18819THY    HM366559   5.985   5.278   3.269 -2.5377 -0.8977 -1.0336
18819THY    CA666560   6.197   5.156   3.506  0.2638  0.1101 -0.1112
18819THY    HA666561   6.119   5.115   3.570  2.0841  3.5675  1.3652
18820THY      O66562   2.924   3.139   3.452  0.4969 -0.2958  0.5618
18820THY     HO66563   2.915   3.064   3.514  4.7893  0.9125  0.7820
18820THY    CA166564   2.914   3.250   3.526 -0.6307 -0.4439 -0.6187
18820THY    CA266565   2.938   3.374   3.458  0.0772 -0.0665 -0.6626
18820THY    CP166566   2.975   3.391   3.309  0.0162  0.5533  0.2613
18820THY    HP166567   2.990   3.292   3.264 -2.1325 -0.6878  0.4241
18820THY    CP266568   3.092   3.486   3.291  0.6077  0.2544  0.4446
18820THY    HP266569   3.141   3.461   3.196  1.5201  0.4585  1.4106
18820THY    HP366570   3.160   3.476   3.376  0.5333  0.1583 -1.3325
18820THY    HP466571   3.070   3.593   3.292 -0.8902  0.7954  0.1649
18820THY    CP366572   2.852   3.452   3.231  0.3360 -0.3531  0.0699
18820THY    HP566573   2.865   3.481   3.127  1.9691 -0.3640 -0.6187
18820THY    HP666574   2.817   3.539   3.288  2.0380 -0.3021  0.7573
18820THY    HP766575   2.766   3.383   3.226 -0.2015 -0.7835  0.7553
18820THY    CA366576   2.921   3.484   3.541 -0.7109  0.9405  0.2233
18820THY    HA366577   2.934   3.583   3.497 -0.0573  1.1243  0.2226
18820THY    CA466578   2.884   3.478   3.676  0.5631 -0.4119 -0.4005
18820THY    HA466579   2.879   3.567   3.739 -1.2534 -1.2627  0.1676
18820THY    CA566580   2.858   3.355   3.733  0.9078 -0.6890 -0.4471
18820THY    CM166581   2.822   3.346   3.878 -0.6821  0.4278 -0.0561
18820THY    HM166582   2.893   3.419   3.920 -1.5022 -2.0190  2.3186
18820THY    HM266583   2.832   3.245   3.920  1.0485  1.9850  0.6982
18820THY    HM366584   2.718   3.380   3.884 -1.1654 -1.3716 -1.1000
18820THY    CA666585   2.880   3.243   3.657  0.6719  0.0739  0.2858
18820THY    HA666586   2.865   3.149   3.710 -1.2478  3.3923  2.2399
18821THY      O66587   5.786   0.803   3.987  0.0266  0.8360  0.0146
18821THY     HO66588   5.741   0.889   3.993  1.5033  1.5327  0.7719
18821THY    CA166589   5.720   0.735   3.899 -0.2695  0.3185 -0.5249
18821THY    CA266590   5.783   0.622   3.837  0.0413  0.3218  0.0579
18821THY    CP166591   5.914   0.569   3.890 -0.0893 -1.1327  0.0709
18821THY    HP166592   5.927   0.590   3.997  3.4134 -1.0969 -1.4518
18821THY    CP266593   6.037   0.632   3.828  0.0271 -1.1913 -0.5701
18821THY    HP266594   6.044   0.619   3.720 -0.5276 -1.4374  0.9839
18821THY    HP366595   6.124   0.594   3.883  0.5298 -0.0201  2.0808
18821THY    HP466596   6.035   0.737   3.858 -1.4044  1.5745 -1.2917
18821THY    CP366597   5.924   0.416   3.897  0.5173  1.1782  0.2341
18821THY    HP566598   6.018   0.378   3.940 -0.0397  1.2701 -1.1119
18821THY    HP666599   5.929   0.386   3.791  2.8148  0.5618  2.4651
18821THY    HP766600   5.834   0.366   3.935  1.4963 -0.2236 -2.8719
18821THY    CA366601   5.700   0.546   3.754  0.0071  0.6579 -0.1087
18821THY    HA366602   5.741   0.455   3.712 -0.2777 -1.3849  0.6540
18821THY    CA466603   5.566   0.584   3.727  0.3248 -0.0058  0.7960
18821THY    HA466604   5.496   0.515   3.681  2.2407 -0.2685 -1.0747
18821THY    CA566605   5.514   0.704   3.774 -0.3062 -0.0710 -0.5879
18821THY    CM166606   5.369   0.735   3.757  1.3086 -0.1957  0.1222
18821THY    HM166607   5.319   0.646   3.717 -1.2605  1.8889  0.5132
18821THY    HM266608   5.345   0.818   3.690 -1.3429 -2.3365 -2.1792
18821THY    HM366609   5.324   0.733   3.856  3.3871  0.8141  0.0910
18821THY    CA666610   5.587   0.775   3.864  0.1904 -0.0531 -0.1292
18821THY    HA666611   5.545   0.858   3.920  1.1508 -2.9031  2.4507
18822THY      O66612   8.418   3.737   1.725  0.0830  0.9938  0.2746
18822THY     HO66613   8.337   3.775   1.685  1.5533 -1.1656  1.3540
18822THY    CA166614   8.446   3.792   1.841  0.1446  0.8768  0.5479
18822THY    CA266615   8.537   3.742   1.935  0.0693 -0.7981  0.2205
18822THY    CP166616   8.596   3.607   1.907 -0.0444 -0.5874  0.2035
18822THY    HP166617   8.629   3.596   1.803  1.6745  0.0024 -0.5567
18822THY    CP266618   8.498   3.491   1.923  0.3742 -0.4402 -0.4731
18822THY    HP266619   8.431   3.491   1.836  1.4610 -1.3103  0.9941
18822THY    HP366620   8.440   3.502   2.015  0.3441 -0.2867 -1.7285
18822THY    HP466621   8.556   3.399   1.935  1.8493  2.6326  0.7285
18822THY    CP366622   8.731   3.586   1.987 -0.4572  0.1304  0.7339
18822THY    HP566623   8.768   3.486   1.964  0.1930  0.0496  0.9845
18822THY    HP666624   8.708   3.589   2.094  0.2401  0.3260 -0.5549
18822THY    HP766625   8.806   3.661   1.958  0.0976 -0.2360  0.0481
18822THY    CA366626   8.555   3.816   2.050  0.0041 -0.4137  0.2329
18822THY    HA366627   8.617   3.777   2.130 -2.1987  0.5631 -1.4667
18822THY    CA466628   8.488   3.938   2.068  0.6154  0.8417  0.4773
18822THY    HA466629   8.494   3.988   2.164  0.6420  0.1036  1.9182
18822THY    CA566630   8.402   3.989   1.973  0.0977 -0.3290  0.6968
18822THY    CM166631   8.338   4.119   2.004  0.1893  0.1303  0.5048
18822THY    HM166632   8.231   4.120   1.980  0.2410 -0.1118  1.1677
18822THY    HM266633   8.389   4.196   1.945  1.2253  2.1134  1.4329
18822THY    HM366634   8.359   4.150   2.107  0.4021 -0.2957  1.8339
18822THY    CA666635   8.388   3.916   1.856  0.4065 -0.1825 -1.0402
18822THY    HA666636   8.325   3.965   1.783  0.8078 -1.4434 -2.3031
18823THY      O66637   6.864   1.667   5.472  0.5160  0.3007  0.1436
18823THY     HO66638   6.902   1.755   5.458  0.9098  1.0719  0.1037
18823THY    CA166639   6.792   1.670   5.594  0.5980  0.3254 -0.4666
18823THY    CA266640   6.757   1.554   5.657 -0.1246  0.0523 -0.2206
18823THY    CP166641   6.815   1.422   5.609 -0.0277 -0.3115  0.3137
18823THY    HP166642   6.898   1.449   5.543  0.9655  0.2085 -1.3486
18823THY    CP266643   6.715   1.344   5.532  0.0268  0.4924  0.1523
18823THY    HP266644   6.748   1.240   5.525 -1.7051 -0.7412 -0.3558
18823THY    HP366645   6.706   1.387   5.431 -2.0714  0.1365 -1.0043
18823THY    HP466646   6.618   1.358   5.579 -0.3787  0.0038 -0.9415
18823THY    CP366647   6.874   1.342   5.737  0.0882  0.2944 -0.0918
18823THY    HP566648   6.794   1.311   5.804 -0.3815 -0.3303 -0.2500
18823THY    HP666649   6.947   1.401   5.794  0.1573 -0.5470  0.6723
18823THY    HP766650   6.922   1.252   5.696  0.4147  1.7729 -0.6168
18823THY    CA366651   6.684   1.567   5.774  0.1403 -0.5154  0.4731
18823THY    HA366652   6.653   1.480   5.831 -1.5866 -0.5364  1.0376
18823THY    CA466653   6.641   1.695   5.825 -0.0127  0.1011 -0.1102
18823THY    HA466654   6.578   1.694   5.913 -0.1000  0.0368 -0.8825
18823THY    CA566655   6.684   1.811   5.752  0.3506 -0.0413  0.5422
18823THY    CM166656   6.638   1.948   5.792 -0.0681  0.5682  0.3038
18823THY    HM166657   6.685   2.022   5.727 -0.4799 -0.9652 -0.7283
18823THY    HM266658   6.682   1.966   5.890  0.3741  0.2353  1.0575
18823THY    HM366659   6.531   1.964   5.773 -0.5374  0.0945 -2.6603
18823THY    CA666660   6.760   1.794   5.638 -0.0603 -0.2869  0.3022
18823THY    HA666661   6.787   1.875   5.571  0.7658  0.1232  0.3813
18824THY      O66662   3.314   2.160   6.541  0.3816 -0.4365 -0.7121
18824THY     HO66663   3.254   2.096   6.583  1.9756  1.3861 -1.0913
18824THY    CA166664   3.356   2.231   6.645 -0.4717  0.1200  0.5604
18824THY    CA266665   3.464   2.329   6.626 -0.6537  0.4074  0.1311
18824THY    CP166666   3.518   2.356   6.482  0.6756  0.1370  0.6758
18824THY    HP166667   3.483   2.277   6.413  2.3500  2.0166 -1.8713
18824THY    CP266668   3.670   2.346   6.471 -0.4439 -0.4057 -0.5254
18824THY    HP266669   3.711   2.385   6.377 -1.0987 -1.7275 -2.8617
18824THY    HP366670   3.699   2.240   6.480  2.4055 -1.0627  0.1101
18824THY    HP466671   3.710   2.410   6.551 -0.0545 -0.8186 -0.2541
18824THY    CP366672   3.475   2.493   6.438  0.6887  0.0540  0.3010
18824THY    HP566673   3.471   2.501   6.329  2.1260  0.1152  3.1740
18824THY    HP666674   3.533   2.574   6.484 -1.2074  1.0054  1.1869
18824THY    HP766675   3.371   2.499   6.471  0.3037 -1.1165  0.1612
18824THY    CA366676   3.519   2.406   6.735  0.1900 -0.4152 -0.1304
18824THY    HA366677   3.605   2.473   6.735  1.0281 -0.1675 -1.1808
18824THY    CA466678   3.458   2.378   6.860  0.2993  0.3723 -0.0508
18824THY    HA466679   3.498   2.412   6.956 -1.6408  1.7232 -1.4026
18824THY    CA566680   3.353   2.283   6.875 -0.3162 -0.2235 -0.0540
18824THY    CM166681   3.293   2.268   7.015  0.4991 -0.2086  0.4103
18824THY    HM166682   3.297   2.355   7.083 -2.3541  1.3826 -0.5673
18824THY    HM266683   3.326   2.188   7.082 -0.3227  1.5020  1.4266
18824THY    HM366684   3.185   2.256   7.005  0.2619  0.6342  1.5910
18824THY    CA666685   3.293   2.218   6.770 -0.6986  0.8716 -0.1907
18824THY    HA666686   3.215   2.144   6.784 -0.2721  0.8841 -0.6436
18825THY      O66687   5.097   0.972   6.230  0.2381  0.1559  0.3418
18825THY     HO66688   5.098   1.008   6.320  1.2998 -0.3190  1.5814
18825THY    CA166689   5.001   0.882   6.227 -0.0754 -0.0296  0.5632
18825THY    CA266690   4.985   0.803   6.106  0.3231 -0.3229  0.1326
18825THY    CP166691   5.067   0.831   5.978 -0.0459  0.8115 -0.0466
18825THY    HP166692   5.149   0.904   5.987  0.2057 -1.0738 -0.0293
18825THY    CP266693   4.977   0.896   5.870  0.0397  0.2728  0.1451
18825THY    HP266694   4.940   0.993   5.905 -0.6931 -2.1293  0.8046
18825THY    HP366695   4.892   0.831   5.847  0.0169 -1.1053  0.6398
18825THY    HP466696   5.024   0.912   5.773 -3.2849 -1.5602 -0.3389
18825THY    CP366697   5.132   0.710   5.916  0.1129  0.7527  0.1647
18825THY    HP566698   5.183   0.739   5.824 -1.8124 -2.1541 -4.5442
18825THY    HP666699   5.065   0.632   5.881  1.1255  0.8119 -0.7499
18825THY    HP766700   5.210   0.681   5.988  1.1091  0.1859  1.3284
18825THY    CA366701   4.877   0.704   6.114 -0.4330 -0.0263 -0.0009
18825THY    HA366702   4.840   0.641   6.033 -0.0646 -0.0075 -0.2395
18825THY    CA466703   4.798   0.697   6.232  0.1317  0.8157 -0.6641
18825THY    HA466704   4.712   0.631   6.239 -0.4577  1.1238  0.1061
18825THY    CA566705   4.817   0.792   6.333 -0.0014 -0.0115  0.7157
18825THY    CM166706   4.732   0.785   6.455  0.3777 -0.4436 -0.1202
18825THY    HM166707   4.790   0.829   6.537 -0.9841  1.3342 -1.4668
18825THY    HM266708   4.714   0.679   6.473 -0.1492 -0.4798 -0.0360
18825THY    HM366709   4.639   0.842   6.445 -0.5358  0.3494 -1.4382
18825THY    CA666710   4.918   0.883   6.333  0.6196 -0.1264  0.3406
18825THY    HA666711   4.914   0.976   6.389 -1.1219  0.7507 -0.2297
18826THY      O66712   2.046   2.752   5.035  0.6459  0.2814 -0.1707
18826THY     HO66713   2.051   2.769   4.940  0.6367  0.6511  2.1826
18826THY    CA166714   2.103   2.866   5.092 -0.1250 -0.0457  0.0874
18826THY    CA266715   2.082   2.900   5.230 -0.0643 -0.7373 -0.6014
18826THY    CP166716   2.004   2.800   5.319 -0.6454 -0.3893 -0.0816
18826THY    HP166717   2.006   2.703   5.269 -0.3305 -0.5038 -0.0180
18826THY    CP266718   1.867   2.864   5.350  0.4878  0.1209 -0.1915
18826THY    HP266719   1.886   2.961   5.398  0.9490 -0.3131 -0.0664
18826THY    HP366720   1.808   2.803   5.420 -0.6457  0.0523  0.7828
18826THY    HP466721   1.805   2.878   5.261 -0.6260  0.5019 -2.2022
18826THY    CP366722   2.076   2.776   5.453  0.0299  0.3838  0.3295
18826THY    HP566723   2.174   2.733   5.429 -1.0938 -0.3657 -1.9819
18826THY    HP666724   2.023   2.702   5.515 -1.4916  0.1893  1.2051
18826THY    HP766725   2.099   2.863   5.515  1.0743  0.2182  0.1844
18826THY    CA366726   2.141   3.022   5.271 -0.2099 -0.7011 -0.1633
18826THY    HA366727   2.118   3.060   5.370 -1.0742  0.2013 -2.8195
18826THY    CA466728   2.223   3.098   5.191 -1.5727  0.8515 -0.1151
18826THY    HA466729   2.278   3.185   5.226 -0.5292 -1.8766  0.4137
18826THY    CA566730   2.241   3.055   5.056 -0.3676  0.1230 -0.8583
18826THY    CM166731   2.322   3.148   4.968  0.4563 -0.5539 -0.7071
18826THY    HM166732   2.401   3.184   5.035  0.5800  0.3134 -2.4680
18826THY    HM266733   2.263   3.237   4.945  0.2315 -0.7917 -0.9183
18826THY    HM366734   2.358   3.118   4.869 -2.1331 -2.3131  1.5169
18826THY    CA666735   2.180   2.944   5.007 -0.4853  0.1003  0.6089
18826THY    HA666736   2.205   2.903   4.909  0.2282  0.9945 -1.1945
18827THY      O66737   7.000   4.032   3.524  0.3212 -0.1851  0.1560
18827THY     HO66738   7.041   4.038   3.612 -3.6886  1.8211  2.5463
18827THY    CA166739   6.907   4.130   3.538  0.2068 -0.6339 -0.4677
18827THY    CA266740   6.812   4.162   3.433 -0.6083 -0.1598 -0.0250
18827THY    CP166741   6.822   4.091   3.295  0.3338  0.9521  0.0774
18827THY    HP166742   6.930   4.101   3.278  0.3395  1.7188  1.5167
18827THY    CP266743   6.753   4.169   3.176  0.3574 -0.0873  0.4890
18827THY    HP266744   6.774   4.117   3.081  1.2851 -1.0679  2.5394
18827THY    HP366745   6.794   4.270   3.180 -0.7655  1.3104  0.9219
18827THY    HP466746   6.643   4.160   3.176  0.4801 -0.4341 -1.9292
18827THY    CP366747   6.781   3.947   3.296  0.1405  0.6191 -0.2121
18827THY    HP566748   6.763   3.897   3.199 -0.9107  0.3414  0.6541
18827THY    HP666749   6.691   3.948   3.359  1.0700  2.1067 -2.6483
18827THY    HP766750   6.850   3.882   3.351  0.1041 -1.0235 -1.7568
18827THY    CA366751   6.713   4.261   3.464  0.0334 -0.2007 -0.1157
18827THY    HA366752   6.627   4.276   3.400  0.2392 -0.4919 -0.1654
18827THY    CA466753   6.713   4.318   3.589 -0.6378 -0.4731  0.1598
18827THY    HA466754   6.639   4.395   3.611 -2.0901 -0.9901 -1.0446
18827THY    CA566755   6.807   4.283   3.684  0.4753  0.3443  0.0709
18827THY    CM166756   6.798   4.352   3.815  0.1550 -0.6751 -0.5522
18827THY    HM166757   6.884   4.329   3.880 -1.0213  1.2420  0.2287
18827THY    HM266758   6.702   4.336   3.866 -0.6345 -0.8680  2.8890
18827THY    HM366759   6.807   4.460   3.803  1.2639 -2.5256 -0.8086
18827THY    CA666760   6.907   4.193   3.659  0.2609  0.1159 -0.1885
18827THY    HA666761   6.971   4.171   3.743 -0.7968  0.7647 -0.8738
18828THY      O66762   2.239   3.490   2.017 -0.1721  0.0413  0.1820
18828THY     HO66763   2.298   3.535   1.955  0.8574  1.3621  0.7250
18828THY    CA166764   2.250   3.559   2.135 -0.1113  0.0914  0.2351
18828THY    CA266765   2.153   3.557   2.234 -0.3533  0.6861  0.0243
18828THY    CP166766   2.021   3.477   2.208  0.5663 -0.4814  0.1520
18828THY    HP166767   2.044   3.369   2.208  1.0872  3.1913  0.1706
18828THY    CP266768   1.935   3.524   2.091 -0.3306  0.7195 -0.2109
18828THY    HP266769   1.901   3.628   2.105  0.9499 -0.2901  0.3711
18828THY    HP366770   1.847   3.462   2.074  0.2356 -1.6851 -0.4370
18828THY    HP466771   1.983   3.529   1.993 -3.0666 -0.6709  0.7553
18828THY    CP366772   1.931   3.474   2.337 -0.4773  0.1443 -0.6149
18828THY    HP566773   1.906   3.579   2.353  2.4763 -1.7851  0.5021
18828THY    HP666774   2.005   3.445   2.414  2.1256 -1.1615  2.0516
18828THY    HP766775   1.858   3.393   2.321 -1.6364  0.5274  0.3317
18828THY    CA366776   2.178   3.632   2.347 -1.1035 -0.8778  1.1128
18828THY    HA366777   2.105   3.637   2.427 -0.5234 -0.3406  1.0681
18828THY    CA466778   2.301   3.698   2.360 -0.1304 -1.0264  0.5434
18828THY    HA466779   2.325   3.734   2.460 -0.9483 -0.0897 -1.3689
18828THY    CA566780   2.397   3.694   2.258  0.9897 -1.0490  0.3058
18828THY    CM166781   2.530   3.765   2.272  0.0977 -0.3253 -0.6236
18828THY    HM166782   2.619   3.712   2.236  1.0750  1.0615  0.0066
18828THY    HM266783   2.550   3.804   2.372  0.6966 -0.5184 -0.4268
18828THY    HM366784   2.528   3.848   2.201  0.2391 -1.1177 -1.2839
18828THY    CA666785   2.371   3.625   2.144  0.0648  0.3677 -0.0949
18828THY    HA666786   2.445   3.617   2.065  1.6241  1.4875  2.2005
18829THY      O66787   9.429   6.130   4.554  0.4985  0.3968  0.0738
18829THY     HO66788   9.498   6.130   4.623 -0.8995  1.9185 -1.7765
18829THY    CA166789   9.322   6.180   4.614 -0.4422 -0.2054 -0.4993
18829THY    CA266790   9.200   6.118   4.597 -0.2905 -0.4258  0.1193
18829THY    CP166791   9.189   5.983   4.513  0.5474  0.2650  0.2108
18829THY    HP166792   9.259   5.968   4.430  1.3221  1.2495 -2.0293
18829THY    CP266793   9.053   5.969   4.451 -0.4868 -0.0900  0.1206
18829THY    HP266794   9.030   6.047   4.377 -0.5912 -0.3523 -0.1567
18829THY    HP366795   8.964   5.978   4.514 -0.5008 -0.1532  0.4166
18829THY    HP466796   9.063   5.870   4.404  0.9657 -1.0145  0.6712
18829THY    CP366797   9.223   5.871   4.605  0.7269  0.7780  0.5175
18829THY    HP566798   9.155   5.883   4.691  1.7335  1.7336 -0.2938
18829THY    HP666799   9.324   5.876   4.648  0.5316  1.2638  0.3692
18829THY    HP766800   9.211   5.774   4.554 -1.9997 -2.3250  2.2794
18829THY    CA366801   9.083   6.186   4.655  0.3199  0.0988 -0.1373
18829THY    HA366802   8.980   6.153   4.646 -0.3886  3.5370  0.7483
18829THY    CA466803   9.104   6.295   4.739 -0.2070  0.3610 -0.0048
18829THY    HA466804   9.017   6.330   4.793 -0.6297 -0.1264 -0.2958
18829THY    CA566805   9.235   6.350   4.760  0.2516  0.1662  0.6946
18829THY    CM166806   9.257   6.470   4.845 -0.5448  0.1207 -0.3758
18829THY    HM166807   9.192   6.460   4.933 -0.4491  0.1894 -0.3933
18829THY    HM266808   9.233   6.565   4.796  1.4191  1.4852  0.9179
18829THY    HM366809   9.360   6.475   4.884 -0.7761  1.0032 -1.9515
18829THY    CA666810   9.337   6.295   4.685  0.8622 -0.7041 -0.2461
18829THY    HA666811   9.435   6.342   4.678  0.7219 -3.1789 -0.1822
18830THY      O66812   5.358   8.958   2.159  0.1541  0.1947  0.1206
18830THY     HO66813   5.435   9.007   2.126  0.1589  2.6218  1.9899
18830THY    CA166814   5.392   8.917   2.282  0.1138  0.0114 -0.1090
18830THY    CA266815   5.312   8.830   2.356 -0.6063  0.5909 -0.4029
18830THY    CP166816   5.189   8.775   2.289 -0.3764  0.8512 -0.2438
18830THY    HP166817   5.137   8.852   2.231  0.7017 -0.2061 -0.2869
18830THY    CP266818   5.091   8.720   2.393 -0.2699  0.3663 -0.4998
18830THY    HP266819   5.126   8.623   2.430 -2.6653 -1.6432 -2.2461
18830THY    HP366820   4.992   8.706   2.350 -0.0718 -0.1814 -0.2220
18830THY    HP466821   5.073   8.791   2.475 -1.2882 -0.2647 -0.0090
18830THY    CP366822   5.222   8.662   2.191  0.3699 -0.7164 -0.8808
18830THY    HP566823   5.244   8.569   2.244  1.8707  0.1638 -0.0598
18830THY    HP666824   5.312   8.680   2.130 -1.7000 -3.5809  0.7392
18830THY    HP766825   5.136   8.647   2.124 -0.4217  0.2394 -0.7346
18830THY    CA366826   5.353   8.791   2.485  0.2286 -0.5355  0.2910
18830THY    HA366827   5.307   8.710   2.542  0.3870  0.0957  0.6429
18830THY    CA466828   5.470   8.845   2.543 -0.6943 -0.0769 -0.2973
18830THY    HA466829   5.492   8.816   2.645 -0.7529  0.4344  1.3377
18830THY    CA566830   5.547   8.931   2.461 -0.1852 -0.0630  0.4875
18830THY    CM166831   5.678   8.976   2.520 -0.4305 -1.4056 -0.8603
18830THY    HM166832   5.671   9.066   2.582 -0.5034  0.6617 -2.2167
18830THY    HM266833   5.765   8.980   2.453  1.3075  0.7580  2.7978
18830THY    HM366834   5.712   8.899   2.590 -1.2359 -1.3106 -1.1363
18830THY    CA666835   5.510   8.977   2.337  0.3088  0.0311 -0.6083
18830THY    HA666836   5.552   9.061   2.281 -1.8878 -2.6088 -1.1557
18831THY      O66837   2.770   8.994   6.959  0.2849 -0.1423 -0.0214
18831THY     HO66838   2.707   9.028   7.024  1.5829  0.5260  1.2023
18831THY    CA166839   2.797   9.092   6.881 -0.2124  0.5838  0.1382
18831THY    CA266840   2.904   9.096   6.786 -0.6063  0.2303 -0.3734
18831THY    CP166841   3.003   8.977   6.769 -0.1114  0.2357  0.0339
18831THY    HP166842   2.986   8.901   6.847  1.4754  0.3415 -0.2357
18831THY    CP266843   3.149   9.012   6.785  0.1660  0.3855  0.2643
18831THY    HP266844   3.168   9.048   6.887  2.9367 -0.4966  1.5736
18831THY    HP366845   3.185   9.093   6.720 -3.2930  2.4776  3.7969
18831THY    HP466846   3.217   8.931   6.757  0.9709 -1.6624  1.5448
18831THY    CP366847   2.974   8.904   6.633  0.6079 -0.6083 -0.0553
18831THY    HP566848   2.871   8.913   6.596  0.1745  0.5789 -0.0252
18831THY    HP666849   3.009   8.801   6.639 -0.4978  0.2091 -0.4039
18831THY    HP766850   3.036   8.955   6.558 -1.0133 -1.8474  0.2022
18831THY    CA366851   2.919   9.207   6.706 -0.4110 -0.8791 -0.3661
18831THY    HA366852   3.011   9.221   6.650  0.1231 -0.7860 -3.1187
18831THY    CA466853   2.834   9.313   6.726  0.2071  0.2073 -0.0011
18831THY    HA466854   2.860   9.403   6.671  1.4975  0.9313  0.0962
18831THY    CA566855   2.724   9.312   6.814 -0.0827  0.0173  0.1697
18831THY    CM166856   2.640   9.436   6.822 -0.4087 -0.5002  0.4601
18831THY    HM166857   2.672   9.521   6.760  1.2777 -0.3832 -0.0437
18831THY    HM266858   2.645   9.470   6.926  0.9957 -0.6667  0.8066
18831THY    HM366859   2.532   9.417   6.818 -0.8821  3.1556  1.6516
18831THY    CA666860   2.703   9.197   6.889  0.4077  0.0318  0.1414
18831THY    HA666861   2.628   9.190   6.967  1.0202  0.4807 -2.5769
18832THY      O66862   4.109   4.206   7.034  0.6497  0.1016 -0.2524
18832THY     HO66863   4.030   4.163   6.997  0.7013  0.8145 -0.9775
18832THY    CA166864   4.162   4.270   6.931  0.6873 -0.4589  0.1084
18832THY    CA266865   4.298   4.290   6.907  0.8661  0.4406 -0.3367
18832THY    CP166866   4.397   4.261   7.018 -0.1067  0.1537  0.4725
18832THY    HP166867   4.351   4.230   7.113 -0.1663  1.2041  3.4717
18832THY    CP266868   4.455   4.392   7.065  0.4050 -0.8611  0.1311
18832THY    HP266869   4.519   4.437   6.989 -0.8331 -2.1903 -0.2641
18832THY    HP366870   4.514   4.385   7.158 -2.6816  1.4874  2.3091
18832THY    HP466871   4.379   4.465   7.096  0.4163 -0.4219 -0.0401
18832THY    CP366872   4.504   4.161   6.983  0.1217  0.6096  0.1309
18832THY    HP566873   4.478   4.061   7.020 -0.4669 -1.9983 -0.7745
18832THY    HP666874   4.597   4.199   7.027 -1.0255  1.4694  2.0696
18832THY    HP766875   4.510   4.164   6.873 -2.1652  0.4219 -0.4572
18832THY    CA366876   4.337   4.349   6.789 -0.1287 -0.2635  0.2047
18832THY    HA366877   4.443   4.369   6.777  0.2600  0.9969 -0.9384
18832THY    CA466878   4.239   4.379   6.693 -0.0613  0.5789 -0.1640
18832THY    HA466879   4.263   4.417   6.594 -0.7517  0.2490 -0.5698
18832THY    CA566880   4.112   4.372   6.723  0.3546  0.2392  0.2953
18832THY    CM166881   4.013   4.401   6.612 -0.3625  0.3905 -0.2003
18832THY    HM166882   4.049   4.482   6.548 -2.4284 -0.0984  0.4061
18832THY    HM266883   3.916   4.422   6.659 -0.4812 -0.4668  1.3062
18832THY    HM366884   4.002   4.313   6.548  0.9022 -1.3778  0.8728
18832THY    CA666885   4.069   4.316   6.842  0.5009  0.0450  0.5355
18832THY    HA666886   3.961   4.303   6.849  0.3063 -1.3252  1.2455
18833THY      O66887   2.893   4.830   6.421 -0.3486 -0.0801  0.3831
18833THY     HO66888   2.887   4.887   6.342  2.1131  0.4930  1.5744
18833THY    CA166889   2.809   4.880   6.511 -0.5152  0.2067 -0.4108
18833THY    CA266890   2.828   4.844   6.645  0.2040 -0.1032  0.3674
18833THY    CP166891   2.924   4.729   6.682 -0.2427  0.6308 -1.0861
18833THY    HP166892   3.008   4.720   6.613 -0.6780 -0.0629 -0.0160
18833THY    CP266893   2.857   4.592   6.698 -0.4027 -0.0502 -0.2113
18833THY    HP266894   2.777   4.585   6.623 -0.1703 -0.2557 -0.7616
18833THY    HP366895   2.822   4.569   6.799 -1.5199 -0.2422  0.6001
18833THY    HP466896   2.933   4.519   6.669 -0.5992 -0.0286 -0.4263
18833THY    CP366897   3.001   4.760   6.810  0.1494 -0.2054 -0.7874
18833THY    HP566898   3.086   4.694   6.829  1.4390 -1.9368  0.3173
18833THY    HP666899   2.937   4.767   6.899  0.2690  0.0732 -2.5665
18833THY    HP766900   3.050   4.857   6.797 -0.5490  0.5927 -0.3037
18833THY    CA366901   2.744   4.898   6.747 -0.3453  0.0703 -0.7569
18833THY    HA366902   2.734   4.871   6.852 -1.2844  0.2400  0.1612
18833THY    CA466903   2.652   4.991   6.697 -0.4239  0.0975  0.3502
18833THY    HA466904   2.583   5.045   6.761 -1.6349 -1.4172  0.6370
18833THY    CA566905   2.641   5.028   6.560 -0.8017 -0.4023 -0.6163
18833THY    CM166906   2.531   5.124   6.514  0.2366  0.3253  0.0333
18833THY    HM166907   2.563   5.228   6.522  1.9303 -0.5646 -0.3791
18833THY    HM266908   2.444   5.101   6.577  0.1437 -0.4032 -1.7818
18833THY    HM366909   2.509   5.105   6.408  0.4786  0.1859  0.5269
18833THY    CA666910   2.726   4.979   6.473  0.5947  0.7298  0.3713
18833THY    HA666911   2.718   5.000   6.367 -0.9613  0.6829 -0.3380
18834THY      O66912   2.442   3.372   7.287  0.1802 -0.0985 -0.3929
18834THY     HO66913   2.534   3.376   7.256 -0.4255 -1.9286  1.7762
18834THY    CA166914   2.379   3.336   7.168  0.7278 -0.7992 -0.5013
18834THY    CA266915   2.245   3.370   7.137 -0.1676 -0.4595  0.3531
18834THY    CP166916   2.162   3.454   7.237 -1.3275  0.5286  0.1564
18834THY    HP166917   2.194   3.424   7.337 -0.7536  0.4443  0.4727
18834THY    CP266918   2.016   3.417   7.229 -0.1100  0.1728 -0.6493
18834THY    HP266919   1.961   3.478   7.301  1.8230 -0.1883  1.6642
18834THY    HP366920   1.992   3.315   7.259 -2.2446  0.7597 -0.0236
18834THY    HP466921   1.974   3.411   7.128  0.8318 -0.2112 -0.9714
18834THY    CP366922   2.180   3.610   7.208 -0.4234  0.5630 -0.3055
18834THY    HP566923   2.280   3.643   7.239 -0.4740 -0.6804  1.1160
18834THY    HP666924   2.106   3.677   7.252 -1.7609 -1.7644 -0.1684
18834THY    HP766925   2.185   3.631   7.101 -1.3462  0.7259  0.8192
18834THY    CA366926   2.195   3.340   7.005  0.8914 -0.1025 -0.3899
18834THY    HA366927   2.093   3.361   6.976  0.7313  0.4491 -0.3909
18834THY    CA466928   2.284   3.282   6.911 -0.8791 -0.6816 -0.1730
18834THY    HA466929   2.265   3.273   6.805  2.8247 -1.4929  0.1137
18834THY    CA566930   2.410   3.240   6.951 -0.1225 -0.2065  0.1973
18834THY    CM166931   2.490   3.164   6.846 -0.0972 -0.1160  0.3356
18834THY    HM166932   2.482   3.220   6.752  0.7337 -0.6831 -0.4762
18834THY    HM266933   2.462   3.060   6.827  1.6395 -1.1008 -0.0020
18834THY    HM366934   2.593   3.175   6.883 -1.4353  4.0125  0.7092
18834THY    CA666935   2.455   3.263   7.080  0.2155 -0.1894  0.5667
18834THY    HA666936   2.546   3.219   7.120 -1.7295  0.9151 -2.8439
18835THY      O66937   0.485   1.385   7.055 -0.0422 -0.2650  0.4636
18835THY     HO66938   0.396   1.352   7.033 -1.9354  2.7068  3.0477
18835THY    CA166939   0.499   1.516   7.014  0.4990  0.5383  0.5543
18835THY    CA266940   0.621   1.584   6.996  0.1234  0.0905 -0.3362
18835THY    CP166941   0.749   1.516   7.045  0.8100 -0.0186 -0.8098
18835THY    HP166942   0.721   1.426   7.101  0.4419 -2.2649 -2.1707
18835THY    CP266943   0.818   1.605   7.151 -0.7886  0.3218  0.7563
18835THY    HP266944   0.745   1.628   7.229 -1.1531  1.1796 -2.8445
18835THY    HP366945   0.850   1.697   7.100 -0.9854 -0.4038  0.4294
18835THY    HP466946   0.902   1.559   7.203  0.1900 -2.1892 -0.5035
18835THY    CP366947   0.839   1.484   6.924  0.2737 -0.1403  0.7294
18835THY    HP566948   0.872   1.572   6.868  1.2530 -0.5960  0.0973
18835THY    HP666949   0.784   1.422   6.853 -1.0999  0.6989  0.9550
18835THY    HP766950   0.933   1.435   6.955  1.2409  0.7401  2.9972
18835THY    CA366951   0.620   1.711   6.933 -0.3993  0.3151  0.0045
18835THY    HA366952   0.714   1.765   6.926 -0.1608  1.0975 -0.2901
18835THY    CA466953   0.496   1.750   6.873  0.2344  0.2572 -0.2835
18835THY    HA466954   0.491   1.846   6.824  1.2836 -0.7840 -0.7412
18835THY    CA566955   0.377   1.683   6.897  0.0529  0.1806 -0.5567
18835THY    CM166956   0.248   1.731   6.845 -0.4164  0.4169 -0.4142
18835THY    HM166957   0.232   1.697   6.742 -0.2774  0.2976 -0.1219
18835THY    HM266958   0.248   1.841   6.852 -0.4656  3.0223 -0.5291
18835THY    HM366959   0.161   1.688   6.897 -2.4770 -1.3073  1.3780
18835THY    CA666960   0.376   1.571   6.976  0.6731 -0.2129 -0.3979
18835THY    HA666961   0.286   1.511   6.985 -0.6163  1.8227  1.6705
18836THY      O66962   6.916   0.773   5.334 -0.3888 -0.8157  0.1643
18836THY     HO66963   6.885   0.721   5.410 -0.7704  0.0230  1.5767
18836THY    CA166964   6.958   0.876   5.397  0.3479 -0.1949 -0.6892
18836THY    CA266965   6.953   1.008   5.347  0.2669 -0.1984  0.1116
18836THY    CP166966   6.902   1.027   5.209  0.1826  0.2939  0.0552
18836THY    HP166967   6.914   0.937   5.148 -0.4148 -0.3518  0.4098
18836THY    CP266968   6.971   1.138   5.134  0.6323 -0.1234 -0.0843
18836THY    HP266969   6.952   1.119   5.028 -1.8111  0.2947 -0.2685
18836THY    HP366970   7.079   1.142   5.154  0.6308 -0.2835  1.9830
18836THY    HP466971   6.935   1.240   5.156 -0.7589 -0.6421 -0.4469
18836THY    CP366972   6.749   1.039   5.214  0.3192 -0.4610 -0.5393
18836THY    HP566973   6.704   0.945   5.247 -0.9688 -3.3431 -1.0430
18836THY    HP666974   6.703   1.066   5.118 -1.2907  0.8389  1.6725
18836THY    HP766975   6.721   1.123   5.279  3.0398 -1.1369  1.0148
18836THY    CA366976   7.008   1.116   5.420 -0.2883 -0.5626 -0.2336
18836THY    HA366977   7.006   1.220   5.387 -1.6843 -0.4514 -0.1995
18836THY    CA466978   7.070   1.093   5.546 -0.3101  0.0045  0.7468
18836THY    HA466979   7.110   1.176   5.603  0.2897  0.1889  0.3370
18836THY    CA566980   7.087   0.956   5.594  0.2633  0.5575 -0.4897
18836THY    CM166981   7.174   0.920   5.704 -0.3384 -0.4336 -0.3891
18836THY    HM166982   7.127   0.837   5.757 -2.0877 -2.1945 -0.5865
18836THY    HM266983   7.200   1.000   5.775  0.9725 -0.4830 -0.7435
18836THY    HM366984   7.267   0.879   5.664 -0.5568 -0.8931 -0.4365
18836THY    CA666985   7.027   0.855   5.517  0.5531 -0.1799  0.5094
18836THY    HA666986   7.035   0.754   5.556 -1.1935 -1.6853 -0.2669
18837THY      O66987   1.686   5.140   7.703 -0.8399 -0.3796  0.1164
18837THY     HO66988   1.691   5.061   7.646 -1.1346 -0.4519  0.1496
18837THY    CA166989   1.578   5.106   7.773  0.5705 -0.4717 -0.1256
18837THY    CA266990   1.505   5.192   7.865 -0.2385 -0.4333  0.3583
18837THY    CP166991   1.541   5.344   7.860  0.6936  0.3759  0.0307
18837THY    HP166992   1.619   5.353   7.784  0.7157  0.3337 -0.5075
18837THY    CP266993   1.582   5.394   7.998 -0.2003 -0.1447 -0.3217
18837THY    HP266994   1.651   5.479   7.992 -0.7570 -0.8756  0.0859
18837THY    HP366995   1.636   5.314   8.050 -0.2586  1.1972  0.4803
18837THY    HP466996   1.494   5.421   8.058 -0.5048  0.5930 -2.7284
18837THY    CP366997   1.433   5.427   7.804 -0.3608 -0.6205  0.2094
18837THY    HP566998   1.341   5.406   7.860 -0.3126 -0.0893  1.3329
18837THY    HP666999   1.412   5.406   7.698 -2.0139  0.1336 -2.3905
18837THY    HP767000   1.454   5.534   7.816 -1.1472  0.5835  0.2477
18837THY    CA367001   1.411   5.138   7.957  1.1879  0.1712 -0.7156
18837THY    HA367002   1.369   5.204   8.033  0.2635 -0.7810 -0.1747
18837THY    CA467003   1.372   5.007   7.931  0.0022 -0.6012 -0.3718
18837THY    HA467004   1.293   4.964   7.991  0.5879 -0.6619 -1.5564
18837THY    CA567005   1.440   4.922   7.846  0.1127 -0.4966 -0.9538
18837THY    CM167006   1.389   4.784   7.825  0.6429  0.4812  1.1990
18837THY    HM167007   1.422   4.739   7.731  0.7381  1.0380  0.0799
18837THY    HM267008   1.280   4.771   7.824  0.8332  0.1740 -0.7032
18837THY    HM367009   1.431   4.726   7.908 -1.1235  0.9991  0.5801
18837THY    CA667010   1.550   4.972   7.774  0.7192  0.4964  0.3011
18837THY    HA667011   1.600   4.901   7.708 -0.4183 -0.1636  0.0890
18838THY      O67012   3.262   5.691   6.652  0.3564 -0.0429  0.1199
18838THY     HO67013   3.211   5.619   6.611  0.8772 -1.1987  0.3901
18838THY    CA167014   3.393   5.676   6.617  1.0265  0.4236 -0.0448
18838THY    CA267015   3.484   5.785   6.635  0.7376  0.5781 -0.6353
18838THY    CP167016   3.429   5.928   6.667  0.2953  0.3050  0.2399
18838THY    HP167017   3.327   5.928   6.707 -1.9338 -4.6123  1.3166
18838THY    CP267018   3.422   5.997   6.533 -0.9020 -0.1681  0.5583
18838THY    HP267019   3.414   6.107   6.537  0.1645 -1.5651  0.7207
18838THY    HP367020   3.342   5.946   6.477  0.3338 -0.8157 -0.7257
18838THY    HP467021   3.517   5.979   6.482 -1.0485  0.1422 -1.2941
18838THY    CP367022   3.522   6.012   6.765 -0.2993 -0.1465 -0.0147
18838THY    HP567023   3.489   6.116   6.771 -0.6623 -3.7611  0.2238
18838THY    HP667024   3.627   6.009   6.734 -0.1389  0.0729  1.9415
18838THY    HP767025   3.521   5.961   6.862 -0.5943  0.7600  1.6491
18838THY    CA367026   3.618   5.758   6.608 -0.8347 -0.3790  0.2610
18838THY    HA367027   3.689   5.839   6.620 -1.4336  0.6270  0.6561
18838THY    CA467028   3.657   5.628   6.567 -0.1148  0.5324 -0.7908
18838THY    HA467029   3.760   5.606   6.541 -0.1833 -1.4303  0.8897
18838THY    CA567030   3.570   5.519   6.556 -0.0234 -0.6038 -0.8277
18838THY    CM167031   3.620   5.382   6.524  0.1686 -0.1941 -0.5808
18838THY    HM167032   3.727   5.374   6.502  0.6163  2.0008 -1.2246
18838THY    HM267033   3.576   5.342   6.432  0.9380  0.3345 -2.7719
18838THY    HM367034   3.606   5.318   6.611  1.4177 -0.5051 -1.2967
18838THY    CA667035   3.438   5.545   6.580 -0.7648  0.2055  0.0871
18838THY    HA667036   3.367   5.463   6.576 -0.3000  1.3514 -0.4038
18839THY      O67037   4.147   1.516   2.324 -0.3915  0.5470 -0.1349
18839THY     HO67038   4.108   1.469   2.248  2.1868 -2.6598  2.4276
18839THY    CA167039   4.038   1.589   2.360  0.2044  0.5016  0.4846
18839THY    CA267040   4.008   1.636   2.491  0.2612  0.4161  0.7272
18839THY    CP167041   4.101   1.629   2.609  0.8610  0.2282  0.6221
18839THY    HP167042   4.197   1.599   2.566  0.0162 -0.0526 -1.9733
18839THY    CP267043   4.056   1.522   2.720 -0.2046 -0.2920  0.0205
18839THY    HP267044   3.995   1.440   2.680 -1.1552  0.2580  0.4395
18839THY    HP367045   3.992   1.576   2.792  0.8052  0.3147  0.4404
18839THY    HP467046   4.141   1.472   2.766 -0.5298 -0.5168 -0.7472
18839THY    CP367047   4.130   1.760   2.686 -0.5126  0.2799  0.3226
18839THY    HP567048   4.176   1.831   2.616  1.9570  1.3544 -0.0872
18839THY    HP667049   4.200   1.738   2.768 -0.9978  0.2493 -1.5408
18839THY    HP767050   4.043   1.806   2.733 -1.8898  0.8377 -2.6112
18839THY    CA367051   3.883   1.690   2.505 -0.0058 -0.6298 -0.0117
18839THY    HA367052   3.866   1.730   2.604  1.3247 -0.6455  0.6783
18839THY    CA467053   3.794   1.703   2.400  0.0199  0.6489  0.1411
18839THY    HA467054   3.700   1.754   2.421  0.3503 -0.2311  1.1692
18839THY    CA567055   3.832   1.664   2.269 -0.3489 -0.3198 -0.5039
18839THY    CM167056   3.732   1.692   2.156 -0.6991  0.2478 -0.6070
18839THY    HM167057   3.673   1.601   2.140 -1.1804 -0.6816 -0.1407
18839THY    HM267058   3.783   1.708   2.060 -0.3602  0.2443 -1.6069
18839THY    HM367059   3.670   1.779   2.177  1.9684  1.2654  1.1771
18839THY    CA667060   3.954   1.601   2.253  0.5204  0.2386  0.0633
18839THY    HA667061   3.985   1.573   2.152  2.1955 -0.1102  2.8008
18840THY      O67062   3.688   8.807   7.178 -0.1203 -0.5288 -0.3189
18840THY     HO67063   3.705   8.845   7.266 -1.0351 -0.8018  0.7933
18840THY    CA167064   3.619   8.908   7.124 -0.3305 -0.3346  0.4284
18840THY    CA267065   3.568   8.901   6.993  0.1804 -0.2525  0.0156
18840THY    CP167066   3.604   8.776   6.899  0.3066  0.1410  0.1239
18840THY    HP167067   3.702   8.736   6.929  0.8771 -2.2177 -0.4411
18840THY    CP267068   3.610   8.819   6.744  0.2279  0.1085  0.1831
18840THY    HP267069   3.673   8.907   6.728 -1.0054 -3.0271  0.6221
18840THY    HP367070   3.508   8.833   6.706 -0.4657  1.2734 -1.3295
18840THY    HP467071   3.654   8.738   6.685  0.4848  1.5353 -0.7455
18840THY    CP367072   3.494   8.659   6.909  0.0212 -0.0183 -0.5554
18840THY    HP567073   3.538   8.565   6.873  1.1896 -2.6616  0.8985
18840THY    HP667074   3.399   8.682   6.860 -0.6792  2.3433  2.1688
18840THY    HP767075   3.471   8.643   7.015 -2.0269 -0.1358  1.2370
18840THY    CA367076   3.496   9.012   6.941  0.3780  0.3683  0.5877
18840THY    HA367077   3.445   9.013   6.845  0.8204  0.1363  1.1606
18840THY    CA467078   3.468   9.118   7.025  0.3376  0.8529  0.3231
18840THY    HA467079   3.404   9.201   6.994 -1.4223  1.8065 -0.6059
18840THY    CA567080   3.522   9.130   7.152 -0.6454 -0.3172 -0.1340
18840THY    CM167081   3.491   9.251   7.244  0.1240 -0.0117  0.3217
18840THY    HM167082   3.442   9.324   7.178  0.1235  1.5719  1.8146
18840THY    HM267083   3.582   9.288   7.290  1.1597 -3.0270  1.8696
18840THY    HM367084   3.416   9.210   7.312  0.8272  0.3732 -0.3520
18840THY    CA667085   3.599   9.023   7.201 -0.1453  0.5310 -0.0260
18840THY    HA667086   3.641   9.029   7.301  1.5188 -0.0785 -0.9299
18841THY      O67087   7.768   5.213   3.967  0.2722  0.3332 -0.1233
18841THY     HO67088   7.716   5.131   3.968 -2.7542 -3.0036  1.4849
18841THY    CA167089   7.773   5.242   3.838 -0.0983 -0.0025  0.3800
18841THY    CA267090   7.795   5.376   3.791  0.3795 -0.1483 -0.7291
18841THY    CP167091   7.819   5.493   3.889  0.2705  0.1839  0.2417
18841THY    HP167092   7.835   5.459   3.992 -1.6260  0.0337 -1.2368
18841THY    CP267093   7.702   5.599   3.891  0.2324  0.4352  0.4458
18841THY    HP267094   7.732   5.682   3.956  0.8908  0.5124  0.1543
18841THY    HP367095   7.604   5.562   3.923  0.0708  0.3049  0.7623
18841THY    HP467096   7.687   5.641   3.791 -1.6025  1.1156  1.5354
18841THY    CP367097   7.953   5.564   3.862  0.4849 -0.0218  0.0624
18841THY    HP567098   8.025   5.481   3.867 -1.5701  0.7859 -1.7574
18841THY    HP667099   7.982   5.648   3.926  1.6451 -0.9409  0.3883
18841THY    HP767100   7.950   5.601   3.759 -3.4947  0.5108  1.6554
18841THY    CA367101   7.795   5.399   3.655 -0.6253 -0.6196  0.2736
18841THY    HA367102   7.805   5.503   3.625  0.4195 -3.6982 -0.6118
18841THY    CA467103   7.783   5.287   3.564 -0.2089  0.1436 -0.0413
18841THY    HA467104   7.773   5.312   3.458 -2.2257  0.3793  0.3196
18841THY    CA567105   7.769   5.159   3.613  0.2896 -0.1795  0.1026
18841THY    CM167106   7.772   5.054   3.505 -0.0039  0.7570 -0.4094
18841THY    HM167107   7.877   5.053   3.471 -0.5798 -1.0957 -0.3014
18841THY    HM267108   7.708   5.076   3.420  0.2279 -0.2944 -3.3139
18841THY    HM367109   7.755   4.951   3.538  0.8442  1.7855 -0.2493
18841THY    CA667110   7.769   5.134   3.750 -0.1416 -0.4452 -0.3052
18841THY    HA667111   7.772   5.031   3.784  0.5480 -0.4848 -0.3029
18842THY      O67112   3.126   5.475   6.491 -0.4141  0.0386 -0.5319
18842THY     HO67113   3.124   5.468   6.394 -3.2877 -0.1475  1.1229
18842THY    CA167114   3.118   5.346   6.531  0.0706 -0.1948 -0.2006
18842THY    CA267115   3.027   5.293   6.627 -0.7801 -0.2186  0.8868
18842THY    CP167116   2.929   5.383   6.703  0.4951 -0.3096  0.7050
18842THY    HP167117   2.912   5.469   6.637  0.2396  0.4262  1.2266
18842THY    CP267118   2.986   5.438   6.830 -1.2957 -0.0939  0.0788
18842THY    HP267119   3.071   5.505   6.811 -1.7192 -1.6286  0.2273
18842THY    HP367120   3.029   5.352   6.883 -1.5080 -1.2584 -0.7617
18842THY    HP467121   2.914   5.491   6.893  1.0125  1.5551  1.4416
18842THY    CP367122   2.797   5.315   6.728 -0.7955  0.3042 -0.2546
18842THY    HP567123   2.729   5.400   6.745  0.6290 -3.2772  1.8611
18842THY    HP667124   2.793   5.242   6.809 -0.4216  1.7785  1.2914
18842THY    HP767125   2.765   5.266   6.636 -2.7966  0.1960  1.1096
18842THY    CA367126   3.028   5.153   6.647  0.3119  0.6099  0.5630
18842THY    HA367127   2.953   5.104   6.709  0.1335 -1.8809 -2.6601
18842THY    CA467128   3.123   5.075   6.581 -0.3456 -0.1514  0.8062
18842THY    HA467129   3.136   4.969   6.602 -0.0122  0.6137  0.9839
18842THY    CA567130   3.209   5.122   6.490 -0.5647 -0.1114 -0.1249
18842THY    CM167131   3.310   5.039   6.420 -0.0251 -0.1910 -0.4246
18842THY    HM167132   3.358   4.975   6.494  1.2456 -0.4737  0.1678
18842THY    HM267133   3.377   5.096   6.355  1.8199  2.2159  0.2982
18842THY    HM367134   3.262   4.980   6.340 -0.5451 -0.0783 -0.1591
18842THY    CA667135   3.194   5.262   6.456  0.2268 -0.4006  0.5419
18842THY    HA667136   3.261   5.308   6.383  1.6934  1.2440  1.1451
18843THY      O67137   3.954   4.835   6.127  0.2997 -0.7350 -0.8785
18843THY     HO67138   4.045   4.862   6.108  0.8520  2.2811 -0.3074
18843THY    CA167139   3.864   4.922   6.055 -0.0935 -0.5173  1.0903
18843THY    CA267140   3.725   4.905   6.053 -0.3026 -0.8412  0.0564
18843THY    CP167141   3.653   4.795   6.137 -0.4759 -0.2424 -0.1913
18843THY    HP167142   3.724   4.711   6.132  0.4982 -0.1693  0.6184
18843THY    CP267143   3.524   4.743   6.076  0.3801  0.4690  0.4181
18843THY    HP267144   3.476   4.661   6.132 -0.6739 -0.5253  0.3394
18843THY    HP367145   3.535   4.708   5.973 -1.3963 -0.0003  1.1568
18843THY    HP467146   3.445   4.819   6.075  0.3352  0.5391  0.3724
18843THY    CP367147   3.629   4.849   6.282 -0.3349  0.7277  0.1325
18843THY    HP567148   3.725   4.867   6.333 -0.3403  0.4785  0.8744
18843THY    HP667149   3.571   4.770   6.331  3.7245  1.7406 -2.5635
18843THY    HP767150   3.568   4.940   6.278 -0.2289  0.9008  0.2118
18843THY    CA367151   3.642   4.981   5.970  0.3877 -0.9114 -0.6092
18843THY    HA367152   3.534   4.973   5.963  0.2632  0.1531  0.0059
18843THY    CA467153   3.715   5.075   5.897 -0.3129 -0.0898  0.3472
18843THY    HA467154   3.657   5.136   5.828  0.4031 -1.9717 -1.0100
18843THY    CA567155   3.854   5.090   5.900  0.2020  0.3480 -0.1783
18843THY    CM167156   3.920   5.209   5.830 -0.1815 -0.5262  0.5784
18843THY    HM167157   3.845   5.285   5.805  0.0001 -4.3121 -0.3041
18843THY    HM267158   3.973   5.174   5.740 -1.1022 -1.1543  0.7729
18843THY    HM367159   4.000   5.253   5.892 -1.3268  2.2978 -1.0904
18843THY    CA667160   3.933   5.015   5.979 -0.2466 -0.1763  0.9727
18843THY    HA667161   4.041   5.022   5.979 -0.1888 -0.7223  0.1942
18844THY      O67162   6.637   4.740   6.053  0.1668  0.3327 -0.4786
18844THY     HO67163   6.551   4.757   6.094  0.6317  1.6898 -1.2239
18844THY    CA167164   6.640   4.751   5.912  0.5141 -1.0163 -0.2252
18844THY    CA267165   6.762   4.752   5.838  0.2786 -0.1521 -0.4633
18844THY    CP167166   6.902   4.751   5.906 -0.3339 -0.0739 -0.6055
18844THY    HP167167   6.866   4.746   6.010 -0.0979 -0.0202 -1.3150
18844THY    CP267168   6.964   4.885   5.860  0.5598  0.1198 -0.1750
18844THY    HP267169   6.987   4.884   5.753  0.0848  0.0190 -1.3666
18844THY    HP367170   7.050   4.898   5.927 -0.0019  1.1530 -1.4865
18844THY    HP467171   6.897   4.968   5.885  1.4669  0.6983  0.4105
18844THY    CP367172   6.982   4.633   5.853  0.1419  0.3143  0.5862
18844THY    HP567173   7.072   4.617   5.915 -1.1227  2.1475  0.2210
18844THY    HP667174   7.013   4.648   5.749 -2.9461 -1.0835 -1.7046
18844THY    HP767175   6.928   4.538   5.841 -0.6283 -1.6540  1.2352
18844THY    CA367176   6.753   4.759   5.694 -0.0792 -0.2174 -0.2475
18844THY    HA367177   6.839   4.754   5.629 -0.4336 -0.7912  0.7401
18844THY    CA467178   6.621   4.768   5.634 -0.1126  0.7364  0.6699
18844THY    HA467179   6.608   4.776   5.527 -0.7503  0.5845 -1.5762
18844THY    CA567180   6.504   4.783   5.713  0.3609  0.3573  0.2489
18844THY    CM167181   6.370   4.794   5.650  0.0324 -0.6932  0.1229
18844THY    HM167182   6.371   4.866   5.567  0.6585  0.1499  1.1128
18844THY    HM267183   6.291   4.811   5.725  1.1659  1.3979 -2.9890
18844THY    HM367184   6.362   4.692   5.610  0.3395 -0.7420  0.1184
18844THY    CA667185   6.519   4.771   5.849  0.2458 -0.3742  0.0758
18844THY    HA667186   6.428   4.765   5.909 -1.0974 -2.3391 -0.2355
18845THY      O67187   5.665   6.217   5.958 -0.1723  0.7939  0.0229
18845THY     HO67188   5.616   6.148   6.005  0.7978  1.5222 -0.1971
18845THY    CA167189   5.644   6.211   5.820 -0.3038 -0.1649 -0.3281
18845THY    CA267190   5.703   6.303   5.733 -0.0843 -0.3753 -0.0148
18845THY    CP167191   5.782   6.420   5.794  0.5124 -0.0610  0.5378
18845THY    HP167192   5.751   6.449   5.896  1.9627  0.3219  0.7936
18845THY    CP267193   5.767   6.558   5.719 -0.0354 -0.1768  0.3040
18845THY    HP267194   5.660   6.576   5.703 -0.3471  0.4875 -0.8611
18845THY    HP367195   5.816   6.538   5.623  0.6184  0.4810 -1.4720
18845THY    HP467196   5.807   6.644   5.773  1.8494 -0.4956 -0.3351
18845THY    CP367197   5.930   6.380   5.813  0.5300 -0.1308 -0.6509
18845THY    HP567198   5.947   6.288   5.871 -0.6168 -1.6022 -1.8335
18845THY    HP667199   5.979   6.466   5.860  2.2027 -1.2041 -0.9820
18845THY    HP767200   5.981   6.355   5.720  1.0260 -0.2326  0.6570
18845THY    CA367201   5.670   6.291   5.594 -0.1113 -0.7398 -0.1839
18845THY    HA367202   5.703   6.366   5.523 -0.6444 -1.0497 -0.2378
18845THY    CA467203   5.596   6.191   5.543  0.0275 -0.5186  0.1055
18845THY    HA467204   5.583   6.181   5.436  0.4956 -0.6133  0.5000
18845THY    CA567205   5.532   6.107   5.635 -0.1225 -0.8648  0.3890
18845THY    CM167206   5.428   6.007   5.586 -0.0056  0.1498  0.7124
18845THY    HM167207   5.369   5.969   5.670 -1.4199 -1.6486 -1.3959
18845THY    HM267208   5.479   5.920   5.543 -0.1043 -0.1100  0.7786
18845THY    HM367209   5.349   6.042   5.518 -1.2105  0.5785 -1.0074
18845THY    CA667210   5.542   6.129   5.774  0.0414 -0.2255  0.2090
18845THY    HA667211   5.474   6.083   5.844 -0.1151  1.1394  2.3651
18846THY      O67212   3.383   7.537   5.532 -0.5333 -0.2677  0.7749
18846THY     HO67213   3.361   7.626   5.501 -0.6200  0.7986  1.1389
18846THY    CA167214   3.449   7.476   5.430 -0.1736 -0.2344 -0.2031
18846THY    CA267215   3.480   7.339   5.432 -0.1525  0.2999 -0.4461
18846THY    CP167216   3.430   7.246   5.544 -0.4088  0.2253 -0.0929
18846THY    HP167217   3.372   7.311   5.611 -1.5402  0.9171 -1.7395
18846THY    CP267218   3.538   7.177   5.613 -1.2957  0.5535 -0.6325
18846THY    HP267219   3.616   7.251   5.635  0.5038 -0.9666 -1.9695
18846THY    HP367220   3.580   7.109   5.537  0.8575 -0.4294  1.6617
18846THY    HP467221   3.504   7.117   5.699 -1.3791  1.0953  0.1780
18846THY    CP367222   3.328   7.144   5.491 -0.3513  0.3970 -0.4331
18846THY    HP567223   3.297   7.075   5.570 -0.3299  0.3139 -0.5382
18846THY    HP667224   3.372   7.085   5.410 -0.3351  1.1020 -1.4176
18846THY    HP767225   3.245   7.202   5.449  1.3831 -3.2089 -0.2909
18846THY    CA367226   3.549   7.285   5.319 -0.6294 -0.2952  0.2028
18846THY    HA367227   3.582   7.181   5.316  1.8251  1.5420  0.8274
18846THY    CA467228   3.591   7.373   5.216 -0.6290  0.1335 -0.4117
18846THY    HA467229   3.655   7.338   5.135  0.7913 -0.0990  2.4451
18846THY    CA567230   3.565   7.509   5.219  0.1302  0.6999 -0.0655
18846THY    CM167231   3.610   7.600   5.114 -0.7731  0.3247  0.1815
18846THY    HM167232   3.529   7.669   5.089 -1.6551  2.7589  0.1460
18846THY    HM267233   3.667   7.557   5.031 -0.0234  0.9151  0.0090
18846THY    HM367234   3.689   7.661   5.160  0.1055 -0.0804 -0.6266
18846THY    CA667235   3.491   7.556   5.330 -0.2148 -0.4681  0.6848
18846THY    HA667236   3.457   7.659   5.336 -2.5189  1.3797 -0.0955
18847THY      O67237   4.483   8.174   2.289  0.1856 -0.6290 -0.2274
18847THY     HO67238   4.508   8.135   2.374 -0.1533  1.4574  3.5673
18847THY    CA167239   4.550   8.290   2.285  0.0456 -0.1638 -0.2947
18847THY    CA267240   4.515   8.396   2.199  0.1154  0.4936  0.3511
18847THY    CP167241   4.391   8.371   2.115  0.0041  0.1778 -0.5278
18847THY    HP167242   4.309   8.332   2.177  0.0958  0.7032  0.1028
18847THY    CP267243   4.411   8.265   2.005 -0.0273  0.3613  0.5085
18847THY    HP267244   4.483   8.300   1.931  0.2283 -0.0586 -0.8568
18847THY    HP367245   4.321   8.248   1.945  0.3477 -0.8849  2.5792
18847THY    HP467246   4.445   8.169   2.046 -0.8532 -1.1678 -0.4665
18847THY    CP367247   4.324   8.504   2.068  0.3319  0.0500  0.0824
18847THY    HP567248   4.380   8.573   2.004 -1.2365 -0.3312  1.0589
18847THY    HP667249   4.286   8.572   2.145  0.6443  1.6874 -1.5217
18847THY    HP767250   4.235   8.469   2.015  0.7834 -0.5955 -0.1181
18847THY    CA367251   4.601   8.508   2.184  0.4616  0.1356 -0.6714
18847THY    HA367252   4.591   8.582   2.106  1.2147  0.7246  0.0782
18847THY    CA467253   4.721   8.511   2.268  0.6508 -0.3970 -0.5245
18847THY    HA467254   4.785   8.599   2.267 -0.4166  0.6615  0.2807
18847THY    CA567255   4.755   8.405   2.349 -0.7245 -0.3046  0.5747
18847THY    CM167256   4.893   8.406   2.412  1.1931  0.2902 -0.4690
18847THY    HM167257   4.912   8.326   2.485 -0.7264  1.6335  0.2277
18847THY    HM267258   4.917   8.501   2.460 -0.4620 -1.6853  1.0270
18847THY    HM367259   4.969   8.402   2.333  0.8313 -0.0250 -1.5748
18847THY    CA667260   4.679   8.288   2.345 -0.8916  0.2143  0.0262
18847THY    HA667261   4.693   8.201   2.408 -3.0628 -0.8815 -1.2085
18848THY      O67262   0.479   2.897   6.612  0.3745  0.1318 -0.0369
18848THY     HO67263   0.537   2.920   6.687  0.8846 -0.6945  1.5328
18848THY    CA167264   0.508   2.769   6.589  0.6068  0.8106  0.1945
18848THY    CA267265   0.524   2.702   6.469 -0.0141  1.3532  0.0125
18848THY    CP167266   0.499   2.775   6.339 -0.6549  0.3282 -0.8338
18848THY    HP167267   0.408   2.833   6.356 -1.0446  1.7284 -1.7962
18848THY    CP267268   0.460   2.687   6.217  0.5222 -0.6017  0.4144
18848THY    HP267269   0.366   2.632   6.236  1.0091  1.1711  0.1339
18848THY    HP367270   0.537   2.612   6.199 -0.3387  1.3090 -1.0145
18848THY    HP467271   0.444   2.751   6.129  1.6268  0.1992  1.8354
18848THY    CP367272   0.611   2.874   6.306  0.0207 -0.0728 -0.1790
18848THY    HP567273   0.593   2.940   6.221 -2.4583  0.7533  0.3203
18848THY    HP667274   0.707   2.822   6.291  1.4033 -0.9040  2.4333
18848THY    HP767275   0.623   2.939   6.393  0.8995  1.2938 -2.0603
18848THY    CA367276   0.564   2.569   6.475 -0.5393 -0.2133  0.2560
18848THY    HA367277   0.588   2.509   6.387  0.3559  0.4605 -0.4096
18848THY    CA467278   0.594   2.513   6.601 -0.4307 -0.0462 -0.3012
18848THY    HA467279   0.628   2.409   6.605 -0.0781  1.1784 -0.1569
18848THY    CA567280   0.565   2.577   6.719 -0.1697 -0.2103 -0.3398
18848THY    CM167281   0.568   2.493   6.843 -0.3015 -0.4748 -0.0055
18848THY    HM167282   0.490   2.526   6.913 -0.0025 -1.0930  2.1430
18848THY    HM267283   0.669   2.486   6.887 -0.3077 -0.2536  1.1300
18848THY    HM367284   0.538   2.389   6.826 -0.9339  0.3447  0.0287
18848THY    CA667285   0.513   2.706   6.709 -0.5412  0.2588  0.1691
18848THY    HA667286   0.482   2.756   6.800  2.3173  1.3164  0.2260
18849THY      O67287   4.308   5.505   3.338  0.5276 -0.2549  0.7294
18849THY     HO67288   4.395   5.461   3.339  1.3414 -0.6017  2.2573
18849THY    CA167289   4.221   5.399   3.333  0.2795  0.6328  0.1518
18849THY    CA267290   4.078   5.425   3.336 -0.1969 -0.2153  0.1851
18849THY    CP167291   4.024   5.566   3.343 -0.3256 -0.1918 -0.6296
18849THY    HP167292   4.093   5.639   3.387 -0.8055 -0.2201 -0.1518
18849THY    CP267293   3.905   5.590   3.421  0.3158  0.5698 -0.2505
18849THY    HP267294   3.935   5.611   3.525  0.7154  0.5917 -0.9031
18849THY    HP367295   3.827   5.513   3.432 -1.9826 -0.0425  1.8499
18849THY    HP467296   3.852   5.681   3.390 -1.7295  1.4701 -1.0835
18849THY    CP367297   3.997   5.608   3.198  0.3438  0.2835  0.3464
18849THY    HP567298   3.925   5.545   3.144 -1.2839 -0.0671  2.3959
18849THY    HP667299   4.087   5.606   3.137 -0.6833 -1.3183 -2.2814
18849THY    HP767300   3.971   5.714   3.190 -0.4408 -1.8054  0.0472
18849THY    CA367301   3.990   5.317   3.333  0.6003  0.1851 -0.0006
18849THY    HA367302   3.883   5.332   3.342  0.6762  0.0113  0.6670
18849THY    CA467303   4.048   5.187   3.320 -0.5471 -1.0974 -0.0779
18849THY    HA467304   3.988   5.097   3.327 -0.7736  1.4327  0.1910
18849THY    CA567305   4.184   5.162   3.321  1.0439  0.4834  0.2225
18849THY    CM167306   4.231   5.027   3.306 -0.1646 -0.4720  0.4799
18849THY    HM167307   4.340   5.023   3.314 -0.2605  1.0793  0.2191
18849THY    HM267308   4.197   4.980   3.213 -1.9254 -0.0914  0.9104
18849THY    HM367309   4.195   4.954   3.380  0.1354 -2.0651 -1.3615
18849THY    CA667310   4.276   5.268   3.328 -0.6235 -0.1126  0.4543
18849THY    HA667311   4.384   5.255   3.334 -0.4625  0.8268  1.9582
18850THY      O67312   5.955   4.019   1.959 -0.1753 -0.4155 -0.4347
18850THY     HO67313   5.884   4.029   1.894  1.0881 -1.8173 -0.3034
18850THY    CA167314   6.034   4.129   1.955 -0.5508  0.2232 -0.3310
18850THY    CA267315   6.149   4.135   2.033  1.0890 -0.5717 -0.4375
18850THY    CP167316   6.174   4.020   2.132 -0.3052  0.4928  0.3205
18850THY    HP167317   6.118   3.932   2.099  0.2346  0.8726 -0.1794
18850THY    CP267318   6.133   4.071   2.272 -0.0100 -0.3834 -0.3690
18850THY    HP267319   6.213   4.135   2.307 -0.6400 -0.3757  0.4254
18850THY    HP367320   6.110   3.989   2.341 -0.2824  1.4353  1.1817
18850THY    HP467321   6.043   4.131   2.251 -2.2447 -1.6139 -3.7868
18850THY    CP367322   6.322   3.986   2.154 -0.0394 -0.5190  0.0030
18850THY    HP567323   6.380   4.074   2.185 -2.3477  1.5098  0.8900
18850THY    HP667324   6.357   3.957   2.054  3.0506  0.0584  1.2216
18850THY    HP767325   6.328   3.907   2.229 -1.4711  0.3070  0.6511
18850THY    CA367326   6.225   4.250   2.021 -0.0741  0.3574 -0.1345
18850THY    HA367327   6.317   4.264   2.077  0.9445 -1.5042  0.9945
18850THY    CA467328   6.196   4.349   1.929 -0.6465  0.8995 -0.2270
18850THY    HA467329   6.270   4.426   1.912  0.1325  1.0154 -0.9379
18850THY    CA567330   6.084   4.335   1.847 -0.1526 -0.0591  0.3680
18850THY    CM167331   6.063   4.434   1.741 -0.1394 -0.3519 -0.2010
18850THY    HM167332   6.129   4.521   1.749  0.2133 -2.0776 -0.2775
18850THY    HM267333   5.959   4.468   1.734 -0.7762 -1.6407 -2.2802
18850THY    HM367334   6.107   4.391   1.650  1.3466 -0.5634  1.5944
18850THY    CA667335   5.999   4.222   1.863 -0.2023 -0.0203 -0.0385
18850THY    HA667336   5.912   4.203   1.800 -0.9943  1.7666 -3.0310
18851THY      O67337   0.860   6.033   4.491 -1.1033  0.0069  0.2093
18851THY     HO67338   0.764   6.016   4.485 -0.9465  0.5623 -0.9735
18851THY    CA167339   0.895   6.115   4.387 -0.3586 -0.0469 -0.7898
18851THY    CA267340   1.030   6.148   4.356  0.7380 -0.2364  0.6689
18851THY    CP167341   1.139   6.083   4.451 -0.0032 -0.2595 -0.6372
18851THY    HP167342   1.108   5.984   4.484  0.2188 -0.1655 -0.6750
18851THY    CP267343   1.171   6.177   4.565 -0.2857 -1.4410 -0.5469
18851THY    HP267344   1.269   6.165   4.610 -0.0018 -1.9030 -0.0436
18851THY    HP367345   1.110   6.163   4.654  0.9992 -0.3472  0.5098
18851THY    HP467346   1.175   6.283   4.535  1.2723 -1.3944 -0.5698
18851THY    CP367347   1.267   6.069   4.373 -0.0658  0.5622  0.3903
18851THY    HP567348   1.306   6.169   4.347  1.2724 -1.3399 -0.5637
18851THY    HP667349   1.250   6.016   4.278 -1.9085  0.6390  0.7722
18851THY    HP767350   1.349   6.014   4.419  1.3338 -1.5247  0.6022
18851THY    CA367351   1.063   6.231   4.251 -0.0914 -0.0839  0.6553
18851THY    HA367352   1.165   6.246   4.219 -0.8684 -1.7702  2.7824
18851THY    CA467353   0.957   6.280   4.166  0.2152 -0.1564  0.1059
18851THY    HA467354   0.978   6.340   4.078  3.2603 -0.0562 -0.6490
18851THY    CA567355   0.818   6.260   4.203  0.0537  0.1058  1.3659
18851THY    CM167356   0.703   6.310   4.121  0.6435  0.0476  0.0406
18851THY    HM167357   0.619   6.240   4.112 -0.2715  0.0473  1.0988
18851THY    HM267358   0.738   6.333   4.020  1.2036 -0.0481 -1.1787
18851THY    HM367359   0.664   6.400   4.170  5.3758 -0.8955  2.9269
18851THY    CA667360   0.791   6.182   4.314 -0.4608 -0.3499  0.2172
18851THY    HA667361   0.686   6.165   4.336 -1.3688 -2.2962  2.7207
18852THY      O67362   0.588   4.013   2.289 -0.7865 -0.2961 -0.2367
18852THY     HO67363   0.566   3.944   2.225 -0.3574 -1.5319  0.7509
18852THY    CA167364   0.698   4.071   2.230  0.0717 -0.2442 -0.6658
18852THY    CA267365   0.744   4.200   2.274 -0.4058  0.1184  0.3862
18852THY    CP167366   0.667   4.279   2.382 -0.0201 -0.4572 -0.5058
18852THY    HP167367   0.561   4.259   2.361 -0.5159  1.9939 -0.6546
18852THY    CP267368   0.690   4.433   2.385 -0.4194  0.2876 -0.3709
18852THY    HP267369   0.672   4.484   2.290 -0.9366  0.1432 -0.8084
18852THY    HP367370   0.795   4.460   2.400 -0.2160  0.6480 -1.3201
18852THY    HP467371   0.632   4.485   2.463 -4.0004 -1.9883 -0.5325
18852THY    CP367372   0.689   4.220   2.521 -0.4484 -0.4846  0.8868
18852THY    HP567373   0.639   4.283   2.595 -1.7141 -1.1234  0.6685
18852THY    HP667374   0.798   4.218   2.530 -0.0416 -3.9462 -1.7432
18852THY    HP767375   0.649   4.118   2.534  3.0810 -0.8737 -0.6785
18852THY    CA367376   0.858   4.249   2.212 -0.3033 -0.2237 -0.7402
18852THY    HA367377   0.898   4.348   2.232  1.6391  2.8702 -1.9927
18852THY    CA467378   0.921   4.180   2.108 -0.1922  0.4755 -0.3159
18852THY    HA467379   1.011   4.222   2.062 -0.9044 -0.3030  0.4024
18852THY    CA567380   0.870   4.051   2.063 -1.0444  0.3067  0.1426
18852THY    CM167381   0.941   3.984   1.954  0.3630  0.1234  1.3569
18852THY    HM167382   0.975   4.060   1.883 -1.7639 -0.9541  1.3963
18852THY    HM267383   0.872   3.922   1.895 -0.4760  3.8701 -1.6354
18852THY    HM367384   1.029   3.927   1.982 -1.2714  2.5153 -0.1808
18852THY    CA667385   0.760   3.998   2.127  1.0205 -0.7501 -0.2840
18852THY    HA667386   0.734   3.897   2.095 -1.2864  0.7437 -0.2195
18853THY      O67387   3.906   4.356   1.808  0.1857  0.3679 -0.3810
18853THY     HO67388   3.879   4.448   1.824 -0.1123  2.8790 -0.8494
18853THY    CA167389   3.965   4.340   1.928  1.1120  0.2371  0.5124
18853THY    CA267390   4.066   4.249   1.950 -0.1381 -0.1232 -1.1336
18853THY    CP167391   4.130   4.178   1.829 -0.5580 -0.3448 -0.5373
18853THY    HP167392   4.123   4.233   1.735  1.6376 -0.1050  0.2640
18853THY    CP267393   4.066   4.040   1.817 -0.2655 -0.1733 -0.7132
18853THY    HP267394   4.074   4.004   1.714  1.6142 -1.2918  2.4533
18853THY    HP367395   3.958   4.048   1.833 -0.4254 -0.5715 -1.8088
18853THY    HP467396   4.107   3.962   1.883  2.1826 -0.1422  0.4876
18853THY    CP367397   4.287   4.153   1.836  0.7805  0.0795 -0.3891
18853THY    HP567398   4.338   4.241   1.876  1.8351 -0.9963 -0.4871
18853THY    HP667399   4.327   4.135   1.735  2.4171  1.0489 -2.6918
18853THY    HP767400   4.304   4.071   1.907 -1.9051 -0.4581 -1.5221
18853THY    CA367401   4.116   4.234   2.076 -0.2600  0.0653 -0.1765
18853THY    HA367402   4.193   4.161   2.101  0.2580  0.1663  0.3906
18853THY    CA467403   4.071   4.314   2.181  0.2786 -0.3067  0.1022
18853THY    HA467404   4.113   4.307   2.280 -1.0098  0.2531  0.0142
18853THY    CA567405   3.975   4.416   2.161 -0.2717  0.3190  0.6934
18853THY    CM167406   3.922   4.508   2.258  0.4963 -0.7234 -0.4123
18853THY    HM167407   3.815   4.528   2.256  0.3706  0.4745 -0.8689
18853THY    HM267408   3.976   4.603   2.257 -1.0617  0.2066  0.5285
18853THY    HM367409   3.936   4.463   2.357 -0.2874 -0.5981 -0.3903
18853THY    CA667410   3.919   4.423   2.029  1.2185  0.0833 -0.1064
18853THY    HA667411   3.846   4.498   1.999  1.3640 -2.1508 -0.8016
18854THY      O67412   6.983   2.794   3.655  0.2848 -0.6268  0.4523
18854THY     HO67413   6.894   2.772   3.622 -0.2626  1.6725 -1.1421
18854THY    CA167414   7.070   2.710   3.586  0.6508 -0.0922  0.2477
18854THY    CA267415   7.188   2.763   3.525  0.2326  0.1341 -0.2892
18854THY    CP167416   7.233   2.911   3.541  0.3804  0.4008  0.4377
18854THY    HP167417   7.148   2.973   3.572 -0.1177  0.6013 -0.3378
18854THY    CP267418   7.299   2.968   3.420  1.0188 -0.2180  0.2858
18854THY    HP267419   7.241   2.966   3.327 -0.4164  0.6131 -2.1071
18854THY    HP367420   7.393   2.920   3.392  1.5100  0.1921  1.0025
18854THY    HP467421   7.328   3.070   3.448  2.1312 -0.0780 -0.0631
18854THY    CP367422   7.327   2.924   3.663 -0.6630  0.4663  0.0213
18854THY    HP567423   7.423   2.882   3.630 -1.3107 -1.1442 -0.2847
18854THY    HP667424   7.287   2.872   3.750 -4.2450 -0.8196  0.3512
18854THY    HP767425   7.360   3.027   3.681  0.2776  1.5827 -0.4559
18854THY    CA367426   7.265   2.672   3.450  0.0239  0.3148  0.4233
18854THY    HA367427   7.358   2.712   3.412 -0.4088 -0.8547  0.3574
18854THY    CA467428   7.229   2.538   3.427 -0.0956  0.0783 -0.3736
18854THY    HA467429   7.291   2.473   3.366 -1.8560  0.1902 -2.2779
18854THY    CA567430   7.108   2.491   3.488 -0.3583  0.3169  0.3669
18854THY    CM167431   7.080   2.345   3.461 -0.3822 -0.0136  0.0636
18854THY    HM167432   7.045   2.321   3.360 -1.4139 -0.3154  2.4994
18854THY    HM267433   7.003   2.313   3.533  2.9237  2.6941 -2.6779
18854THY    HM367434   7.164   2.281   3.490 -0.6714 -1.0170 -0.8013
18854THY    CA667435   7.028   2.572   3.565  0.2074  0.1014  0.4832
18854THY    HA667436   6.942   2.528   3.615  0.6715 -0.5867 -1.2961
18855THY      O67437   7.945   0.179   2.517  0.1313  0.2309  0.9647
18855THY     HO67438   7.863   0.206   2.473  1.4079 -0.8337  3.4909
18855THY    CA167439   8.023   0.287   2.528  0.5107 -0.0684 -0.0330
18855THY    CA267440   8.161   0.282   2.555  0.3838 -0.4178  0.1315
18855THY    CP167441   8.234   0.151   2.571 -0.6617 -0.4626  0.4417
18855THY    HP167442   8.177   0.061   2.545 -1.9488  1.9472  0.4931
18855THY    CP267443   8.272   0.125   2.725 -0.3252 -0.3566  0.0291
18855THY    HP267444   8.343   0.198   2.764  0.1706 -1.6284  0.2524
18855THY    HP367445   8.312   0.024   2.739 -0.8960 -0.2073 -0.1856
18855THY    HP467446   8.179   0.140   2.781 -0.6487 -0.3379 -1.8036
18855THY    CP367447   8.358   0.138   2.481 -0.1299 -0.1603  0.0223
18855THY    HP567448   8.335   0.162   2.376  0.0467 -0.2354 -0.1323
18855THY    HP667449   8.402   0.038   2.489 -0.5004  2.5020  0.0139
18855THY    HP767450   8.435   0.203   2.526  0.8780  0.2474 -1.4048
18855THY    CA367451   8.235   0.401   2.560 -0.5003  0.4282  0.7445
18855THY    HA367452   8.342   0.397   2.580 -0.7679  1.7738 -1.4828
18855THY    CA467453   8.172   0.526   2.532 -0.1804 -0.9512  0.0496
18855THY    HA467454   8.227   0.619   2.520 -2.6856 -1.9699  1.4797
18855THY    CA567455   8.033   0.534   2.514  0.0886  0.5416 -0.1443
18855THY    CM167456   7.964   0.654   2.478  0.2810  0.2521 -0.2052
18855THY    HM167457   7.938   0.661   2.372  0.2106  0.1601 -1.5828
18855THY    HM267458   8.007   0.747   2.516  1.1970 -1.3900  0.0871
18855THY    HM367459   7.861   0.647   2.515 -0.1376 -1.0821 -1.9062
18855THY    CA667460   7.961   0.416   2.504 -1.1878  0.8587  0.0405
18855THY    HA667461   7.856   0.419   2.476 -1.5680  1.7856 -2.1850
18856THY      O67462   5.231   4.544   6.019  0.0844  0.0771  0.6393
18856THY     HO67463   5.269   4.547   6.108  1.9252 -0.6537  0.2231
18856THY    CA167464   5.173   4.663   5.986 -0.2406 -0.4646  0.0030
18856THY    CA267465   5.072   4.673   5.890 -0.0601 -0.9661  1.2504
18856THY    CP167466   5.026   4.550   5.805 -0.8097 -0.1620 -1.0164
18856THY    HP167467   5.075   4.456   5.831  1.0588  0.3622  0.0437
18856THY    CP267468   5.067   4.575   5.657  0.2933  0.4355  0.8079
18856THY    HP267469   4.996   4.647   5.614 -1.3049  0.7446 -0.5152
18856THY    HP367470   5.054   4.484   5.598  0.9439 -1.3833  1.8457
18856THY    HP467471   5.171   4.610   5.657  1.1739 -2.2517 -1.4145
18856THY    CP367472   4.876   4.540   5.831  0.0826  0.1555  0.6515
18856THY    HP567473   4.845   4.471   5.751  2.7301 -0.4262  0.0260
18856THY    HP667474   4.809   4.625   5.813 -3.9957  0.0917 -2.2605
18856THY    HP767475   4.850   4.495   5.927 -1.1081 -0.1669  0.6132
18856THY    CA367476   5.020   4.802   5.865 -0.4603 -0.2576 -0.1027
18856THY    HA367477   4.956   4.816   5.778  0.2470 -0.5405  1.6687
18856THY    CA467478   5.073   4.915   5.929  0.4827  0.0975  0.3169
18856THY    HA467479   5.034   5.015   5.910 -1.2010 -1.5479 -0.5756
18856THY    CA567480   5.177   4.903   6.025  0.4770 -0.3064  0.8427
18856THY    CM167481   5.228   5.027   6.097 -0.0893  0.4812 -0.3622
18856THY    HM167482   5.140   5.084   6.128 -0.0108 -0.1144  0.0997
18856THY    HM267483   5.281   5.089   6.024 -2.0592 -0.0827  0.7422
18856THY    HM367484   5.293   5.001   6.181  0.8574 -0.0875  0.1227
18856THY    CA667485   5.229   4.771   6.052 -0.5702 -0.2605  0.1066
18856THY    HA667486   5.312   4.756   6.121 -1.2881  0.5802 -0.0751
18857THY      O67487   6.084   3.144   2.026 -0.9353 -0.1018 -0.6288
18857THY     HO67488   6.157   3.130   1.963  0.0539  1.2635 -2.0104
18857THY    CA167489   6.135   3.220   2.124 -0.2667 -0.0956 -0.2263
18857THY    CA267490   6.096   3.208   2.262 -1.2610 -0.0531 -0.4034
18857THY    CP167491   5.991   3.111   2.309  1.2359  0.1191  0.1387
18857THY    HP167492   5.934   3.078   2.222  0.9699  0.6982 -0.9572
18857THY    CP267493   5.884   3.181   2.407 -0.2025 -0.2949  0.0843
18857THY    HP267494   5.932   3.205   2.503 -2.0952  0.2503  1.8652
18857THY    HP367495   5.798   3.117   2.430  0.1437 -0.3449 -0.4126
18857THY    HP467496   5.841   3.268   2.358 -2.2757 -0.0482 -0.7538
18857THY    CP367497   6.039   2.981   2.381 -0.0941  0.3994  0.1118
18857THY    HP567498   6.100   2.916   2.317  0.2643  0.7642  0.0890
18857THY    HP667499   5.948   2.929   2.413 -1.4438 -0.2936  1.8969
18857THY    HP767500   6.090   3.008   2.474 -0.2691  0.5381 -0.0359
18857THY    CA367501   6.164   3.289   2.350 -0.4852 -0.2918  0.7493
18857THY    HA367502   6.140   3.292   2.455 -0.5807 -0.3202  1.0537
18857THY    CA467503   6.266   3.372   2.316  0.4440 -0.5270  0.4286
18857THY    HA467504   6.311   3.450   2.378 -2.2732  0.5379  1.2762
18857THY    CA567505   6.298   3.390   2.181 -0.8099  0.4906 -0.3017
18857THY    CM167506   6.395   3.495   2.145 -0.7423  0.6397  0.0037
18857THY    HM167507   6.396   3.511   2.037 -0.5950  0.7259  0.6098
18857THY    HM267508   6.496   3.458   2.163 -0.7728  1.6236  0.3643
18857THY    HM367509   6.362   3.589   2.192 -2.5427 -2.2871  0.9688
18857THY    CA667510   6.239   3.312   2.081  0.1306  0.0700  0.8114
18857THY    HA667511   6.258   3.333   1.976 -2.3915 -0.6729 -0.2221
18858THY      O67512   2.750   1.602   7.060  0.5612  0.0747 -0.1053
18858THY     HO67513   2.664   1.573   7.026  0.8553  0.4816 -1.4969
18858THY    CA167514   2.780   1.527   7.171  0.5450  0.2213  0.4156
18858THY    CA267515   2.893   1.559   7.246 -0.1826  0.4176 -0.0009
18858THY    CP167516   2.985   1.665   7.198  0.7270  0.0179 -0.5042
18858THY    HP167517   2.971   1.692   7.092  2.7059 -0.0568  0.4259
18858THY    CP267518   3.137   1.626   7.211  0.5355 -0.6931  0.3167
18858THY    HP267519   3.161   1.549   7.137  0.5253  0.3456 -0.7264
18858THY    HP367520   3.181   1.594   7.306  2.2313 -1.6353 -0.2832
18858THY    HP467521   3.201   1.713   7.190  0.6307 -0.1311  0.3858
18858THY    CP367522   2.955   1.784   7.297 -0.5714 -0.6133 -0.0974
18858THY    HP567523   2.859   1.832   7.272  0.8440 -1.4852  2.4318
18858THY    HP667524   3.019   1.866   7.264  0.3951  1.5539  0.0727
18858THY    HP767525   2.962   1.771   7.406 -1.9276 -0.5588 -0.5439
18858THY    CA367526   2.915   1.497   7.368  0.5844 -0.9349 -0.0712
18858THY    HA367527   3.010   1.512   7.418  0.9227 -1.0069 -1.7681
18858THY    CA467528   2.823   1.396   7.409 -0.2328  0.0012 -0.1215
18858THY    HA467529   2.845   1.341   7.500 -0.7805 -0.8035 -1.7228
18858THY    CA567530   2.718   1.350   7.324  1.1968 -0.4151 -0.0168
18858THY    CM167531   2.635   1.223   7.356 -0.0415 -0.3175  0.9639
18858THY    HM167532   2.579   1.235   7.450 -0.1387 -0.1929 -0.2689
18858THY    HM267533   2.693   1.130   7.362 -4.0610 -1.9505 -1.9751
18858THY    HM367534   2.553   1.213   7.283 -0.7157  0.1620  2.6473
18858THY    CA667535   2.697   1.421   7.203  0.0092 -0.9056  0.1572
18858THY    HA667536   2.614   1.392   7.139 -1.3921  0.4049  1.1164
18859THY      O67537   6.289   2.403   4.873  0.3934  0.2891  0.5697
18859THY     HO67538   6.213   2.353   4.909  0.0934 -2.3405 -1.0529
18859THY    CA167539   6.257   2.466   4.751  0.2884 -0.1192  0.1865
18859THY    CA267540   6.346   2.516   4.651 -0.6300 -0.3839 -0.7397
18859THY    CP167541   6.494   2.514   4.688  1.1088 -0.3729 -0.1136
18859THY    HP167542   6.507   2.479   4.791 -0.0173  1.1273  3.4336
18859THY    CP267543   6.568   2.648   4.657  0.1666 -0.4123 -0.0420
18859THY    HP267544   6.669   2.637   4.697 -0.1736  1.0999  1.8031
18859THY    HP367545   6.532   2.741   4.703 -0.0086 -2.2250  0.8460
18859THY    HP467546   6.597   2.672   4.554  0.2579 -0.5942 -0.9038
18859THY    CP367547   6.571   2.410   4.605 -0.2164  0.2954  0.6736
18859THY    HP567548   6.679   2.410   4.619 -0.0118 -0.3061 -2.7894
18859THY    HP667549   6.549   2.437   4.501  0.9522  0.4606  2.3757
18859THY    HP767550   6.535   2.309   4.629  0.4638  0.7988  0.5491
18859THY    CA367551   6.300   2.577   4.535 -0.1433  0.1517 -0.6061
18859THY    HA367552   6.363   2.612   4.453 -0.4071 -0.9821 -2.6557
18859THY    CA467553   6.164   2.575   4.513  0.3032 -0.4526 -0.9891
18859THY    HA467554   6.121   2.615   4.422 -2.6989  1.1042 -0.3264
18859THY    CA567555   6.071   2.528   4.612  0.6233  0.2035  0.3281
18859THY    CM167556   5.927   2.569   4.590  0.2570  0.5129  0.0814
18859THY    HM167557   5.924   2.679   4.582  1.0517  2.5298  0.2913
18859THY    HM267558   5.861   2.545   4.674 -3.3334 -2.5138 -1.6473
18859THY    HM367559   5.878   2.512   4.511 -2.3829  1.4241  0.9224
18859THY    CA667560   6.119   2.481   4.737 -0.0575 -0.0651  1.4444
18859THY    HA667561   6.048   2.446   4.812 -0.2214 -0.8824 -0.0524
18860THY      O67562   1.271   3.100   5.121  0.8016 -0.1237  0.3991
18860THY     HO67563   1.224   3.112   5.205 -1.6212 -1.0534 -1.5858
18860THY    CA167564   1.162   3.096   5.039  0.0975 -0.1232 -0.5961
18860THY    CA267565   1.166   3.162   4.907  0.4979  0.3718  0.6541
18860THY    CP167566   1.304   3.207   4.854 -0.1621 -0.5583  0.1740
18860THY    HP167567   1.353   3.273   4.926  0.8308 -2.7755  2.0406
18860THY    CP267568   1.309   3.299   4.732  0.3194 -0.1869 -0.8227
18860THY    HP267569   1.417   3.314   4.714  0.1439 -1.6180 -1.0643
18860THY    HP367570   1.262   3.394   4.757 -0.2061 -2.5332 -0.3940
18860THY    HP467571   1.259   3.246   4.650 -1.2792  0.7063 -0.7376
18860THY    CP367572   1.393   3.088   4.823  0.1753  0.1192 -0.5036
18860THY    HP567573   1.472   3.120   4.754 -1.0911 -0.2409  2.1457
18860THY    HP667574   1.338   3.011   4.768  2.3973  0.1287 -2.2205
18860THY    HP767575   1.440   3.039   4.909  0.7984  0.7574  1.1582
18860THY    CA367576   1.046   3.178   4.840  0.4704  0.1397 -0.7923
18860THY    HA367577   1.042   3.236   4.748 -0.8255  0.7914  0.1705
18860THY    CA467578   0.924   3.131   4.893 -0.8153  0.2293 -0.1661
18860THY    HA467579   0.829   3.143   4.842 -0.3369 -0.8040 -0.6224
18860THY    CA567580   0.922   3.069   5.017 -0.4258  0.0442  0.3841
18860THY    CM167581   0.787   3.028   5.071 -0.2704  0.3053  0.2566
18860THY    HM167582   0.699   3.049   5.009 -1.3935  1.2181 -1.4381
18860THY    HM267583   0.782   3.065   5.175 -0.5498 -0.6259  3.1314
18860THY    HM367584   0.785   2.919   5.076  1.8360 -2.1604  0.0238
18860THY    CA667585   1.039   3.044   5.090  0.0487  0.9301  0.1433
18860THY    HA667586   1.020   2.999   5.187 -1.7733 -0.1914 -1.6228
18861THY      O67587   4.284   5.441   2.260 -0.1561 -0.0537  0.0295
18861THY     HO67588   4.359   5.476   2.209  0.1865 -0.5338 -1.3601
18861THY    CA167589   4.330   5.339   2.336  0.2486 -0.3277 -0.3165
18861THY    CA267590   4.263   5.287   2.451  1.2400 -0.6593  0.1178
18861THY    CP167591   4.124   5.347   2.496 -0.5120 -0.6664 -0.2663
18861THY    HP167592   4.101   5.414   2.412 -1.7066 -2.3929 -2.7000
18861THY    CP267593   4.122   5.426   2.619  0.0796 -0.5848 -0.6528
18861THY    HP267594   4.035   5.492   2.615  0.9432  0.2243  0.5721
18861THY    HP367595   4.216   5.481   2.627 -0.4038  1.1130 -0.0461
18861THY    HP467596   4.130   5.355   2.702  1.0667  0.6681  0.8578
18861THY    CP367597   4.013   5.237   2.496 -0.4768  0.0599 -0.5405
18861THY    HP567598   3.915   5.285   2.489  0.4489 -0.0915  1.4536
18861THY    HP667599   4.018   5.162   2.576 -0.0539  0.3633 -0.1996
18861THY    HP767600   4.027   5.191   2.398 -1.2073  0.4859 -1.6984
18861THY    CA367601   4.315   5.189   2.534 -0.7535  0.4664  0.4242
18861THY    HA367602   4.268   5.146   2.622 -0.0234  1.2475  1.1610
18861THY    CA467603   4.443   5.147   2.497  0.4790  1.1017 -0.4065
18861THY    HA467604   4.491   5.064   2.548  0.0016 -0.2831 -1.5739
18861THY    CA567605   4.521   5.203   2.392  0.8589  0.0499  0.2195
18861THY    CM167606   4.659   5.153   2.362  0.1417  0.0798 -0.1683
18861THY    HM167607   4.700   5.226   2.291 -1.5119  1.0618  1.8406
18861THY    HM267608   4.664   5.048   2.333 -2.5850 -0.7652 -0.1634
18861THY    HM367609   4.718   5.169   2.453  1.1514 -0.5110 -0.4370
18861THY    CA667610   4.454   5.286   2.301 -0.0576 -0.1280  1.1818
18861THY    HA667611   4.507   5.334   2.219  3.3317  1.9218  1.2653
18862THY      O67612   2.834   5.182   3.740 -0.2334  0.7568  0.6684
18862THY     HO67613   2.839   5.208   3.834  1.0447  0.6611  0.8429
18862THY    CA167614   2.749   5.260   3.663 -0.5215 -0.1826 -0.4310
18862THY    CA267615   2.741   5.247   3.519 -0.0074 -0.5193 -0.4084
18862THY    CP167616   2.844   5.149   3.449  0.1846 -0.3866 -0.3665
18862THY    HP167617   2.934   5.145   3.511  0.1418 -0.1708  1.3385
18862THY    CP267618   2.895   5.194   3.310  0.3454  0.1771  0.2144
18862THY    HP267619   2.991   5.147   3.286  0.6421  1.6215  0.0456
18862THY    HP367620   2.912   5.302   3.308 -0.2069 -0.6095  0.2959
18862THY    HP467621   2.822   5.161   3.235  0.3289  0.4453 -0.3712
18862THY    CP367622   2.793   5.002   3.442 -0.3383 -0.3175 -0.0769
18862THY    HP567623   2.873   4.929   3.426  1.1686  2.0350  0.9037
18862THY    HP667624   2.709   4.986   3.375  0.1483 -0.4545 -2.2680
18862THY    HP767625   2.755   4.971   3.540  0.3240 -0.4106 -1.2634
18862THY    CA367626   2.654   5.326   3.453  0.0577  0.2401 -0.4306
18862THY    HA367627   2.648   5.326   3.344  3.2615 -0.0679  1.5141
18862THY    CA467628   2.569   5.414   3.524  0.1892  0.2745 -0.4239
18862THY    HA467629   2.498   5.482   3.478 -0.0831  2.8539  1.1624
18862THY    CA567630   2.575   5.430   3.660  0.4242  0.3678  0.3995
18862THY    CM167631   2.490   5.535   3.729  0.2984 -0.1337  0.4797
18862THY    HM167632   2.460   5.505   3.830 -0.1849  0.2815  2.2543
18862THY    HM267633   2.399   5.550   3.670 -1.0708  1.5790 -0.7618
18862THY    HM367634   2.547   5.628   3.743 -0.3190  0.4421  0.7707
18862THY    CA667635   2.666   5.349   3.726  0.5647 -0.9370  0.0432
18862THY    HA667636   2.657   5.349   3.834  1.9957 -0.7355 -2.6160
18863THY      O67637   2.944   5.856   6.687 -0.0332 -0.5887  0.8224
18863THY     HO67638   3.002   5.796   6.638 -0.3296  1.0943 -0.9374
18863THY    CA167639   2.816   5.813   6.662 -0.5798 -0.9354 -0.2194
18863THY    CA267640   2.712   5.826   6.757  0.0443 -0.5011 -0.3043
18863THY    CP167641   2.720   5.926   6.873 -0.0001  0.3455 -0.3854
18863THY    HP167642   2.814   5.982   6.860  0.2528  0.9820 -0.6517
18863THY    CP267643   2.709   5.859   7.008  0.4425 -0.2204 -0.3787
18863THY    HP267644   2.615   5.803   7.006 -1.1227 -2.3263  2.0846
18863THY    HP367645   2.725   5.941   7.078 -1.0740  0.7469 -0.8629
18863THY    HP467646   2.788   5.784   7.014 -0.8962  1.6604 -1.7198
18863THY    CP367647   2.609   6.037   6.861  0.2961 -0.0760  0.6667
18863THY    HP567648   2.516   5.982   6.879  1.2798 -1.6104 -1.6431
18863THY    HP667649   2.608   6.073   6.758  1.5306  0.6417  2.9470
18863THY    HP767650   2.632   6.110   6.939  0.6253  0.1362  0.3450
18863THY    CA367651   2.591   5.753   6.742  0.0878  1.7461 -0.5757
18863THY    HA367652   2.503   5.767   6.805 -1.5953 -0.7466  0.9156
18863THY    CA467653   2.582   5.667   6.629  0.1701 -0.0119  0.2226
18863THY    HA467654   2.491   5.611   6.608 -2.6733  3.1111  3.1792
18863THY    CA567655   2.677   5.663   6.531 -0.2215  0.0631  0.1128
18863THY    CM167656   2.659   5.576   6.414 -0.7125  0.0354  0.7036
18863THY    HM167657   2.583   5.613   6.343 -0.2126 -1.6401 -1.3162
18863THY    HM267658   2.635   5.477   6.455 -1.1694  2.9596  1.9276
18863THY    HM367659   2.753   5.561   6.359 -0.8308  0.6330 -3.0185
18863THY    CA667660   2.796   5.736   6.548 -0.4663  0.1426 -0.4943
18863THY    HA667661   2.884   5.721   6.486  1.4567  2.6671 -0.2697
18864THY      O67662   8.573   3.955   7.534  0.5527  0.1143 -0.6833
18864THY     HO67663   8.543   4.030   7.588 -1.0928 -0.9951 -0.5034
18864THY    CA167664   8.489   3.860   7.566 -0.2231  0.2734  0.4267
18864THY    CA267665   8.493   3.739   7.490 -0.4001  0.3156  0.1364
18864THY    CP167666   8.596   3.714   7.384 -0.5944 -0.5313 -0.0921
18864THY    HP167667   8.662   3.799   7.364 -0.0402  0.9861 -0.1357
18864THY    CP267668   8.532   3.696   7.243  0.1699  0.9983 -0.6713
18864THY    HP267669   8.456   3.770   7.216 -0.3391  0.8344 -1.2433
18864THY    HP367670   8.469   3.607   7.230  0.3752 -0.7067 -0.5985
18864THY    HP467671   8.607   3.700   7.163  1.7167  2.0634 -4.1657
18864THY    CP367672   8.689   3.593   7.412 -0.3953  0.5744  0.9262
18864THY    HP567673   8.640   3.501   7.379  0.2670 -1.1974  1.1809
18864THY    HP667674   8.715   3.585   7.518 -0.9770  0.9233  3.0225
18864THY    HP767675   8.786   3.608   7.363  0.1953  0.7070 -1.9541
18864THY    CA367676   8.406   3.633   7.520  0.8076 -0.2970  0.5997
18864THY    HA367677   8.402   3.542   7.461 -1.1851  0.7043 -0.0275
18864THY    CA467678   8.316   3.651   7.623  0.6078  0.1200  0.3457
18864THY    HA467679   8.246   3.570   7.642 -0.0874 -1.5931  0.4962
18864THY    CA567680   8.314   3.767   7.698 -0.4206 -0.5747 -0.5296
18864THY    CM167681   8.222   3.786   7.817  0.1525 -0.3051  0.7439
18864THY    HM167682   8.195   3.696   7.873 -0.6178  0.4466  1.4232
18864THY    HM267683   8.133   3.837   7.778  0.1227 -1.8192 -0.3852
18864THY    HM367684   8.270   3.852   7.890  0.4628  0.5857 -0.4264
18864THY    CA667685   8.399   3.877   7.667 -0.4805 -0.5275 -0.0764
18864THY    HA667686   8.403   3.966   7.728  0.8756  0.2395 -0.6392
18865THY      O67687   0.180   9.079   4.810  0.6299 -0.2037 -0.5966
18865THY     HO67688   0.104   9.137   4.823  1.0181  0.0124 -0.1264
18865THY    CA167689   0.280   9.159   4.765 -0.5335 -0.5795 -0.0662
18865THY    CA267690   0.391   9.093   4.709  0.2033  0.4738 -0.5656
18865THY    CP167691   0.412   8.941   4.705  0.4273  0.4438  0.4580
18865THY    HP167692   0.313   8.895   4.695  0.7825 -1.1254 -0.0097
18865THY    CP267693   0.481   8.896   4.836  0.3705  0.2102  0.5408
18865THY    HP267694   0.423   8.925   4.924 -1.5178 -1.2019  1.2270
18865THY    HP367695   0.580   8.941   4.848 -0.6316  2.7957  2.2943
18865THY    HP467696   0.503   8.788   4.841  1.7164 -0.4182  0.7697
18865THY    CP367697   0.486   8.889   4.575  1.1022  0.3242  0.6298
18865THY    HP567698   0.466   8.783   4.555 -0.7683 -1.6957  1.2750
18865THY    HP667699   0.595   8.900   4.573  1.8150 -2.8929 -3.9236
18865THY    HP767700   0.432   8.949   4.500  1.3408  0.8865  1.5697
18865THY    CA367701   0.497   9.178   4.663 -0.2266 -0.1081 -0.5523
18865THY    HA367702   0.585   9.144   4.609 -1.1452 -0.7728 -1.9672
18865THY    CA467703   0.465   9.320   4.658 -1.0560 -0.3698 -0.3836
18865THY    HA467704   0.531   9.383   4.599  0.4757 -0.7235 -2.2370
18865THY    CA567705   0.350   9.377   4.709  0.8385 -0.5070 -0.7829
18865THY    CM167706   0.323   9.527   4.671 -1.0424 -0.5281  0.4965
18865THY    HM167707   0.418   9.578   4.690 -0.9398 -2.1872  0.9643
18865THY    HM267708   0.234   9.560   4.727 -2.8830 -0.4665 -3.8635
18865THY    HM367709   0.292   9.533   4.566  0.9171 -1.0603  2.8303
18865THY    CA667710   0.250   9.296   4.765 -0.6860  0.1775  0.2394
18865THY    HA667711   0.152   9.336   4.788 -0.7434  0.3709 -0.0150
18866THY      O67712   2.811   2.456   4.865 -0.1121  0.2324 -0.6656
18866THY     HO67713   2.743   2.483   4.929 -1.0873 -1.5145  1.4243
18866THY    CA167714   2.866   2.571   4.824  0.3818 -1.0139 -0.5511
18866THY    CA267715   2.876   2.595   4.685 -0.9845 -0.1280 -0.0919
18866THY    CP167716   2.820   2.493   4.586 -0.2743 -0.7510  0.4388
18866THY    HP167717   2.844   2.394   4.627 -0.9498 -1.1524  0.0987
18866THY    CP267718   2.898   2.492   4.449  0.1647 -0.5107  0.6257
18866THY    HP267719   2.833   2.428   4.388 -1.7623  2.4798 -0.4944
18866THY    HP367720   2.996   2.452   4.476 -0.6210  2.0957  0.2637
18866THY    HP467721   2.902   2.594   4.409 -1.7229 -2.0425  0.1730
18866THY    CP367722   2.666   2.517   4.569  0.3180  0.1627 -0.3199
18866THY    HP567723   2.618   2.435   4.513  1.6188 -1.2387 -0.1713
18866THY    HP667724   2.651   2.610   4.513 -0.9445  0.6179 -0.2239
18866THY    HP767725   2.616   2.527   4.666 -1.2004 -0.6119 -0.0051
18866THY    CA367726   2.943   2.718   4.650 -0.2717  0.0109 -0.4063
18866THY    HA367727   2.955   2.749   4.546 -0.3060  0.4623  1.1873
18866THY    CA467728   2.978   2.813   4.753  0.0184  0.7621 -0.0753
18866THY    HA467729   3.024   2.908   4.727  1.1180  3.5355  0.2534
18866THY    CA567730   2.961   2.783   4.886 -0.1831 -0.3777 -0.6303
18866THY    CM167731   2.995   2.889   4.993  0.2083  0.0680 -0.5521
18866THY    HM167732   3.051   2.832   5.068  1.0637 -1.3087 -1.5692
18866THY    HM267733   2.902   2.936   5.027 -0.4743 -1.1604 -0.9724
18866THY    HM367734   3.059   2.969   4.953  0.5688 -0.9645 -1.3381
18866THY    CA667735   2.901   2.670   4.927 -0.0532 -0.1960  0.5195
18866THY    HA667736   2.892   2.646   5.032  1.1160 -0.3850 -0.9055
18867THY      O67737   7.836   2.671   3.093 -0.0996 -0.7224 -0.0753
18867THY     HO67738   7.807   2.609   3.024  1.8617 -1.8265  0.1516
18867THY    CA167739   7.935   2.606   3.170  0.2014 -0.4998 -0.2441
18867THY    CA267740   8.040   2.684   3.231  0.1790  0.0557  0.0837
18867THY    CP167741   8.033   2.842   3.223  0.7270  0.1229 -0.4926
18867THY    HP167742   7.943   2.868   3.166  0.0705  0.5764 -1.6993
18867THY    CP267743   8.157   2.890   3.148  0.2521  0.0187  0.3883
18867THY    HP267744   8.150   2.991   3.106 -1.1934 -0.3877  0.1424
18867THY    HP367745   8.173   2.822   3.063 -0.5330  0.4567 -0.3720
18867THY    HP467746   8.250   2.891   3.206 -0.0563  0.5908 -1.1654
18867THY    CP367747   8.034   2.896   3.365 -0.1302  0.7800 -0.3501
18867THY    HP567748   8.043   3.005   3.355 -1.3266  0.0226 -0.3057
18867THY    HP667749   8.124   2.865   3.421  1.9257 -1.5634  1.0374
18867THY    HP767750   7.938   2.870   3.410 -1.0030 -0.2732  0.9577
18867THY    CA367751   8.144   2.617   3.300  0.1066 -0.1875 -0.1668
18867THY    HA367752   8.224   2.676   3.343 -2.3875  1.3167  2.3537
18867THY    CA467753   8.145   2.479   3.302  0.0774 -0.2141 -0.0279
18867THY    HA467754   8.223   2.428   3.359 -1.7048  0.0620 -2.6505
18867THY    CA567755   8.043   2.406   3.239  0.3532 -0.0466 -0.2106
18867THY    CM167756   8.039   2.250   3.247 -0.0522 -0.1486 -0.3254
18867THY    HM167757   8.036   2.218   3.352 -2.7832  0.8459  2.6092
18867THY    HM267758   8.103   2.188   3.184  0.3827 -0.6787  0.6410
18867THY    HM367759   7.947   2.209   3.204 -0.2964  0.8856 -0.9049
18867THY    CA667760   7.944   2.467   3.170 -0.1056  0.4359  0.0653
18867THY    HA667761   7.871   2.411   3.112 -0.9134 -0.3205  1.7942
18868THY      O67762   2.793   3.147   6.175  0.2453 -0.3422 -0.0439
18868THY     HO67763   2.745   3.151   6.090  0.9273 -0.7979 -1.2699
18868THY    CA167764   2.744   3.031   6.230  0.0078  1.0255 -0.2319
18868THY    CA267765   2.802   2.985   6.353  0.6196  0.3888 -0.5422
18868THY    CP167766   2.921   3.056   6.413  0.3082 -0.4639  0.1106
18868THY    HP167767   2.919   3.163   6.388  0.9311  2.3852  0.8822
18868THY    CP267768   3.053   3.000   6.358  0.2439 -0.1649  0.7601
18868THY    HP267769   3.049   2.948   6.262  1.2185  1.0770 -1.7918
18868THY    HP367770   3.090   2.919   6.422 -0.1824  1.9004  2.0901
18868THY    HP467771   3.133   3.074   6.346  0.6690  1.6563  0.6511
18868THY    CP367772   2.943   3.058   6.568  0.2696 -0.7012  0.3931
18868THY    HP567773   2.970   2.962   6.612  0.2783 -0.1621  0.6409
18868THY    HP667774   2.856   3.085   6.630  1.2630  0.7032  0.4120
18868THY    HP767775   3.022   3.132   6.585  0.4636 -2.5056  0.6578
18868THY    CA367776   2.745   2.875   6.423 -0.4686 -0.2929 -1.2843
18868THY    HA367777   2.790   2.849   6.518 -3.3853  2.0337  1.3042
18868THY    CA467778   2.623   2.822   6.381 -0.7951  1.3462  0.1108
18868THY    HA467779   2.580   2.741   6.440  1.8945 -0.9792 -3.2372
18868THY    CA567780   2.572   2.865   6.254 -0.2943 -1.0764 -0.0668
18868THY    CM167781   2.443   2.790   6.207 -0.4460  0.6368 -0.3263
18868THY    HM167782   2.359   2.854   6.236  0.3405 -0.3810  1.2391
18868THY    HM267783   2.421   2.710   6.278 -0.6243  0.6861 -0.2347
18868THY    HM367784   2.434   2.753   6.104  2.5367  0.3412 -0.4488
18868THY    CA667785   2.629   2.972   6.180 -0.1661  0.0341 -0.5979
18868THY    HA667786   2.575   3.014   6.096 -0.0150 -0.5419 -1.5125
18869THY      O67787   4.364   2.957   5.103  0.1050  0.2680 -0.1201
18869THY     HO67788   4.372   2.867   5.139  0.4924 -0.8495 -0.5507
18869THY    CA167789   4.490   2.991   5.071  0.5692 -0.2441 -0.6201
18869THY    CA267790   4.529   3.054   4.951  0.5917  0.6061 -0.2844
18869THY    CP167791   4.422   3.081   4.840  0.3993 -0.2495 -0.1164
18869THY    HP167792   4.336   3.013   4.848 -1.2745  0.1331  1.9317
18869THY    CP267793   4.482   3.070   4.699  0.3299  0.6068 -0.3703
18869THY    HP267794   4.547   3.157   4.683  1.6277 -0.5946 -1.5149
18869THY    HP367795   4.409   3.076   4.617  1.9326 -0.8641 -0.2953
18869THY    HP467796   4.533   2.974   4.688 -0.2683  0.1140 -0.6357
18869THY    CP367797   4.351   3.216   4.863  0.2231 -0.0917 -0.2714
18869THY    HP567798   4.260   3.214   4.803  0.2755 -0.1760 -0.1285
18869THY    HP667799   4.424   3.294   4.839  0.1075 -1.5057 -0.5839
18869THY    HP767800   4.320   3.205   4.968  1.1567  0.0415 -1.9202
18869THY    CA367801   4.653   3.114   4.943 -0.7722 -0.2401 -0.5943
18869THY    HA367802   4.680   3.177   4.859 -1.5259 -0.8523 -1.0731
18869THY    CA467803   4.742   3.101   5.050  0.1020  0.0381 -0.7887
18869THY    HA467804   4.835   3.157   5.058  0.3946 -2.1373 -0.8859
18869THY    CA567805   4.706   3.023   5.162  0.4546  0.2313 -0.3980
18869THY    CM167806   4.807   2.998   5.273 -0.4257 -0.4483 -0.3878
18869THY    HM167807   4.779   2.928   5.353  0.3104 -0.4331 -0.6765
18869THY    HM267808   4.817   3.086   5.337  0.1511  1.3271 -1.6796
18869THY    HM367809   4.910   2.981   5.239 -0.7136 -1.0926 -0.8810
18869THY    CA667810   4.580   2.980   5.182 -0.1948  0.1829  0.0503
18869THY    HA667811   4.557   2.930   5.276 -0.2167 -0.7022 -1.6606
18870THY      O67812   7.576   3.482   2.459  0.4685  0.0926  0.1097
18870THY     HO67813   7.635   3.442   2.525  0.0057  0.6302  0.2968
18870THY    CA167814   7.473   3.533   2.531 -0.6750  0.5381  0.1230
18870THY    CA267815   7.419   3.660   2.501 -0.2550  0.6187  0.0266
18870THY    CP167816   7.466   3.746   2.386  0.1419 -0.5915 -0.1393
18870THY    HP167817   7.517   3.678   2.316 -1.5709 -0.3298 -1.7737
18870THY    CP267818   7.565   3.851   2.433 -0.9037 -0.6116 -0.1934
18870THY    HP267819   7.601   3.919   2.355 -1.3485 -1.0309 -0.4385
18870THY    HP367820   7.659   3.807   2.468 -0.9308  3.3670  2.3786
18870THY    HP467821   7.525   3.901   2.522  0.1776 -0.7548  0.9869
18870THY    CP367822   7.358   3.820   2.303  0.1353  0.3700 -0.3750
18870THY    HP567823   7.398   3.900   2.240  1.9293  0.3642 -1.2338
18870THY    HP667824   7.285   3.861   2.374 -1.0043 -0.9944  0.0315
18870THY    HP767825   7.299   3.757   2.236 -2.7611  3.0661 -0.7907
18870THY    CA367826   7.316   3.704   2.589  0.4425 -0.0283  0.7487
18870THY    HA367827   7.260   3.797   2.580 -1.2766 -1.7978 -0.3745
18870THY    CA467828   7.283   3.632   2.707  0.5923  0.5794  0.5339
18870THY    HA467829   7.201   3.670   2.768  0.4621  0.9394 -0.3027
18870THY    CA567830   7.343   3.507   2.731 -0.3922  0.3030  0.1815
18870THY    CM167831   7.303   3.427   2.850 -0.1056  0.4568 -0.3814
18870THY    HM167832   7.212   3.465   2.897 -1.1374 -0.3911 -1.6828
18870THY    HM267833   7.379   3.427   2.930 -1.9091  2.2663  0.5691
18870THY    HM367834   7.285   3.321   2.826  1.5419  0.9334 -0.8119
18870THY    CA667835   7.435   3.456   2.642 -0.3582  0.2587  0.0031
18870THY    HA667836   7.482   3.360   2.662  0.9817 -2.6974 -0.0640
18871THY      O67837   4.430   4.071   5.821  0.0455  0.5596 -0.3181
18871THY     HO67838   4.446   4.107   5.732  2.0189  1.0876  0.2348
18871THY    CA167839   4.431   3.934   5.804  0.1091  0.1954  0.2109
18871THY    CA267840   4.413   3.849   5.914  0.2329  0.1768  0.3049
18871THY    CP167841   4.373   3.906   6.050 -0.1309  0.0551  0.2670
18871THY    HP167842   4.381   4.015   6.054  1.7192  0.3193  0.1632
18871THY    CP267843   4.471   3.853   6.149 -0.6042 -0.0438  0.2135
18871THY    HP267844   4.437   3.879   6.250  0.8356  0.5009  0.0629
18871THY    HP367845   4.572   3.893   6.136  0.1874 -0.1866 -1.7180
18871THY    HP467846   4.478   3.744   6.142 -1.9110  0.6759  0.0607
18871THY    CP367847   4.229   3.876   6.093  0.3742  0.4538  0.3083
18871THY    HP567848   4.160   3.924   6.023  0.9604 -0.8393 -0.6615
18871THY    HP667849   4.200   3.895   6.197  3.3745  1.4430  0.0255
18871THY    HP767850   4.217   3.768   6.078  2.8247  4.0750 -0.6599
18871THY    CA367851   4.422   3.706   5.892  0.9050  1.1924 -0.4486
18871THY    HA367852   4.409   3.635   5.973 -1.1431  1.4014  0.0870
18871THY    CA467853   4.428   3.651   5.762 -0.3654  0.2303 -0.7756
18871THY    HA467854   4.436   3.544   5.743  2.5762 -1.5149 -0.3384
18871THY    CA567855   4.453   3.739   5.652 -1.0484 -0.4599  0.7549
18871THY    CM167856   4.484   3.684   5.519  0.3093  0.6647 -0.0009
18871THY    HM167857   4.391   3.662   5.465  0.6158 -0.9058  2.2614
18871THY    HM267858   4.540   3.590   5.516 -0.3727 -1.6817 -0.3784
18871THY    HM367859   4.539   3.763   5.468 -1.1057 -0.6597  0.1560
18871THY    CA667860   4.448   3.881   5.670 -0.1079 -0.4851  0.1440
18871THY    HA667861   4.464   3.947   5.585  1.3439  0.5028  1.1117
18872THY      O67862   0.364   7.923   3.674 -0.3866 -0.1336 -1.1197
18872THY     HO67863   0.272   7.945   3.698 -0.0174 -0.8960  1.6626
18872THY    CA167864   0.447   7.964   3.779 -0.3468  0.4156 -0.3003
18872THY    CA267865   0.577   7.924   3.784 -0.7078 -0.1473 -0.4721
18872THY    CP167866   0.640   7.835   3.676 -1.0607 -0.5124  0.5380
18872THY    HP167867   0.568   7.826   3.594 -0.0147 -1.8252  3.1573
18872THY    CP267868   0.688   7.697   3.725 -0.2925  0.3192 -0.6425
18872THY    HP267869   0.742   7.706   3.820 -3.1022  1.8577  1.7572
18872THY    HP367870   0.758   7.649   3.656  0.4060  1.2278 -0.9620
18872THY    HP467871   0.606   7.626   3.739  0.1341  1.3104 -0.9567
18872THY    CP367872   0.761   7.913   3.618 -0.0283 -0.4870  0.1282
18872THY    HP567873   0.734   7.994   3.550  0.0589 -1.6057 -0.7536
18872THY    HP667874   0.832   7.847   3.566 -0.3419 -0.4863 -0.2152
18872THY    HP767875   0.835   7.937   3.696  0.5213 -0.6091 -1.0982
18872THY    CA367876   0.659   7.953   3.900  0.2991 -0.1491  0.1426
18872THY    HA367877   0.760   7.916   3.911 -0.7112 -2.7880 -3.9993
18872THY    CA467878   0.607   8.041   3.998 -0.4913 -0.0297  0.8320
18872THY    HA467879   0.679   8.061   4.077  3.4505 -2.8052 -1.2448
18872THY    CA567880   0.462   8.067   3.997  0.4366  0.6789  0.2819
18872THY    CM167881   0.397   8.149   4.106  0.5481  0.4262 -0.1565
18872THY    HM167882   0.321   8.221   4.074  1.9566 -1.9207  0.3860
18872THY    HM267883   0.469   8.199   4.172 -0.5028 -0.1612  2.3054
18872THY    HM367884   0.338   8.082   4.170 -0.1366 -0.1223 -0.0861
18872THY    CA667885   0.383   8.035   3.884 -0.6116  0.1411  0.3552
18872THY    HA667886   0.280   8.070   3.882  0.3076  1.4051  3.4424
18873THY      O67887   4.689   3.053   6.204  0.4258  0.2771  0.1431
18873THY     HO67888   4.599   3.032   6.235  0.2268 -0.5036 -0.1969
18873THY    CA167889   4.774   3.069   6.310 -0.6465 -0.1533  0.1241
18873THY    CA267890   4.914   3.092   6.297 -0.1943 -0.1168  0.1088
18873THY    CP167891   4.991   3.082   6.165  0.4789  0.0123 -0.7332
18873THY    HP167892   4.924   3.071   6.079  1.6979 -0.7410 -2.8762
18873THY    CP267893   5.075   2.961   6.169  0.7076  0.8033 -0.6590
18873THY    HP267894   5.014   2.874   6.191  0.0915 -0.0977 -0.4736
18873THY    HP367895   5.154   2.966   6.244  0.8068  0.6818 -0.3367
18873THY    HP467896   5.119   2.955   6.068 -0.8234 -0.3406  3.5912
18873THY    CP367897   5.066   3.215   6.135 -0.0901  0.7900  0.6703
18873THY    HP567898   5.010   3.306   6.159  2.2068 -1.0931  2.7268
18873THY    HP667899   5.101   3.220   6.031 -0.4878  0.6918  1.7216
18873THY    HP767900   5.147   3.219   6.209  1.0272 -0.4328  1.9100
18873THY    CA367901   4.985   3.119   6.418  0.1546  0.0747  0.1259
18873THY    HA367902   5.092   3.129   6.424  0.1482  2.4790 -0.6778
18873THY    CA467903   4.914   3.147   6.538 -0.6724 -0.1999  0.2641
18873THY    HA467904   4.982   3.188   6.612  0.1486  0.1043 -1.5454
18873THY    CA567905   4.780   3.132   6.548 -0.3092 -0.2477 -0.3628
18873THY    CM167906   4.693   3.183   6.665  0.1273 -0.1412  0.0478
18873THY    HM167907   4.645   3.093   6.704  0.6846  3.6585  1.2275
18873THY    HM267908   4.608   3.245   6.634 -1.0550  1.6887 -0.5921
18873THY    HM367909   4.764   3.215   6.742 -0.2798  0.9792 -1.6651
18873THY    CA667910   4.714   3.087   6.430  0.2773 -0.0428 -0.2286
18873THY    HA667911   4.606   3.070   6.431  0.3620  2.5760 -1.1214
18874THY      O67912   2.410   1.519   5.032 -0.2816 -0.5898  0.0655
18874THY     HO67913   2.447   1.479   5.112  3.2238 -2.4629 -0.8517
18874THY    CA167914   2.474   1.639   5.010 -0.4221  0.1587 -0.0968
18874THY    CA267915   2.427   1.729   4.915  0.1064 -0.1288  0.3606
18874THY    CP167916   2.303   1.683   4.830 -0.2672 -0.3439 -0.4049
18874THY    HP167917   2.249   1.597   4.872  0.0664 -0.7890 -0.8410
18874THY    CP267918   2.339   1.634   4.683  0.4889  0.0223  0.6113
18874THY    HP267919   2.419   1.558   4.682  0.3670 -0.5440  0.4869
18874THY    HP367920   2.384   1.719   4.631  0.0200  0.0464  0.8745
18874THY    HP467921   2.253   1.588   4.633  0.6642  1.0907 -0.9753
18874THY    CP367922   2.197   1.790   4.809 -0.5103 -0.3694  0.6513
18874THY    HP567923   2.249   1.875   4.763 -1.1599 -2.2048  0.1007
18874THY    HP667924   2.158   1.827   4.905  0.7425  0.3918  0.0911
18874THY    HP767925   2.122   1.747   4.742 -0.8662  0.7765 -0.5776
18874THY    CA367926   2.489   1.858   4.908  0.3928  0.2502 -0.1820
18874THY    HA367927   2.455   1.939   4.845 -0.3273  1.0151  0.1259
18874THY    CA467928   2.613   1.885   4.972  0.2041  0.3911 -0.2814
18874THY    HA467929   2.677   1.972   4.960  0.9709  0.1557 -0.8690
18874THY    CA567930   2.657   1.788   5.064  0.2357  0.1728 -0.2475
18874THY    CM167931   2.786   1.813   5.137 -0.7993  0.0660 -0.5502
18874THY    HM167932   2.857   1.729   5.131 -0.6358 -1.9892 -0.2953
18874THY    HM267933   2.766   1.837   5.242  0.1933 -0.0919  1.1598
18874THY    HM367934   2.848   1.892   5.095  1.5730  1.8036 -1.3610
18874THY    CA667935   2.587   1.668   5.089  0.2309 -0.8711 -0.7233
18874THY    HA667936   2.628   1.598   5.162  1.5163 -2.0226 -1.2290
18875THY      O67937   2.420   7.178   6.835  0.1213  0.3015 -0.3159
18875THY     HO67938   2.475   7.134   6.902 -0.6766  0.1751 -1.5643
18875THY    CA167939   2.499   7.270   6.778 -0.0521 -0.3155  0.1075
18875THY    CA267940   2.471   7.335   6.656  0.9135  0.0265  0.1641
18875THY    CP167941   2.353   7.291   6.563  0.8021  0.1729 -0.6043
18875THY    HP167942   2.310   7.193   6.587  1.1503 -1.4329 -1.1731
18875THY    CP267943   2.411   7.279   6.422  0.5549  0.4507 -0.1550
18875THY    HP267944   2.328   7.259   6.353  0.5881  0.1930  0.5611
18875THY    HP367945   2.478   7.192   6.420 -0.4359  1.1126 -0.9565
18875THY    HP467946   2.464   7.365   6.379  0.6299 -1.4814 -1.1057
18875THY    CP367947   2.236   7.401   6.574  0.6476  0.3977 -0.4109
18875THY    HP567948   2.174   7.378   6.661 -0.7958 -0.4058  0.3482
18875THY    HP667949   2.178   7.404   6.481  1.3218 -0.0198 -0.0218
18875THY    HP767950   2.283   7.500   6.574 -2.6818  1.9893  1.3345
18875THY    CA367951   2.551   7.452   6.622 -0.1792  0.4301  0.9026
18875THY    HA367952   2.542   7.508   6.530  2.7540 -1.0325 -0.7757
18875THY    CA467953   2.657   7.489   6.697 -0.2227 -0.5936 -0.4985
18875THY    HA467954   2.709   7.583   6.685 -0.2076  2.8722  0.0442
18875THY    CA567955   2.680   7.420   6.820  0.1491  0.9573  0.3409
18875THY    CM167956   2.794   7.448   6.911  0.8310  0.5619 -0.2324
18875THY    HM167957   2.751   7.489   7.003  0.2123 -0.2136  0.9221
18875THY    HM267958   2.871   7.512   6.868  0.7411 -1.2977 -1.2774
18875THY    HM367959   2.842   7.353   6.938  0.6808  0.9530 -0.1992
18875THY    CA667960   2.603   7.311   6.856  0.7950  0.1004  0.5266
18875THY    HA667961   2.624   7.272   6.955 -0.0089  0.2674  0.4994
18876THY      O67962   6.942   7.634   3.193 -1.0004  0.1018 -0.1307
18876THY     HO67963   6.909   7.722   3.217 -2.1220 -0.2129 -0.4406
18876THY    CA167964   6.989   7.573   3.307  0.2716 -0.1940  0.4105
18876THY    CA267965   6.998   7.439   3.311 -0.3759 -0.4442  0.4036
18876THY    CP167966   6.976   7.356   3.184  0.3225 -0.3579  0.0618
18876THY    HP167967   6.994   7.422   3.098  1.4351 -0.8498 -0.8273
18876THY    CP267968   6.844   7.287   3.176 -0.0057  0.1342 -0.4755
18876THY    HP267969   6.834   7.235   3.272  1.5662  0.2326 -0.6475
18876THY    HP367970   6.844   7.226   3.084  0.0551 -0.8333  0.9532
18876THY    HP467971   6.761   7.357   3.166  0.2728  2.4667  0.2830
18876THY    CP367972   7.091   7.251   3.176  0.4847  0.3517 -0.0688
18876THY    HP567973   7.082   7.182   3.261 -2.0727  1.0910  1.0535
18876THY    HP667974   7.188   7.302   3.176  0.3181  1.0854  0.2728
18876THY    HP767975   7.093   7.199   3.080 -1.4489  0.8849 -1.2472
18876THY    CA367976   7.008   7.377   3.442  1.2489 -0.6308  0.3572
18876THY    HA367977   6.997   7.269   3.450 -0.9871  3.3755  0.7138
18876THY    CA467978   7.024   7.454   3.556 -0.5576 -0.0584  1.0506
18876THY    HA467979   7.035   7.393   3.645 -3.0429  0.2622  0.9913
18876THY    CA567980   7.028   7.589   3.553  0.0002  0.0537 -0.2439
18876THY    CM167981   7.046   7.665   3.684  0.8349  0.1556  0.1841
18876THY    HM167982   7.147   7.636   3.715  0.8177 -1.7736 -2.2514
18876THY    HM267983   6.987   7.637   3.772  1.5423  0.2414 -1.1423
18876THY    HM367984   7.052   7.774   3.671 -1.5207 -0.3672  0.3068
18876THY    CA667985   7.000   7.652   3.430 -0.0009  0.4163  0.4266
18876THY    HA667986   6.987   7.760   3.430  0.0648 -1.6684  0.4756
18877THY      O67987   0.853   6.692   3.776  0.5839  0.1282  0.1596
18877THY     HO67988   0.765   6.711   3.812  0.1858  0.1105 -1.5676
18877THY    CA167989   0.852   6.565   3.736 -0.7219  0.6384  0.2512
18877THY    CA267990   0.972   6.487   3.725 -0.1270  0.6364  0.1952
18877THY    CP167991   1.107   6.551   3.765  0.3133 -0.5608 -0.5048
18877THY    HP167992   1.111   6.657   3.736 -1.4607  1.0643  0.0757
18877THY    CP267993   1.228   6.487   3.706  0.1428 -0.3961  0.0243
18877THY    HP267994   1.225   6.475   3.597  1.3733 -0.3516 -0.9346
18877THY    HP367995   1.255   6.393   3.755 -1.4768  0.2775 -0.1264
18877THY    HP467996   1.317   6.549   3.724 -0.3222 -2.0093  1.2435
18877THY    CP367997   1.120   6.553   3.916  0.2474 -0.1594 -0.4372
18877THY    HP567998   1.026   6.593   3.955 -0.3721 -2.0421  0.0839
18877THY    HP667999   1.194   6.621   3.959 -0.7895 -0.6465  1.0642
18877THY    HP768000   1.136   6.451   3.952 -0.1825  0.1868 -0.3853
18877THY    CA368001   0.963   6.353   3.676 -0.3196  0.1249  0.6945
18877THY    HA368002   1.039   6.275   3.679 -1.7962 -1.1466 -0.8933
18877THY    CA468003   0.836   6.301   3.647 -0.2317 -0.7766  0.0403
18877THY    HA468004   0.814   6.195   3.632 -1.7459 -1.5467  0.4370
18877THY    CA568005   0.723   6.383   3.652  0.2300 -0.4493 -0.2792
18877THY    CM168006   0.583   6.330   3.616 -0.4161 -0.2131 -0.5573
18877THY    HM168007   0.594   6.309   3.508  1.5047 -0.8256  2.8965
18877THY    HM268008   0.510   6.410   3.630  1.5358  0.3389  1.2146
18877THY    HM368009   0.549   6.235   3.657  1.7866  1.3138 -0.7496
18877THY    CA668010   0.727   6.513   3.700 -0.1147 -0.5631  0.2044
18877THY    HA668011   0.636   6.568   3.721  0.8126 -0.7134  1.8677
18878THY      O68012   4.618   6.724   7.604 -0.1436  0.2271  0.0226
18878THY     HO68013   4.610   6.803   7.548  1.4200  0.0998  0.1067
18878THY    CA168014   4.584   6.618   7.521 -0.2765 -0.0828 -0.9779
18878THY    CA268015   4.573   6.485   7.565 -0.2799  0.2220 -0.2879
18878THY    CP168016   4.580   6.450   7.710  0.7434  0.3698 -0.5412
18878THY    HP168017   4.638   6.522   7.769 -0.9379  0.1939  1.0173
18878THY    CP268018   4.647   6.314   7.730 -0.0875 -0.1830  0.4144
18878THY    HP268019   4.747   6.308   7.686 -0.4017 -0.9793  0.8380
18878THY    HP368020   4.592   6.227   7.689 -0.8417  1.7213 -0.0517
18878THY    HP468021   4.656   6.297   7.838  1.2526 -0.3764 -0.2445
18878THY    CP368022   4.437   6.434   7.763 -0.3763 -0.0659  0.5263
18878THY    HP568023   4.372   6.371   7.701 -0.6647  2.0973 -1.4588
18878THY    HP668024   4.397   6.534   7.778  0.0313  1.1184  0.5313
18878THY    HP768025   4.438   6.392   7.864  0.9417 -1.0132 -1.9360
18878THY    CA368026   4.531   6.390   7.468 -1.2710  0.1988 -0.3315
18878THY    HA368027   4.511   6.286   7.494  0.6611 -1.9906 -1.3464
18878THY    CA468028   4.521   6.429   7.330  0.1022 -0.3855 -0.2123
18878THY    HA468029   4.490   6.353   7.259  2.3652 -0.6349 -0.9483
18878THY    CA568030   4.557   6.557   7.290 -0.0833 -0.0309 -0.0425
18878THY    CM168031   4.531   6.599   7.156 -0.3283  0.3532 -0.7924
18878THY    HM168032   4.608   6.673   7.128 -1.8790 -0.4026  0.6032
18878THY    HM268033   4.437   6.654   7.142  0.3661 -0.5750  0.1896
18878THY    HM368034   4.537   6.516   7.085 -0.4898 -0.0536 -0.4642
18878THY    CA668035   4.580   6.655   7.388  0.6685 -0.8786  0.4655
18878THY    HA668036   4.581   6.759   7.355 -0.7346 -0.2452  0.6943
18879THY      O68037   3.744   6.779   3.015  0.9032  0.0038  0.8030
18879THY     HO68038   3.837   6.753   3.018  0.2901  0.7052 -1.5638
18879THY    CA168039   3.729   6.823   2.894  0.2963  0.7034 -0.1117
18879THY    CA268040   3.612   6.841   2.821  0.4362 -1.0631 -0.3194
18879THY    CP168041   3.482   6.795   2.897  0.1207 -0.3292  0.1632
18879THY    HP168042   3.493   6.801   3.006 -0.3673 -0.0012 -2.9981
18879THY    CP268043   3.450   6.649   2.887  0.5342 -0.0255 -0.0820
18879THY    HP268044   3.471   6.620   2.783  2.2351  0.2115  0.1520
18879THY    HP368045   3.344   6.644   2.911  0.0314 -1.2472  2.8709
18879THY    HP468046   3.517   6.605   2.962 -0.9572  2.6028  1.8505
18879THY    CP368047   3.358   6.875   2.851  0.2795 -0.3812  0.2945
18879THY    HP568048   3.331   6.850   2.748  1.3350 -0.4524 -0.6556
18879THY    HP668049   3.382   6.982   2.858 -0.6548 -0.3273  0.5031
18879THY    HP768050   3.269   6.865   2.914 -0.7846 -1.7802  0.7628
18879THY    CA368051   3.617   6.892   2.687  1.0435  0.5594  0.4017
18879THY    HA368052   3.528   6.906   2.628  3.0813 -2.5697  1.0605
18879THY    CA468053   3.738   6.930   2.633  0.1690 -0.1588  1.0854
18879THY    HA468054   3.753   6.966   2.532 -0.5161 -0.6486  0.0344
18879THY    CA568055   3.857   6.901   2.703 -0.4531 -0.7574 -0.4610
18879THY    CM168056   3.990   6.940   2.637 -0.1558  0.2996  0.0362
18879THY    HM168057   4.036   6.868   2.569 -0.2128 -0.0225  0.2994
18879THY    HM268058   4.071   6.950   2.711  0.5965 -0.1371 -2.2972
18879THY    HM368059   3.986   7.034   2.580  1.1675  0.9992  0.5468
18879THY    CA668060   3.850   6.850   2.833  0.1345  0.5690 -0.0449
18879THY    HA668061   3.945   6.816   2.873  0.5345 -0.7798 -0.5510
18880THY      O68062   1.503   5.797   3.812 -0.4933  0.3780  1.1591
18880THY     HO68063   1.589   5.817   3.852  0.3642  0.6223 -2.3808
18880THY    CA168064   1.479   5.913   3.751 -0.1288  0.3380  0.3129
18880THY    CA268065   1.344   5.967   3.734 -0.0869 -0.1575 -0.9097
18880THY    CP168066   1.215   5.899   3.783  0.2471 -0.3140  0.2462
18880THY    HP168067   1.246   5.794   3.796  1.8548 -0.6628  0.6530
18880THY    CP268068   1.096   5.900   3.689 -0.3169  1.1917  0.2372
18880THY    HP268069   1.023   5.979   3.709 -0.1405 -1.2028  1.0809
18880THY    HP368070   1.046   5.802   3.687  1.7535 -1.9102 -0.8944
18880THY    HP468071   1.128   5.905   3.585 -0.0849  1.1954 -0.9071
18880THY    CP368072   1.179   5.952   3.924  0.0005 -0.0002  0.0399
18880THY    HP568073   1.265   5.938   3.990  0.0224 -0.0355  0.0096
18880THY    HP668074   1.086   5.904   3.957 -0.1235  2.6579  1.8731
18880THY    HP768075   1.157   6.060   3.917  0.7115 -1.9387  0.0959
18880THY    CA368076   1.326   6.094   3.676  0.1132  0.9439 -0.3122
18880THY    HA368077   1.224   6.123   3.653 -0.6031  2.1991 -1.7480
18880THY    CA468078   1.439   6.171   3.639  0.4996  0.7220  0.0620
18880THY    HA468079   1.423   6.262   3.582 -0.6081  0.1868 -0.4429
18880THY    CA568080   1.569   6.125   3.668  0.0195 -0.2081  0.6096
18880THY    CM168081   1.680   6.201   3.617 -0.2888 -0.4243  0.0972
18880THY    HM168082   1.763   6.179   3.684 -1.5502  1.9407  2.0450
18880THY    HM268083   1.668   6.309   3.632  0.5247  1.7983 -0.0879
18880THY    HM368084   1.698   6.185   3.510 -2.9785 -0.6584 -2.2073
18880THY    CA668085   1.590   5.998   3.719  1.0523 -0.4824  0.8858
18880THY    HA668086   1.691   5.960   3.732  1.5129 -2.5014  1.2712
18881THY      O68087   2.334   8.813   4.378 -0.0626  0.3174 -0.5548
18881THY     HO68088   2.259   8.808   4.440 -0.4172 -0.0019  0.4987
18881THY    CA168089   2.431   8.870   4.452 -0.4249 -0.6912 -0.5183
18881THY    CA268090   2.567   8.882   4.410 -1.0618 -0.5038 -0.1879
18881THY    CP168091   2.614   8.830   4.272 -0.2084  0.6685  0.3617
18881THY    HP168092   2.528   8.831   4.204 -0.9934  1.5905 -0.9782
18881THY    CP268093   2.659   8.683   4.287  0.1639  0.9236  0.6498
18881THY    HP268094   2.719   8.674   4.379  0.4633  0.8827  1.9937
18881THY    HP368095   2.702   8.637   4.197  1.1372  1.6651  0.0586
18881THY    HP468096   2.567   8.630   4.313 -1.8414 -0.7533  3.0904
18881THY    CP368097   2.722   8.918   4.217 -0.1053  0.0629  0.4149
18881THY    HP568098   2.731   8.912   4.108  0.1079  0.0488  0.9749
18881THY    HP668099   2.816   8.899   4.270 -0.1648 -0.3219 -1.0682
18881THY    HP768100   2.709   9.025   4.234 -0.9698 -1.2836  0.5443
18881THY    CA368101   2.653   8.956   4.491  0.0225 -0.4803 -0.3585
18881THY    HA368102   2.750   8.997   4.466 -0.7517  0.0661  1.9376
18881THY    CA468103   2.606   8.998   4.619  0.7191 -0.5185  1.1548
18881THY    HA468104   2.670   9.050   4.689 -1.1885  1.6297  0.7334
18881THY    CA568105   2.472   8.989   4.660  0.1829  0.1871  0.4470
18881THY    CM168106   2.430   9.055   4.789 -0.4494 -0.3129  0.1182
18881THY    HM168107   2.434   8.993   4.879  1.0386  0.7581  1.6578
18881THY    HM268108   2.336   9.110   4.777  0.7123 -0.8971  2.0961
18881THY    HM368109   2.508   9.128   4.812  2.0624  0.0543 -2.5047
18881THY    CA668110   2.385   8.915   4.580  0.1875 -0.2609  0.8079
18881THY    HA668111   2.285   8.900   4.618  0.2387 -0.9156 -1.5919
18882THY      O68112   1.686   7.813   7.223  0.2027  0.5766 -0.5948
18882THY     HO68113   1.702   7.906   7.246  4.5528 -0.4070 -0.8624
18882THY    CA168114   1.558   7.790   7.187 -0.0464  0.6055  0.5366
18882THY    CA268115   1.513   7.661   7.142  0.4279  0.1149 -0.2008
18882THY    CP168116   1.604   7.539   7.150 -0.0733  0.3003  0.0163
18882THY    HP168117   1.690   7.551   7.216  0.7025 -0.3000 -1.9051
18882THY    CP268118   1.654   7.498   7.008 -0.5303  0.0420  0.1927
18882THY    HP268119   1.577   7.449   6.948  0.2397 -0.6131 -0.2374
18882THY    HP368120   1.735   7.425   7.006 -1.9979  1.3597 -1.5685
18882THY    HP468121   1.695   7.580   6.948 -0.1628  0.2042  0.1271
18882THY    CP368122   1.553   7.414   7.218 -0.3548  0.2520  0.5036
18882THY    HP568123   1.627   7.334   7.218  0.3109  2.0469  1.0803
18882THY    HP668124   1.466   7.382   7.160  0.2510 -0.9818  1.0104
18882THY    HP768125   1.516   7.444   7.317  0.6014  0.4605  1.0254
18882THY    CA368126   1.378   7.648   7.090 -0.6871 -0.3158  0.1073
18882THY    HA368127   1.349   7.547   7.062  2.2029  0.6463 -1.0739
18882THY    CA468128   1.286   7.758   7.102  0.9218  0.0263 -0.0675
18882THY    HA468129   1.183   7.731   7.080  0.7031 -1.4180  1.7790
18882THY    CA568130   1.333   7.876   7.152  0.3404 -0.1079 -0.0859
18882THY    CM168131   1.231   7.991   7.151 -0.1299  0.1963  0.3333
18882THY    HM168132   1.166   7.987   7.239 -0.5551 -0.1819 -1.9930
18882THY    HM268133   1.170   7.990   7.059 -1.7111  1.2210 -0.0654
18882THY    HM368134   1.287   8.085   7.152  0.7060  0.1261 -0.1593
18882THY    CA668135   1.469   7.900   7.183 -0.5648 -0.4034  1.2109
18882THY    HA668136   1.501   8.000   7.211 -0.8348 -0.1053  1.2149
18883THY      O68137   8.131   7.409   6.702 -0.1902 -0.4697  0.3247
18883THY     HO68138   8.179   7.324   6.703  0.4942  1.0541  0.6846
18883THY    CA168139   8.020   7.406   6.770  0.7730 -0.2330 -0.1355
18883THY    CA268140   7.905   7.488   6.742 -0.6100  0.0584  0.5548
18883THY    CP168141   7.909   7.587   6.622 -0.2503  0.1342 -0.2410
18883THY    HP168142   7.997   7.581   6.558 -0.9220 -0.7775 -0.5011
18883THY    CP268143   7.894   7.732   6.662  0.8409  0.0840 -0.2232
18883THY    HP268144   7.971   7.759   6.735  1.5126 -0.4214 -0.7392
18883THY    HP368145   7.792   7.746   6.699  0.6492 -0.4778 -0.1051
18883THY    HP468146   7.896   7.791   6.569  0.0167 -0.7568 -1.4543
18883THY    CP368147   7.802   7.552   6.513 -0.1101 -0.7223 -0.0453
18883THY    HP568148   7.707   7.534   6.564  0.6875  0.3709 -1.3927
18883THY    HP668149   7.829   7.449   6.488  1.4942 -0.2529  0.2367
18883THY    HP768150   7.795   7.609   6.419  0.1292 -0.6156  0.1636
18883THY    CA368151   7.790   7.475   6.821 -0.1666  0.4210 -0.0470
18883THY    HA368152   7.702   7.538   6.811  0.5605  0.2574  0.9709
18883THY    CA468153   7.796   7.389   6.933 -0.2086  0.9793 -0.5290
18883THY    HA468154   7.705   7.374   6.990 -2.2152 -2.1633 -1.4275
18883THY    CA568155   7.913   7.313   6.959  0.1330 -0.5185 -0.6308
18883THY    CM168156   7.916   7.218   7.073 -0.2575  0.0287  0.1749
18883THY    HM168157   7.823   7.226   7.130  0.3172  0.8367  1.2698
18883THY    HM268158   8.000   7.253   7.133  0.4931 -1.4739  1.0474
18883THY    HM368159   7.935   7.116   7.037  0.5713 -1.7705  0.9079
18883THY    CA668160   8.021   7.322   6.876  0.0435  0.0339 -0.0532
18883THY    HA668161   8.109   7.260   6.892 -0.9458  1.9806 -1.0484
18884THY      O68162   4.452   3.315   5.863  0.0582 -0.7418 -0.0431
18884THY     HO68163   4.542   3.298   5.896  0.3535 -1.8814 -0.7562
18884THY    CA168164   4.398   3.192   5.868 -0.6358  0.0654  0.5893
18884THY    CA268165   4.263   3.164   5.848 -0.5982  0.6291 -0.8460
18884THY    CP168166   4.172   3.282   5.817 -0.2425  0.1091 -0.1336
18884THY    HP168167   4.231   3.355   5.760 -2.3856 -1.1886  0.6872
18884THY    CP268168   4.126   3.355   5.940  0.6982 -0.6425  0.2214
18884THY    HP268169   4.212   3.414   5.973  0.1127 -1.2712  1.4649
18884THY    HP368170   4.091   3.275   6.006  0.1002 -2.3718 -1.0178
18884THY    HP468171   4.049   3.431   5.922  0.7135  0.6592  0.5664
18884THY    CP368172   4.044   3.241   5.736 -0.5807  0.3712  0.5476
18884THY    HP568173   3.967   3.198   5.802  1.0184  0.6889 -2.0268
18884THY    HP668174   4.078   3.182   5.650  0.0919  0.3665  0.9271
18884THY    HP768175   3.991   3.329   5.700  0.0944  0.3565  0.9570
18884THY    CA368176   4.205   3.038   5.874 -0.4748  0.1668  0.8092
18884THY    HA368177   4.099   3.016   5.868 -0.3053  0.2915 -0.0739
18884THY    CA468178   4.292   2.938   5.924 -0.4532  0.1074  0.1706
18884THY    HA468179   4.262   2.834   5.938  0.7241 -1.3971 -0.4206
18884THY    CA568180   4.432   2.959   5.930 -0.2942 -0.0802  0.0662
18884THY    CM168181   4.526   2.841   5.950 -0.2791  0.5009 -0.1927
18884THY    HM168182   4.486   2.759   6.010 -2.6591 -2.0593 -1.0704
18884THY    HM268183   4.626   2.870   5.985 -0.0753 -0.3337  0.1730
18884THY    HM368184   4.531   2.791   5.852  0.2340 -0.2670  1.2835
18884THY    CA668185   4.475   3.084   5.910 -1.1923  0.0348 -0.5384
18884THY    HA668186   4.583   3.100   5.914 -1.3057 -0.1264  0.3147
18885THY      O68187   0.858   4.707   3.885 -0.1640 -0.6921 -0.3031
18885THY     HO68188   0.764   4.682   3.882 -0.0579  0.5393 -0.9111
18885THY    CA168189   0.928   4.606   3.841 -0.7676  0.3471  0.4571
18885THY    CA268190   1.065   4.606   3.820  0.4106  0.2285 -0.2585
18885THY    CP168191   1.151   4.714   3.883 -0.3916 -0.0946 -0.6133
18885THY    HP168192   1.093   4.790   3.937 -1.4717 -2.5338  0.4432
18885THY    CP268193   1.224   4.805   3.777  0.3662  0.1392 -0.2203
18885THY    HP268194   1.175   4.903   3.778 -0.0315  0.2775 -0.4156
18885THY    HP368195   1.209   4.764   3.677 -0.4553  0.0129  0.3591
18885THY    HP468196   1.330   4.818   3.803  1.3353 -1.7362 -3.3294
18885THY    CP368197   1.249   4.652   3.982  0.0860 -0.3955  0.1710
18885THY    HP568198   1.328   4.725   4.002  2.6425 -1.0131 -2.2697
18885THY    HP668199   1.292   4.553   3.962  1.5492  0.4062  0.6166
18885THY    HP768200   1.195   4.643   4.077 -0.7149 -1.0152 -2.3048
18885THY    CA368201   1.127   4.500   3.746  0.3207  1.3023  0.3968
18885THY    HA368202   1.235   4.500   3.731  0.1516 -0.0656  0.5071
18885THY    CA468203   1.047   4.394   3.687 -0.2898  0.2050 -0.8887
18885THY    HA468204   1.079   4.316   3.618 -1.8066  0.6467 -1.9686
18885THY    CA568205   0.911   4.395   3.715  0.1464 -0.2951  0.5721
18885THY    CM168206   0.817   4.291   3.653  0.3265  0.4873  0.6530
18885THY    HM168207   0.823   4.202   3.716  2.4355 -0.9884 -0.3263
18885THY    HM268208   0.865   4.252   3.562  0.6336 -0.2678  2.6719
18885THY    HM368209   0.716   4.320   3.622  0.8178  0.4554  2.5044
18885THY    CA668210   0.853   4.498   3.790 -0.5929  0.3003  0.2196
18885THY    HA668211   0.747   4.498   3.815 -0.5009  0.7810 -1.3369
18886THY      O68212   4.154   0.905   3.482 -0.0437 -0.2141 -0.0801
18886THY     HO68213   4.136   0.999   3.465  1.3365  3.0078  0.9114
18886THY    CA168214   4.249   0.861   3.396 -0.2179  0.2642 -0.0186
18886THY    CA268215   4.310   0.732   3.410  0.0300  0.2391  0.9332
18886THY    CP168216   4.274   0.635   3.520  0.0420  0.6109  0.0595
18886THY    HP168217   4.178   0.662   3.566 -0.5867 -0.4072 -0.4025
18886THY    CP268218   4.369   0.635   3.634  0.4991 -0.2174 -0.7573
18886THY    HP268219   4.385   0.734   3.678 -0.6265  1.5701 -1.3186
18886THY    HP368220   4.462   0.583   3.607  1.7811 -0.0110  1.3154
18886THY    HP468221   4.318   0.580   3.714  0.0128  1.9284  2.5298
18886THY    CP368222   4.243   0.490   3.476  0.9921 -0.4095  0.2025
18886THY    HP568223   4.155   0.482   3.410  0.0217  1.0384 -1.9830
18886THY    HP668224   4.220   0.435   3.568 -0.0419  0.1776  1.5596
18886THY    HP768225   4.323   0.443   3.418 -0.1270 -3.3579  1.6131
18886THY    CA368226   4.405   0.692   3.311  0.3216 -1.0463  0.0722
18886THY    HA368227   4.454   0.595   3.311  1.6433  1.9345  0.6304
18886THY    CA468228   4.421   0.771   3.199  0.0973 -0.0941 -0.9456
18886THY    HA468229   4.483   0.749   3.113  1.5489  0.2044  1.6082
18886THY    CA568230   4.372   0.902   3.192  0.8230 -0.3002 -0.2723
18886THY    CM168231   4.413   0.989   3.070  0.1717  0.4356  0.0149
18886THY    HM168232   4.385   0.929   2.982 -2.2765  0.0012  1.6357
18886THY    HM268233   4.518   1.019   3.078 -0.2496 -0.5756  1.9202
18886THY    HM368234   4.341   1.071   3.063 -0.0695 -1.5535 -0.3229
18886THY    CA668235   4.286   0.944   3.294  0.6096 -0.2097 -0.8794
18886THY    HA668236   4.250   1.046   3.290 -0.4067  0.3029 -1.2083
18887THY      O68237   6.379   0.536   4.938  0.0315 -0.3458  0.1330
18887THY     HO68238   6.361   0.585   4.856 -1.5994 -0.1706 -0.1224
18887THY    CA168239   6.350   0.633   5.028  0.2488  0.1417 -0.6528
18887THY    CA268240   6.428   0.671   5.132 -0.7089  0.0749 -0.5085
18887THY    CP168241   6.544   0.582   5.174 -0.4428 -0.0433  0.5845
18887THY    HP168242   6.522   0.475   5.164 -0.9460  0.6382  0.6190
18887THY    CP268243   6.567   0.594   5.327 -1.1198  0.4595 -0.3160
18887THY    HP268244   6.484   0.555   5.386  0.7744  1.1525 -3.7257
18887THY    HP368245   6.600   0.697   5.344 -0.4860  0.8159 -0.5726
18887THY    HP468246   6.656   0.540   5.363 -2.2448  3.2004 -0.4892
18887THY    CP368247   6.668   0.620   5.092  0.2474  0.3442 -0.1415
18887THY    HP568248   6.689   0.718   5.135 -3.6547  2.8372 -0.1823
18887THY    HP668249   6.647   0.619   4.985 -1.1205  0.5896 -1.0614
18887THY    HP768250   6.749   0.549   5.114 -0.3710 -0.6066 -1.1699
18887THY    CA368251   6.393   0.787   5.201  0.4872  0.6894  0.2730
18887THY    HA368252   6.459   0.826   5.278  1.0962  0.8493 -1.0361
18887THY    CA468253   6.278   0.854   5.166  0.2472  0.3890 -0.3404
18887THY    HA468254   6.244   0.933   5.232  0.2464  2.5406 -2.0569
18887THY    CA568255   6.195   0.815   5.058 -0.3540  0.2806  0.7746
18887THY    CM168256   6.080   0.894   5.013  0.3258  0.4720  0.1432
18887THY    HM168257   6.096   0.918   4.907 -1.6428  0.1435  0.1533
18887THY    HM268258   6.075   0.987   5.071  0.2959  1.7749 -0.6514
18887THY    HM368259   5.987   0.840   5.033  0.2309  3.9842  1.3915
18887THY    CA668260   6.241   0.712   4.987 -0.0836  0.0769  0.7256
18887THY    HA668261   6.184   0.679   4.900  2.5692 -0.8194 -1.8896
18888THY      O68262   1.511   1.485   6.814  0.1514  0.7211  0.1564
18888THY     HO68263   1.444   1.425   6.851  1.3555 -0.1364 -1.8018
18888THY    CA168264   1.603   1.508   6.917 -0.1432  0.6829  0.1901
18888THY    CA268265   1.705   1.418   6.947  0.6174 -0.2453 -0.0260
18888THY    CP168266   1.719   1.290   6.862  0.0612 -0.3470  0.8233
18888THY    HP168267   1.627   1.285   6.803  0.9668 -1.9870  2.3346
18888THY    CP268268   1.738   1.158   6.942 -0.4416 -0.1930  0.4701
18888THY    HP268269   1.823   1.179   7.008 -1.0339 -0.0281  2.6439
18888THY    HP368270   1.753   1.080   6.868  0.7328  1.3426 -0.8307
18888THY    HP468271   1.645   1.144   6.999  0.6730  1.7452  0.5238
18888THY    CP368272   1.839   1.309   6.766  0.0065  0.4841  0.4262
18888THY    HP568273   1.861   1.216   6.713  1.2867  0.7780  0.5341
18888THY    HP668274   1.929   1.338   6.822  0.0041  0.7485 -0.0580
18888THY    HP768275   1.801   1.392   6.706  2.9998 -0.0423  1.5332
18888THY    CA368276   1.796   1.456   7.049  0.7761  0.0820  0.4207
18888THY    HA368277   1.884   1.395   7.070 -0.5985 -2.0758 -2.6236
18888THY    CA468278   1.788   1.583   7.105  0.8953 -0.3652 -0.0344
18888THY    HA468279   1.865   1.623   7.170 -0.6332  1.3949  0.1651
18888THY    CA568280   1.678   1.666   7.073  0.0528 -1.1745  0.2667
18888THY    CM168281   1.667   1.797   7.147 -0.2182 -0.0859  0.2372
18888THY    HM168282   1.572   1.805   7.200 -0.4625 -0.6089  0.8603
18888THY    HM268283   1.666   1.880   7.074  0.4862 -1.7321 -1.1402
18888THY    HM368284   1.751   1.801   7.217 -0.9404  0.7929  0.2130
18888THY    CA668285   1.585   1.628   6.984  1.2264 -0.0165  0.6290
18888THY    HA668286   1.510   1.701   6.955  0.2198  0.6405 -0.1110
18889THY      O68287   5.913   7.265   5.821 -0.0321  0.1200  0.7274
18889THY     HO68288   5.834   7.210   5.812  0.4551 -0.9010  0.1567
18889THY    CA168289   5.940   7.298   5.946 -0.3358  0.1391 -0.7439
18889THY    CA268290   6.008   7.419   5.975  0.6597 -0.2528  0.4686
18889THY    CP168291   6.048   7.519   5.868  0.3048  0.8189  0.2599
18889THY    HP168292   5.999   7.499   5.772  2.7130  0.0438 -2.5655
18889THY    CP268293   6.194   7.492   5.825 -0.2451  0.0470 -0.1813
18889THY    HP268294   6.198   7.393   5.778  0.2439  1.1221 -0.6879
18889THY    HP368295   6.252   7.467   5.914 -3.1401  2.2620  0.4834
18889THY    HP468296   6.238   7.568   5.759 -1.1940 -2.0171 -1.3382
18889THY    CP368297   6.024   7.660   5.908  0.1142 -0.0666 -0.0021
18889THY    HP568298   6.028   7.722   5.818  1.2588 -0.2486 -0.3185
18889THY    HP668299   6.106   7.692   5.974  0.4517 -0.0926 -0.7893
18889THY    HP768300   5.929   7.672   5.962  0.6188  0.5855  1.2996
18889THY    CA368301   6.043   7.449   6.109  0.0765 -0.6313  0.2660
18889THY    HA368302   6.101   7.537   6.136  1.2228 -3.1410  0.3631
18889THY    CA468303   6.011   7.362   6.212 -0.7535 -0.2073  0.0754
18889THY    HA468304   6.045   7.387   6.312  2.6300 -1.0874 -0.5322
18889THY    CA568305   5.931   7.247   6.181  0.0364 -0.4251 -0.4373
18889THY    CM168306   5.891   7.152   6.297  0.0245  0.3601 -0.2622
18889THY    HM168307   5.846   7.212   6.377 -1.7415  1.1768 -2.5445
18889THY    HM268308   5.981   7.103   6.338 -0.0867 -0.3154 -1.0440
18889THY    HM368309   5.813   7.079   6.275 -1.7339  2.2764  0.9183
18889THY    CA668310   5.897   7.214   6.053  0.3834  0.4560 -0.2634
18889THY    HA668311   5.835   7.129   6.028 -2.1924 -2.4445  2.2351
18890THY      O68312   3.408   7.744   5.767  0.4241  0.0649  0.5921
18890THY     HO68313   3.361   7.665   5.735  2.5809  1.1094 -1.2502
18890THY    CA168314   3.314   7.806   5.841  0.6691 -0.2890 -0.1712
18890THY    CA268315   3.338   7.933   5.906 -0.6313  0.3419 -0.8744
18890THY    CP168316   3.471   8.001   5.903 -0.2825 -0.1192 -0.4725
18890THY    HP168317   3.555   7.932   5.893  1.0437 -0.4373  1.1334
18890THY    CP268318   3.503   8.082   6.029  0.2868  0.5443 -0.2628
18890THY    HP268319   3.472   8.024   6.116 -1.5651 -1.1948 -2.0422
18890THY    HP368320   3.444   8.174   6.030  0.8134 -1.2239  0.1508
18890THY    HP468321   3.609   8.110   6.035  1.4580  0.5668 -4.1457
18890THY    CP368322   3.494   8.098   5.789  0.1677 -0.2136 -0.3963
18890THY    HP568323   3.592   8.144   5.771 -1.2338 -1.4666  2.3359
18890THY    HP668324   3.416   8.172   5.768 -0.6793 -0.5150 -1.3597
18890THY    HP768325   3.489   8.036   5.698 -2.5055 -1.7084  1.7626
18890THY    CA368326   3.231   7.994   5.976  0.2794  0.6033 -0.6488
18890THY    HA368327   3.243   8.092   6.020 -0.0170  0.3723 -0.5040
18890THY    CA468328   3.111   7.921   5.983 -1.1798 -0.1045  0.2903
18890THY    HA468329   3.030   7.954   6.048 -1.7197  0.1368 -1.3982
18890THY    CA568330   3.088   7.802   5.918  0.5293  0.1634 -0.5864
18890THY    CM168331   2.952   7.740   5.924  0.5161  0.5291 -0.3259
18890THY    HM168332   2.912   7.749   6.026 -0.7140  0.0485 -0.1459
18890THY    HM268333   2.933   7.636   5.895 -2.7692  0.2429  0.2370
18890THY    HM368334   2.885   7.793   5.855 -1.5968  0.0144 -3.4323
18890THY    CA668335   3.187   7.744   5.851 -0.4571  0.0419 -0.4131
18890THY    HA668336   3.168   7.656   5.790  0.2278 -2.8896  1.3363
18891THY      O68337   8.247   0.958   2.189  0.1298 -0.1196  0.1413
18891THY     HO68338   8.229   0.863   2.179  0.7955 -1.4814  0.1294
18891THY    CA168339   8.274   1.010   2.311 -0.0808  0.2871  0.1002
18891THY    CA268340   8.328   1.141   2.329 -0.3507  0.3898 -0.7900
18891THY    CP168341   8.355   1.234   2.206 -0.7735  0.2853  0.5108
18891THY    HP168342   8.293   1.202   2.122 -1.6355  0.6319  1.2355
18891THY    CP268343   8.501   1.221   2.156 -0.6932 -0.6318  0.1232
18891THY    HP268344   8.573   1.238   2.237  0.6499 -1.5691 -0.8564
18891THY    HP368345   8.523   1.291   2.075  2.3148 -0.6139 -0.6584
18891THY    HP468346   8.520   1.122   2.112 -1.0855 -1.7623  0.5414
18891THY    CP368347   8.329   1.386   2.219  0.9052 -0.4574 -0.1274
18891THY    HP568348   8.229   1.401   2.263 -0.4211 -2.8219 -1.4391
18891THY    HP668349   8.314   1.438   2.124 -1.3078  0.5586  1.2772
18891THY    HP768350   8.406   1.434   2.280 -1.2321  1.9723  0.4565
18891THY    CA368351   8.350   1.183   2.458  0.4442  0.4099  0.1461
18891THY    HA368352   8.375   1.289   2.470  2.4369 -2.4987  0.1237
18891THY    CA468353   8.322   1.100   2.572 -0.5142  0.1331 -0.1746
18891THY    HA468354   8.338   1.138   2.672 -2.5709 -0.1281  1.6347
18891THY    CA568355   8.269   0.965   2.548 -0.6269  0.5599 -1.0387
18891THY    CM168356   8.248   0.874   2.674  0.1896 -0.4102  0.3150
18891THY    HM168357   8.153   0.819   2.679 -0.4243 -0.3523  1.3655
18891THY    HM268358   8.250   0.928   2.769  0.7530 -0.8304  1.0482
18891THY    HM368359   8.324   0.795   2.672  0.4079  0.3021  0.5044
18891THY    CA668360   8.239   0.920   2.417 -1.2279 -0.5059  0.0440
18891THY    HA668361   8.205   0.818   2.403  0.1414  0.9126 -0.6522
18892THY      O68362   5.558   0.566   5.114  0.4102  0.2950 -0.1894
18892THY     HO68363   5.555   0.490   5.175 -0.7863 -1.6046 -1.7558
18892THY    CA168364   5.672   0.552   5.041 -0.4616 -0.3327 -0.4343
18892THY    CA268365   5.678   0.582   4.907 -0.1428 -0.0974 -0.6792
18892THY    CP168366   5.555   0.647   4.838 -0.0077 -0.2710 -0.1676
18892THY    HP168367   5.459   0.614   4.879  0.0671 -0.6251 -0.8460
18892THY    CP268368   5.545   0.621   4.689  0.1157 -0.6393 -0.2249
18892THY    HP268369   5.443   0.622   4.649 -0.4193  0.5969 -1.3784
18892THY    HP368370   5.570   0.515   4.673 -1.7660 -1.3278 -0.6001
18892THY    HP468371   5.618   0.682   4.635  1.0161  0.6488 -0.1354
18892THY    CP368372   5.560   0.800   4.870  0.0406  0.1937 -0.5355
18892THY    HP568373   5.547   0.808   4.979 -0.8993  0.3515 -3.0555
18892THY    HP668374   5.476   0.841   4.812  0.3776  0.9989  1.4076
18892THY    HP768375   5.646   0.857   4.835 -0.6925  0.3262  0.6874
18892THY    CA368376   5.804   0.583   4.844  0.4664 -0.2152  0.8767
18892THY    HA368377   5.813   0.609   4.739 -3.4933 -1.2687 -1.2372
18892THY    CA468378   5.922   0.550   4.920  0.0429 -0.0933  0.1275
18892THY    HA468379   6.018   0.548   4.871 -0.0492 -0.2830  0.3881
18892THY    CA568380   5.906   0.497   5.051 -0.2396  0.4027  0.0099
18892THY    CM168381   6.018   0.438   5.129  0.7524 -0.9122  0.0173
18892THY    HM168382   6.062   0.354   5.075  0.3097 -0.3199 -0.6062
18892THY    HM268383   5.984   0.412   5.231 -2.2077 -1.0315  2.7633
18892THY    HM368384   6.096   0.514   5.135  0.9521 -4.4609  0.2266
18892THY    CA668385   5.782   0.506   5.110  0.1056 -0.6276  0.1556
18892THY    HA668386   5.773   0.478   5.214  1.4870  0.3085  2.8177
18893THY      O68387   2.310   7.859   5.733  0.1843  0.2027  0.0031
18893THY     HO68388   2.247   7.786   5.746  0.4129  0.5079 -0.1420
18893THY    CA168389   2.371   7.820   5.620 -0.8689  0.3041 -0.6108
18893THY    CA268390   2.504   7.870   5.580  0.9436 -0.4247  0.5267
18893THY    CP168391   2.583   7.971   5.661 -0.0062 -0.2199 -0.7222
18893THY    HP168392   2.514   8.054   5.681  1.7377 -0.5749  0.8773
18893THY    CP268393   2.700   8.040   5.582  0.5773 -0.3863 -0.5974
18893THY    HP268394   2.731   8.120   5.650  1.2820 -0.6536 -0.6432
18893THY    HP368395   2.659   8.077   5.488 -0.8866 -0.0752 -1.3239
18893THY    HP468396   2.785   7.976   5.559  1.2841 -1.6252  0.7340
18893THY    CP368397   2.640   7.912   5.787 -0.2847 -0.3209 -0.0051
18893THY    HP568398   2.687   7.817   5.759 -0.5605  2.1570 -0.9412
18893THY    HP668399   2.563   7.905   5.865  0.8849  0.8158 -0.9257
18893THY    HP768400   2.708   7.980   5.839 -0.4884 -0.1660  0.0808
18893THY    CA368401   2.562   7.806   5.465 -0.8173 -0.1144  0.8086
18893THY    HA368402   2.661   7.838   5.435 -0.7933  0.1004  0.9397
18893THY    CA468403   2.491   7.711   5.385 -0.1215 -0.7414 -0.1736
18893THY    HA468404   2.529   7.677   5.289 -0.6269 -1.9075  2.2652
18893THY    CA568405   2.365   7.669   5.429  1.0478  0.0473 -0.1618
18893THY    CM168406   2.303   7.557   5.352 -0.4293 -0.4705  0.0997
18893THY    HM168407   2.325   7.468   5.413 -1.1528 -0.8392 -0.3386
18893THY    HM268408   2.341   7.549   5.250 -1.0507 -0.5562 -3.1067
18893THY    HM368409   2.195   7.571   5.366 -0.1760  1.7684  0.2376
18893THY    CA668410   2.308   7.726   5.544 -0.4669  0.3572 -0.1458
18893THY    HA668411   2.207   7.696   5.572 -1.3723  0.1707  2.4901
18894THY      O68412   4.085   7.546   6.163 -0.3749  1.0964  0.0904
18894THY     HO68413   4.161   7.491   6.188 -1.1151  0.4497 -1.2612
18894THY    CA168414   4.086   7.663   6.230  0.3289  0.2218  0.2550
18894THY    CA268415   4.006   7.777   6.190  0.8070 -0.2737  0.4017
18894THY    CP168416   3.939   7.770   6.048 -0.0990  0.1335  0.3131
18894THY    HP168417   3.949   7.674   5.996 -2.1638  2.4573 -1.2766
18894THY    CP268418   4.000   7.874   5.957 -0.1768 -0.0960  0.2350
18894THY    HP268419   4.092   7.840   5.908 -0.4149 -0.8520  0.6805
18894THY    HP368420   4.030   7.969   6.004  2.3924 -1.0509 -0.0126
18894THY    HP468421   3.938   7.888   5.868  0.9895 -1.3078 -1.8236
18894THY    CP368422   3.796   7.794   6.055  0.1619 -0.2695  0.1423
18894THY    HP568423   3.774   7.898   6.081  0.5933  0.7492 -0.0133
18894THY    HP668424   3.745   7.730   6.127 -0.3377 -2.5440 -2.1879
18894THY    HP768425   3.759   7.765   5.956  1.7489 -0.9833  0.4418
18894THY    CA368426   3.997   7.883   6.286 -0.6820 -0.1598  0.5194
18894THY    HA368427   3.944   7.973   6.256 -1.8754 -2.0849 -0.7574
18894THY    CA468428   4.074   7.882   6.406 -0.4757 -0.6198  0.0995
18894THY    HA468429   4.064   7.962   6.479  0.2225  0.9042 -1.1404
18894THY    CA568430   4.149   7.773   6.440 -0.1910  0.5020 -0.1097
18894THY    CM168431   4.202   7.777   6.579 -0.4374  0.3596 -0.1582
18894THY    HM168432   4.278   7.701   6.602 -1.1343 -0.4850 -1.1377
18894THY    HM268433   4.121   7.760   6.650 -1.0648 -0.1923  0.4812
18894THY    HM368434   4.238   7.877   6.606 -2.6614  0.3659  0.6970
18894THY    CA668435   4.162   7.666   6.351 -0.1387 -0.1913  0.9081
18894THY    HA668436   4.218   7.577   6.379  1.1416  3.0029  2.5708
18895THY      O68437   8.765   1.004   7.371  0.6303  0.2605  0.4993
18895THY     HO68438   8.761   0.907   7.379 -0.2400  1.7813  0.6329
18895THY    CA168439   8.790   1.029   7.497  0.4107 -0.1032 -0.3216
18895THY    CA268440   8.853   1.150   7.535  0.1198 -0.0307  0.4836
18895THY    CP168441   8.902   1.244   7.428 -0.2487 -0.1623 -0.5009
18895THY    HP168442   8.894   1.210   7.324  1.9808 -1.6119  2.8378
18895THY    CP268443   9.048   1.297   7.439  0.1377  0.2242  0.1026
18895THY    HP268444   9.115   1.216   7.472  1.3504 -1.4215  0.3610
18895THY    HP368445   9.054   1.377   7.513  1.3036  0.2803 -0.0140
18895THY    HP468446   9.081   1.335   7.341  2.5447  0.2417 -1.6935
18895THY    CP368447   8.806   1.368   7.414 -0.4247  0.6344  0.0284
18895THY    HP568448   8.813   1.443   7.493  1.3274  0.0455  0.5198
18895THY    HP668449   8.705   1.325   7.417  0.3965  3.3894 -1.9633
18895THY    HP768450   8.821   1.412   7.315 -0.3771 -0.2680 -1.8772
18895THY    CA368451   8.880   1.170   7.665 -0.2344 -0.2714  0.4200
18895THY    HA368452   8.911   1.267   7.704 -1.6007  1.9887  0.0250
18895THY    CA468453   8.854   1.066   7.757 -0.1502  1.1935  0.1416
18895THY    HA468454   8.876   1.077   7.863  0.5044  1.0211  0.5776
18895THY    CA568455   8.797   0.941   7.721  0.6564  0.0528 -0.3070
18895THY    CM168456   8.780   0.829   7.815  0.2252  0.3983 -0.4187
18895THY    HM168457   8.675   0.820   7.846 -0.1181 -0.0658  1.6391
18895THY    HM268458   8.836   0.844   7.908 -0.0738  0.4898  0.1528
18895THY    HM368459   8.816   0.733   7.776  1.7795  2.8623 -0.9329
18895THY    CA668460   8.767   0.926   7.587  0.1720 -0.6589  0.3524
18895THY    HA668461   8.712   0.835   7.566  0.0063 -2.3429  0.8144
18896THY      O68462   1.053   2.427   2.640  0.4032  0.5134 -0.1945
18896THY     HO68463   0.999   2.364   2.590 -0.8906  0.3338  1.0001
18896THY    CA168464   0.959   2.511   2.689 -0.5731  0.2934  0.2636
18896THY    CA268465   0.971   2.539   2.829  0.2484  0.1695  0.7109
18896THY    CP168466   1.071   2.462   2.915  0.3328  0.1914 -0.2409
18896THY    HP168467   1.158   2.428   2.857  0.4067  0.5235 -0.6363
18896THY    CP268468   1.014   2.346   2.983 -0.1013 -0.3237 -0.4796
18896THY    HP268469   0.954   2.283   2.916  1.6219 -1.0002 -1.4679
18896THY    HP368470   0.960   2.384   3.071 -0.0787 -0.6669  0.3592
18896THY    HP468471   1.093   2.277   3.016 -0.9720 -2.0072 -2.3973
18896THY    CP368472   1.130   2.562   3.024 -0.6520 -0.0248 -0.0913
18896THY    HP568473   1.197   2.516   3.098  0.3875  0.1961  1.7022
18896THY    HP668474   1.054   2.607   3.089 -2.5086  0.5414 -3.6410
18896THY    HP768475   1.194   2.637   2.978  2.0119  0.6998 -1.7710
18896THY    CA368476   0.875   2.629   2.879  0.1963 -0.3202  0.4242
18896THY    HA368477   0.872   2.652   2.985 -2.2461  0.2055 -1.8943
18896THY    CA468478   0.776   2.689   2.797  0.1492  0.0577  0.5015
18896THY    HA468479   0.690   2.739   2.840 -1.5230 -0.3162 -1.8766
18896THY    CA568480   0.777   2.664   2.661  0.5547  0.6602  0.3193
18896THY    CM168481   0.679   2.726   2.570 -0.3949  1.0776  0.5475
18896THY    HM168482   0.705   2.723   2.464 -1.5363  0.8064 -0.8515
18896THY    HM268483   0.655   2.828   2.602 -0.3292  1.4305  0.4561
18896THY    HM368484   0.584   2.672   2.581 -0.5016 -0.9023  0.2761
18896THY    CA668485   0.870   2.574   2.610 -0.5560 -0.3239 -0.9822
18896THY    HA668486   0.865   2.562   2.502 -0.2348 -0.4839  0.1708
18897THY      O68487   2.511   5.992   5.841 -0.0510 -0.4185  0.4159
18897THY     HO68488   2.465   5.995   5.755 -0.3425 -0.2363  1.5190
18897THY    CA168489   2.441   6.057   5.934  0.0142 -0.3904 -0.1705
18897THY    CA268490   2.473   6.050   6.074 -0.0065  0.0396 -0.5859
18897THY    CP168491   2.587   5.957   6.118 -0.5812  0.2261 -0.4690
18897THY    HP168492   2.659   5.952   6.036 -0.9902 -0.1026 -1.1098
18897THY    CP268493   2.543   5.814   6.147  0.2336 -0.5582  0.4121
18897THY    HP268494   2.451   5.820   6.205  1.0420  0.8991 -0.7338
18897THY    HP368495   2.626   5.768   6.201 -0.5184 -0.4049 -0.8111
18897THY    HP468496   2.517   5.756   6.058 -0.9742 -0.0955  0.2080
18897THY    CP368497   2.656   6.015   6.238 -0.5639  0.5383 -0.2004
18897THY    HP568498   2.716   5.937   6.286  0.1491  1.7335  1.0361
18897THY    HP668499   2.596   6.042   6.326 -1.5321  0.2288 -1.3073
18897THY    HP768500   2.743   6.076   6.207  0.0537 -2.0707 -2.2230
18897THY    CA368501   2.388   6.123   6.164 -0.7114  0.1360  0.2894
18897THY    HA368502   2.404   6.106   6.270 -0.1971 -0.2598 -1.9654
18897THY    CA468503   2.291   6.208   6.113  0.5169 -0.2026  0.2814
18897THY    HA468504   2.239   6.268   6.187  0.2882  0.1735 -0.3779
18897THY    CA568505   2.282   6.227   5.982  0.4334 -0.0370 -0.6793
18897THY    CM168506   2.182   6.337   5.937  0.0192  0.7220 -0.3843
18897THY    HM168507   2.082   6.292   5.929  0.4381 -0.4774 -1.1403
18897THY    HM268508   2.208   6.378   5.839 -1.2591  0.2358 -0.6808
18897THY    HM368509   2.176   6.419   6.009 -2.5074  0.3871 -0.1744
18897THY    CA668510   2.344   6.149   5.890 -0.2212  0.3949 -0.4695
18897THY    HA668511   2.335   6.182   5.787  0.0327  0.6554  0.4376
18898THY      O68512   3.219   6.835   2.435 -0.8109 -0.0077 -0.4889
18898THY     HO68513   3.165   6.910   2.407 -2.7800  0.3943 -1.6959
18898THY    CA168514   3.282   6.796   2.317  0.1580 -0.3027 -0.2223
18898THY    CA268515   3.382   6.697   2.321 -0.5036 -0.4983 -0.5427
18898THY    CP168516   3.404   6.604   2.440 -0.4692 -0.5450 -0.9202
18898THY    HP168517   3.355   6.648   2.528 -0.2893 -1.1022  0.4439
18898THY    CP268518   3.544   6.580   2.483 -0.7075  0.2046 -0.6707
18898THY    HP268519   3.609   6.668   2.493 -2.3000  1.2033  0.4375
18898THY    HP368520   3.594   6.524   2.402 -2.3433 -2.6782  1.7725
18898THY    HP468521   3.541   6.524   2.577  1.0464  0.1328 -0.9534
18898THY    CP368522   3.327   6.477   2.407 -0.1172  0.4174  0.0703
18898THY    HP568523   3.226   6.493   2.368  0.4759 -1.2708 -0.0783
18898THY    HP668524   3.322   6.428   2.505 -2.7713  1.6825  2.5663
18898THY    HP768525   3.397   6.430   2.336  0.1719 -1.0046  2.5165
18898THY    CA368526   3.450   6.677   2.201 -0.4847 -0.3647  0.9790
18898THY    HA368527   3.525   6.601   2.188 -1.5484  0.0366 -0.1730
18898THY    CA468528   3.410   6.750   2.092 -0.3765  0.2690  0.0827
18898THY    HA468529   3.456   6.730   1.996  1.1292  0.6438  1.5540
18898THY    CA568530   3.325   6.860   2.097  0.5817  0.3759  0.7945
18898THY    CM168531   3.300   6.942   1.968  0.2333 -0.1716 -0.4787
18898THY    HM168532   3.386   7.009   1.957 -0.9039 -0.7539  0.9543
18898THY    HM268533   3.207   7.000   1.977  0.0769  0.7178 -0.8564
18898THY    HM368534   3.297   6.882   1.876  1.2952 -0.2139 -0.4850
18898THY    CA668535   3.260   6.880   2.214 -0.2219 -0.8115 -0.2819
18898THY    HA668536   3.180   6.953   2.224  0.0570 -0.4908 -0.0123
18899THY      O68537   2.524   1.360   5.238 -0.3000  0.4948  0.0031
18899THY     HO68538   2.570   1.380   5.322  0.7576  0.2739 -1.3628
18899THY    CA168539   2.488   1.225   5.245  0.2552 -0.3697 -0.3142
18899THY    CA268540   2.521   1.141   5.137  0.6462  0.3710  0.2550
18899THY    CP168541   2.589   1.195   5.017  0.5856  0.8077 -0.0222
18899THY    HP168542   2.631   1.294   5.038  1.8228 -2.5557  0.3077
18899THY    CP268543   2.502   1.211   4.893 -0.5530  0.7333  0.4479
18899THY    HP268544   2.427   1.291   4.903 -0.6900  0.4142  0.3622
18899THY    HP368545   2.447   1.121   4.862  0.1480 -0.3992  0.3916
18899THY    HP468546   2.558   1.231   4.801 -1.2165  0.6604  2.1718
18899THY    CP368547   2.708   1.118   4.975  0.4390  0.0372  0.6280
18899THY    HP568548   2.792   1.180   4.943 -0.1211 -1.0694  0.8480
18899THY    HP668549   2.676   1.041   4.904 -1.6111  1.6875 -0.1511
18899THY    HP768550   2.736   1.067   5.068 -2.8287 -0.2408 -2.0810
18899THY    CA368551   2.475   1.005   5.137  0.2033 -0.3210  0.5654
18899THY    HA368552   2.482   0.938   5.052 -2.0624 -0.2278  0.1402
18899THY    CA468553   2.415   0.955   5.253 -0.4046  0.3208 -0.0239
18899THY    HA468554   2.383   0.852   5.269 -2.4553 -0.3312  0.4640
18899THY    CA568555   2.384   1.044   5.367 -0.3665  0.1751  0.2200
18899THY    CM168556   2.332   0.982   5.494 -0.4559  0.1603 -0.3406
18899THY    HM168557   2.290   0.882   5.485 -0.4291  1.6531 -0.5041
18899THY    HM268558   2.253   1.044   5.538 -1.3393 -3.1274  1.1401
18899THY    HM368559   2.414   0.950   5.560 -0.9440  0.4957 -0.9119
18899THY    CA668560   2.428   1.178   5.359 -0.3377 -0.4148  0.3269
18899THY    HA668561   2.410   1.243   5.444 -0.4617  0.5448 -0.9340
18900THY      O68562   1.906   6.463   3.060  0.0240  0.3338 -0.6411
18900THY     HO68563   1.893   6.445   2.965  3.0100 -0.8379  2.3668
18900THY    CA168564   1.987   6.361   3.103 -0.3432  0.3457 -0.7237
18900THY    CA268565   2.052   6.360   3.227  0.3758  0.4716  0.1797
18900THY    CP168566   2.017   6.464   3.339 -0.3591 -0.4402  0.2959
18900THY    HP168567   1.916   6.507   3.338  0.1624 -1.2139  1.5645
18900THY    CP268568   2.106   6.577   3.324  0.1531  0.4787 -0.7164
18900THY    HP268569   2.066   6.660   3.383  1.1712  1.3970 -0.8492
18900THY    HP368570   2.121   6.607   3.219  0.5311  0.5541 -0.6337
18900THY    HP468571   2.208   6.556   3.359  0.4649  0.9252  1.3478
18900THY    CP368572   2.034   6.420   3.485  0.1348  0.4280  0.0968
18900THY    HP568573   2.140   6.405   3.508  0.3472 -0.6559 -0.1721
18900THY    HP668574   1.975   6.331   3.509  0.3061  2.2543  0.4411
18900THY    HP768575   1.998   6.500   3.550  0.4145  0.7748 -0.0547
18900THY    CA368576   2.150   6.257   3.251  0.5341  0.1182  0.4692
18900THY    HA368577   2.212   6.247   3.340  1.4709 -0.3103  2.1679
18900THY    CA468578   2.163   6.159   3.156 -0.2588  0.5398  0.0991
18900THY    HA468579   2.214   6.064   3.164 -1.0306  0.5048 -0.3225
18900THY    CA568580   2.103   6.162   3.037 -0.2070 -0.0292 -0.1817
18900THY    CM168581   2.138   6.060   2.931  0.3101  0.0129  0.2232
18900THY    HM168582   2.082   5.966   2.939 -2.8128 -3.6347  1.5062
18900THY    HM268583   2.244   6.031   2.938  0.5970  0.0360  1.2584
18900THY    HM368584   2.125   6.089   2.826  0.0000 -0.3764 -1.2468
18900THY    CA668585   2.027   6.268   3.003  0.3170  0.4125 -0.4853
18900THY    HA668586   1.987   6.276   2.902  0.4427  0.4446  0.7803
18901THY      O68587   4.015   1.625   5.521  0.5154 -0.0887 -0.1545
18901THY     HO68588   3.977   1.705   5.480 -1.3435 -0.6261 -1.2548
18901THY    CA168589   4.086   1.561   5.425  0.0279  0.3892 -0.5205
18901THY    CA268590   4.209   1.500   5.452 -0.1237  0.2389 -0.5451
18901THY    CP168591   4.262   1.493   5.596 -1.0840  0.2422 -0.1104
18901THY    HP168592   4.175   1.491   5.663 -0.9644  0.3981 -0.2228
18901THY    CP268593   4.361   1.612   5.629 -0.1120  0.0132 -0.3374
18901THY    HP268594   4.459   1.596   5.583  0.2616  1.1870 -1.6164
18901THY    HP368595   4.382   1.621   5.736  0.7636  0.1132 -2.8447
18901THY    HP468596   4.311   1.702   5.590 -1.5251  2.1043 -0.1504
18901THY    CP368597   4.333   1.370   5.640  0.0206 -0.4285  0.6359
18901THY    HP568598   4.434   1.362   5.599  0.0669 -0.0926 -0.7273
18901THY    HP668599   4.285   1.279   5.601  1.5425  0.1640 -0.4611
18901THY    HP768600   4.332   1.362   5.749  0.9239 -0.3575  1.3917
18901THY    CA368601   4.284   1.448   5.344  0.6043  0.0082  0.2891
18901THY    HA368602   4.385   1.412   5.366  0.2359 -0.2576 -0.9570
18901THY    CA468603   4.233   1.445   5.214 -0.1908 -0.1436 -0.6339
18901THY    HA468604   4.298   1.415   5.132  0.8789  1.3922 -2.8167
18901THY    CA568605   4.113   1.508   5.190  0.4369  0.3650  0.0234
18901THY    CM168606   4.066   1.528   5.056  0.6359  0.7128  0.9034
18901THY    HM168607   4.031   1.436   5.007  0.4360 -0.6476  1.6703
18901THY    HM268608   4.139   1.586   4.999  0.2519 -0.3416  0.3748
18901THY    HM368609   3.978   1.593   5.043 -0.4156  1.3882 -0.3256
18901THY    CA668610   4.039   1.572   5.295 -0.2455  0.0201  0.4006
18901THY    HA668611   3.944   1.622   5.278  0.4077  0.1343  1.6948
18902THY      O68612   1.188   3.230   4.055 -0.6601  0.2227 -0.3404
18902THY     HO68613   1.212   3.321   4.081 -4.2621  4.4185 -0.2419
18902THY    CA168614   1.054   3.238   4.083  0.0707  0.1022  0.0577
18902THY    CA268615   0.998   3.143   4.170 -0.1974  0.1371  0.2746
18902THY    CP168616   1.079   3.026   4.232 -0.8006 -0.0748 -0.0901
18902THY    HP168617   1.181   3.038   4.194 -0.8253  0.2418  1.2381
18902THY    CP268618   1.033   2.889   4.195  0.2514  0.0180  0.6387
18902THY    HP268619   1.040   2.872   4.086 -0.9943  0.2765 -2.0810
18902THY    HP368620   0.926   2.885   4.219  0.2362  0.0369  1.0760
18902THY    HP468621   1.091   2.817   4.253 -0.1766  0.3658  0.5696
18902THY    CP368622   1.069   3.034   4.393 -0.5982  0.3317  0.1272
18902THY    HP568623   1.112   3.131   4.421  1.1075 -1.0097 -0.2150
18902THY    HP668624   1.136   2.967   4.448  1.9347 -0.2626  2.0106
18902THY    HP768625   0.963   3.025   4.420 -0.7821 -0.6309 -0.6624
18902THY    CA368626   0.860   3.151   4.202  0.3001  0.2664  0.6347
18902THY    HA368627   0.815   3.072   4.262 -1.9653 -1.4492  0.5051
18902THY    CA468628   0.781   3.256   4.150 -0.0991 -0.5656 -0.3058
18902THY    HA468629   0.673   3.257   4.163 -0.0925 -0.4265 -0.8962
18902THY    CA568630   0.843   3.357   4.070  0.0277  0.4715  0.1927
18902THY    CM168631   0.757   3.476   4.022 -0.3920 -0.7092  0.1022
18902THY    HM168632   0.822   3.565   4.022 -0.0508  0.5200 -0.1346
18902THY    HM268633   0.687   3.509   4.099 -0.0978  0.0578 -0.9889
18902THY    HM368634   0.714   3.442   3.927 -0.8383 -0.1872 -0.8334
18902THY    CA668635   0.975   3.337   4.031  0.0605  0.0825  0.2461
18902THY    HA668636   1.033   3.399   3.963 -0.5052 -1.0246 -0.4150
18903THY      O68637   0.752   4.559   6.131  0.2572 -0.1777  0.2897
18903THY     HO68638   0.809   4.616   6.077  2.8645  1.0345 -0.9684
18903THY    CA168639   0.636   4.528   6.067  0.3407  0.2996  0.4776
18903THY    CA268640   0.546   4.431   6.126 -0.6837  0.1994 -0.0261
18903THY    CP168641   0.574   4.361   6.262  0.6370  1.0944 -0.4700
18903THY    HP168642   0.679   4.379   6.287  0.6459 -0.1335  1.5134
18903THY    CP268643   0.566   4.211   6.246  0.4299 -0.1866 -0.4658
18903THY    HP268644   0.653   4.173   6.190  0.7245  1.0669 -1.6860
18903THY    HP368645   0.474   4.181   6.194  1.3145 -0.3169 -3.2463
18903THY    HP468646   0.570   4.169   6.347 -0.5681 -0.5617 -1.5028
18903THY    CP368647   0.485   4.415   6.375  0.7710 -0.0812 -0.3574
18903THY    HP568648   0.535   4.373   6.463  0.9519  0.4855  0.9991
18903THY    HP668649   0.379   4.385   6.371  0.5907 -0.1978  0.2953
18903THY    HP768650   0.495   4.524   6.375  0.2742 -1.7395 -0.2900
18903THY    CA368651   0.411   4.420   6.070  0.2847 -0.7508 -0.2712
18903THY    HA368652   0.340   4.375   6.139 -0.6259 -0.4636  1.5191
18903THY    CA468653   0.369   4.499   5.953 -0.3031 -0.3659  0.1841
18903THY    HA468654   0.265   4.489   5.923 -0.5936  0.4244  0.7039
18903THY    CA568655   0.467   4.585   5.896  0.3362 -0.4053  0.0301
18903THY    CM168656   0.425   4.661   5.769  0.1439 -0.4125  0.6996
18903THY    HM168657   0.340   4.727   5.789  0.5355  0.7334  0.8792
18903THY    HM268658   0.401   4.587   5.692 -0.2300  0.9293 -0.6109
18903THY    HM368659   0.507   4.717   5.721  2.2754 -0.1949 -2.0432
18903THY    CA668660   0.597   4.602   5.957  0.3083 -0.4393 -0.8131
18903THY    HA668661   0.662   4.674   5.907  0.2702 -1.2863 -1.3499
18904THY      O68662   1.593   3.161   5.384  0.4833 -0.0094 -0.4826
18904THY     HO68663   1.605   3.201   5.296  0.0196  0.4259  0.6537
18904THY    CA168664   1.710   3.171   5.455  0.0956 -0.0599 -0.3084
18904THY    CA268665   1.723   3.112   5.583  0.0558  0.4319  0.5398
18904THY    CP168666   1.614   3.033   5.654 -0.3794 -0.0668 -0.6781
18904THY    HP168667   1.523   3.035   5.592 -1.5928  1.6602  0.7076
18904THY    CP268668   1.567   3.119   5.773  0.6357  0.5024 -0.4096
18904THY    HP268669   1.458   3.105   5.772  1.0108 -0.2236 -4.5223
18904THY    HP368670   1.598   3.224   5.770  1.0999 -0.4854 -0.5579
18904THY    HP468671   1.596   3.089   5.874 -0.5337  1.7833  2.4349
18904THY    CP368672   1.658   2.890   5.695  0.7579 -0.0733 -0.6863
18904THY    HP568673   1.566   2.841   5.729 -1.4382  0.2365  3.2368
18904THY    HP668674   1.722   2.903   5.782  1.1314 -0.2148 -1.5644
18904THY    HP768675   1.698   2.842   5.605  0.3116 -0.4812 -0.3076
18904THY    CA368676   1.846   3.137   5.650 -0.3044 -0.4443 -1.0119
18904THY    HA368677   1.866   3.101   5.750  0.5671 -0.1554  0.2262
18904THY    CA468678   1.949   3.212   5.592  0.4024  0.7992  0.1348
18904THY    HA468679   2.032   3.240   5.655  1.0682 -0.2909  0.7000
18904THY    CA568680   1.930   3.272   5.466 -0.2171  0.3430 -0.1029
18904THY    CM168681   2.028   3.364   5.408 -0.8115  0.1263  0.1978
18904THY    HM168682   2.108   3.364   5.483 -1.8332  1.2481 -0.0344
18904THY    HM268683   1.992   3.466   5.395 -0.7159 -2.5161 -0.0358
18904THY    HM368684   2.071   3.332   5.312 -0.7654  0.1719  0.1236
18904THY    CA668685   1.809   3.252   5.399  0.2070 -0.1068 -0.6942
18904THY    HA668686   1.796   3.298   5.302 -0.3435 -0.6632 -1.9711
18905THY      O68687   4.303   5.512   4.868 -0.4134 -0.2380  0.1749
18905THY     HO68688   4.396   5.538   4.882 -0.6126  1.5677  0.0552
18905THY    CA168689   4.282   5.461   4.744 -0.4715 -0.1665  0.5051
18905THY    CA268690   4.182   5.507   4.663  0.4685  0.0325 -0.0410
18905THY    CP168691   4.071   5.603   4.725  0.2765 -0.4154  0.2936
18905THY    HP168692   4.117   5.651   4.812  0.7019 -0.1291 -0.6031
18905THY    CP268693   3.939   5.529   4.767 -0.4641 -0.2617 -0.2661
18905THY    HP268694   3.904   5.468   4.683  0.3068  1.4090 -3.1625
18905THY    HP368695   3.863   5.600   4.802  0.6488 -0.2739  0.9599
18905THY    HP468696   3.961   5.468   4.855  2.8736 -0.9728 -0.2590
18905THY    CP368697   4.023   5.712   4.626 -0.0945  0.0111  0.0109
18905THY    HP568698   3.961   5.796   4.658  1.9328  0.7874  1.2825
18905THY    HP668699   3.965   5.668   4.544 -0.1223  0.2579 -0.4120
18905THY    HP768700   4.112   5.758   4.582  0.4382  2.0613  1.0177
18905THY    CA368701   4.181   5.444   4.538 -0.0329  0.5443 -0.4654
18905THY    HA368702   4.093   5.467   4.478  0.4444  0.1815  0.4670
18905THY    CA468703   4.273   5.349   4.494  0.1072  0.2773  0.4798
18905THY    HA468704   4.249   5.291   4.405 -2.6946  0.3896  1.3099
18905THY    CA568705   4.375   5.310   4.580 -0.0897 -0.2948 -0.4960
18905THY    CM168706   4.485   5.213   4.548  0.0206 -0.1263 -0.8202
18905THY    HM168707   4.550   5.247   4.466 -0.5716 -0.4356 -0.4214
18905THY    HM268708   4.445   5.115   4.519  1.9706 -0.1471 -1.6632
18905THY    HM368709   4.555   5.195   4.630  2.1951 -2.0185 -1.4673
18905THY    CA668710   4.380   5.372   4.704  0.5801  0.3545 -1.0109
18905THY    HA668711   4.455   5.343   4.778  2.2699 -0.9015 -0.0474
18906THY      O68712   0.106   7.038   7.326 -0.0933  0.0240 -0.9291
18906THY     HO68713   0.107   6.947   7.361 -2.8477  0.5383 -0.8604
18906THY    CA168714   0.222   7.093   7.362 -0.1642  0.3604 -0.2988
18906THY    CA268715   0.235   7.235   7.366  0.9367 -0.2564 -0.5533
18906THY    CP168716   0.119   7.336   7.320  0.1438  0.3257  0.1254
18906THY    HP168717   0.029   7.279   7.295 -0.6572 -1.4204  2.0139
18906THY    CP268718   0.161   7.428   7.207  0.0407 -0.6729 -0.2734
18906THY    HP268719   0.074   7.476   7.160  1.4098 -1.8318  1.1454
18906THY    HP368720   0.208   7.364   7.132 -0.2155  0.2319 -1.5588
18906THY    HP468721   0.232   7.498   7.253 -1.6800  1.6976  0.0654
18906THY    CP368722   0.071   7.429   7.430 -0.1198  0.0209 -0.1455
18906THY    HP568723   0.017   7.364   7.500 -1.5975 -2.2198 -1.4656
18906THY    HP668724   0.013   7.511   7.386  3.4879 -3.6388  0.7894
18906THY    HP768725   0.151   7.477   7.488  0.3850 -0.2380 -0.6726
18906THY    CA368726   0.353   7.292   7.409  0.0073  0.5320  0.0163
18906THY    HA368727   0.370   7.400   7.402  1.1177 -3.1495 -0.2522
18906THY    CA468728   0.465   7.211   7.447 -0.0764  0.3331 -0.0680
18906THY    HA468729   0.554   7.260   7.485 -0.0679 -0.7134  0.7806
18906THY    CA568730   0.444   7.073   7.444 -0.7611  0.1560  0.0463
18906THY    CM168731   0.551   6.983   7.480  0.2707 -0.6410  0.5984
18906THY    HM168732   0.583   6.924   7.393  1.7990  0.9748 -1.0908
18906THY    HM268733   0.522   6.931   7.572  0.4929 -0.3252  1.0228
18906THY    HM368734   0.636   7.047   7.507  1.7147  0.5783 -1.6864
18906THY    CA668735   0.324   7.016   7.404 -0.1552  0.1622  0.3686
18906THY    HA668736   0.308   6.909   7.411  0.6179 -2.8771 -0.0418
18907THY      O68737   2.681   4.987   5.865  0.3172 -0.4615  0.1705
18907THY     HO68738   2.692   5.081   5.844  0.3711 -0.6750  0.1177
18907THY    CA168739   2.769   4.919   5.788  0.9374  0.8995 -0.2243
18907THY    CA268740   2.801   4.785   5.811  0.1887 -0.6299 -0.4818
18907THY    CP168741   2.744   4.712   5.936  0.1634 -0.1291  0.5332
18907THY    HP168742   2.642   4.745   5.958 -0.0081 -1.0101  0.6373
18907THY    CP268743   2.820   4.745   6.058 -0.6662 -0.6694 -0.3913
18907THY    HP268744   2.779   4.686   6.141 -0.5366  1.8081  2.7636
18907THY    HP368745   2.802   4.848   6.090  0.0867  1.1267 -0.7817
18907THY    HP468746   2.928   4.724   6.056 -0.8362 -3.1264 -1.3879
18907THY    CP368747   2.740   4.558   5.933  0.0523 -0.0415  0.1678
18907THY    HP568748   2.674   4.530   5.850 -1.1963  0.6192  1.0490
18907THY    HP668749   2.698   4.516   6.025 -1.2167 -0.0446  1.3593
18907THY    HP768750   2.835   4.503   5.926 -0.3544  0.4006 -0.6103
18907THY    CA368751   2.907   4.726   5.738  0.0723  0.6919 -0.2617
18907THY    HA368752   2.937   4.623   5.752  0.5750 -0.0777 -0.2282
18907THY    CA468753   2.973   4.802   5.644  0.1566  0.3355  0.1331
18907THY    HA468754   3.049   4.748   5.588 -1.6857 -1.9788 -0.2071
18907THY    CA568755   2.944   4.935   5.622 -0.2178 -0.2520  0.0677
18907THY    CM168756   3.018   5.022   5.516  0.9328  0.3187 -0.0465
18907THY    HM168757   3.100   4.973   5.464  1.9904  0.1437  1.8376
18907THY    HM268758   3.052   5.119   5.555 -0.8536  1.3519  0.2206
18907THY    HM368759   2.944   5.039   5.437 -2.2505  3.3185  1.4434
18907THY    CA668760   2.838   4.995   5.698 -1.1226 -0.7797 -0.4537
18907THY    HA668761   2.814   5.101   5.687 -2.0186  1.2308 -0.4051
18908THY      O68762   6.397   7.275   4.036  0.4658 -0.4606  0.6866
18908THY     HO68763   6.386   7.181   4.015  1.0524 -0.7183  0.6721
18908THY    CA168764   6.279   7.322   4.069  0.4933 -0.1349  0.0951
18908THY    CA268765   6.263   7.435   4.159 -0.3164  0.4956  0.0322
18908THY    CP168766   6.386   7.505   4.217  0.0467 -0.6411 -0.4426
18908THY    HP168767   6.483   7.485   4.169  1.1810 -0.0685  2.9471
18908THY    CP268768   6.403   7.469   4.362  0.3552 -0.1238  0.8219
18908THY    HP268769   6.428   7.364   4.378 -1.5414  0.8906  0.4781
18908THY    HP368770   6.311   7.494   4.418 -0.8494 -2.4372  1.9398
18908THY    HP468771   6.484   7.532   4.399  0.3855  0.0444  0.6844
18908THY    CP368772   6.373   7.658   4.196 -0.1205 -0.4307  0.3604
18908THY    HP568773   6.466   7.714   4.211 -1.2052  0.0439  2.1134
18908THY    HP668774   6.292   7.705   4.253 -1.3318 -1.5036 -0.3628
18908THY    HP768775   6.337   7.674   4.093 -0.6807 -0.2115  0.5544
18908THY    CA368776   6.133   7.474   4.190 -1.0360 -0.1568 -0.3390
18908THY    HA368777   6.108   7.559   4.253 -2.0893  0.0338 -0.7832
18908THY    CA468778   6.027   7.415   4.124  0.3648  0.1407  0.4508
18908THY    HA468779   5.926   7.437   4.158  0.8048  0.2972  2.3677
18908THY    CA568780   6.041   7.310   4.034 -0.1927 -0.5463  0.8228
18908THY    CM168781   5.930   7.257   3.965  0.0322  0.8657  0.1302
18908THY    HM168782   5.950   7.154   3.933 -0.5109  1.3233 -0.1312
18908THY    HM268783   5.902   7.313   3.875 -0.5424  1.6440  1.1308
18908THY    HM368784   5.843   7.245   4.031  0.7239  1.9500  0.9259
18908THY    CA668785   6.168   7.262   4.011 -0.2656  0.2054 -0.2388
18908THY    HA668786   6.187   7.177   3.946  4.4159 -0.5874  1.1615
18909THY      O68787   2.929   1.701   6.411 -0.2500 -0.3242  0.0950
18909THY     HO68788   2.960   1.677   6.322 -1.2236 -0.8684  0.7947
18909THY    CA168789   2.814   1.634   6.421  0.5733  1.1083 -0.3040
18909THY    CA268790   2.720   1.644   6.523  0.2534 -0.3277 -0.0335
18909THY    CP168791   2.756   1.734   6.653 -0.1463  0.4114  0.5001
18909THY    HP168792   2.808   1.826   6.622 -0.7083 -2.6309 -0.0948
18909THY    CP268793   2.848   1.656   6.753 -0.3215  0.7980 -0.3307
18909THY    HP268794   2.843   1.711   6.848  0.0492  1.3782 -1.2850
18909THY    HP368795   2.948   1.645   6.709 -0.3822  0.1704  1.2896
18909THY    HP468796   2.810   1.556   6.776 -0.3731  0.1799 -0.4535
18909THY    CP368797   2.631   1.778   6.731  0.1556 -0.0139 -0.3720
18909THY    HP568798   2.583   1.690   6.777 -0.4548  0.3766  0.1569
18909THY    HP668799   2.565   1.818   6.654  0.3164 -1.2993 -2.4147
18909THY    HP768800   2.653   1.851   6.811 -2.2375  3.2638 -2.9107
18909THY    CA368801   2.604   1.566   6.526 -0.2243  0.6709 -0.1051
18909THY    HA368802   2.525   1.571   6.601 -1.5770 -0.7640  1.0397
18909THY    CA468803   2.579   1.482   6.413  0.3114  0.8761 -0.4415
18909THY    HA468804   2.486   1.427   6.403 -0.6877  1.3817  1.1011
18909THY    CA568805   2.675   1.468   6.314  0.0437 -0.3090 -0.4161
18909THY    CM168806   2.664   1.377   6.196  0.7821 -0.2607  0.2036
18909THY    HM168807   2.759   1.329   6.170 -0.3507 -1.3601 -1.5382
18909THY    HM268808   2.623   1.431   6.110  1.0348 -0.4166  0.1488
18909THY    HM368809   2.592   1.297   6.214 -0.4418  2.2379  1.7275
18909THY    CA668810   2.790   1.547   6.314 -0.3212 -0.6484 -0.3244
18909THY    HA668811   2.855   1.543   6.227  0.9202  0.2881 -1.2948
18910THY      O68812   0.113   6.629   2.343 -0.0417 -0.3163  0.4964
18910THY     HO68813   0.021   6.598   2.342  0.1925 -0.8405 -0.2039
18910THY    CA168814   0.178   6.522   2.393 -0.6088 -0.0947 -0.3944
18910THY    CA268815   0.305   6.534   2.454 -0.0555 -0.5044  0.2433
18910THY    CP168816   0.364   6.673   2.480  0.1639  0.1350 -0.4913
18910THY    HP168817   0.306   6.748   2.424 -1.2744 -0.9513 -2.3336
18910THY    CP268818   0.510   6.681   2.441 -0.7649  0.4390  0.8361
18910THY    HP268819   0.517   6.654   2.335  1.9124  0.0011  2.8790
18910THY    HP368820   0.570   6.600   2.484 -1.6085  0.7838  0.3800
18910THY    HP468821   0.555   6.780   2.434 -2.5813 -2.0154  1.5871
18910THY    CP368822   0.353   6.709   2.625  0.1591  0.2202  0.2851
18910THY    HP568823   0.266   6.773   2.640 -0.9341 -2.2750 -0.4837
18910THY    HP668824   0.444   6.761   2.659 -0.0397 -0.4882  1.1265
18910THY    HP768825   0.346   6.622   2.691  2.8635  0.3073  0.0394
18910THY    CA368826   0.369   6.430   2.519  0.0077 -0.6073 -0.2416
18910THY    HA368827   0.461   6.441   2.577 -0.7498  0.1305  3.4008
18910THY    CA468828   0.307   6.304   2.502  1.1742 -0.7465 -0.3416
18910THY    HA468829   0.358   6.220   2.548  2.2497  0.5481  0.9591
18910THY    CA568830   0.181   6.284   2.433 -0.1294  0.4055 -0.8909
18910THY    CM168831   0.111   6.154   2.438  0.1813 -0.3299  0.0659
18910THY    HM168832   0.094   6.110   2.339 -0.0816  0.3227 -1.3664
18910THY    HM268833   0.013   6.176   2.482 -0.2542 -1.0591 -0.3743
18910THY    HM368834   0.156   6.081   2.506  1.0004 -0.1689  0.7031
18910THY    CA668835   0.119   6.396   2.377 -0.0298  0.5921 -0.4341
18910THY    HA668836   0.022   6.392   2.327  1.1539 -2.0902  1.0879
18911THY      O68837   2.806   8.749   7.096  0.6282  0.6637  0.7532
18911THY     HO68838   2.826   8.834   7.053 -0.0055  1.4159  1.3091
18911THY    CA168839   2.914   8.712   7.164 -0.2952  0.2695  0.0729
18911THY    CA268840   2.919   8.605   7.256 -0.1354 -0.4809 -0.1324
18911THY    CP168841   2.803   8.509   7.279 -1.0352 -0.6237 -0.1197
18911THY    HP168842   2.728   8.528   7.201  0.2824 -1.9122 -0.0190
18911THY    CP268843   2.748   8.527   7.415  0.3804 -0.9835 -0.3043
18911THY    HP268844   2.677   8.450   7.449  1.7301 -1.8231 -1.9927
18911THY    HP368845   2.704   8.627   7.421  0.2026  1.3033 -0.4721
18911THY    HP468846   2.831   8.528   7.486 -0.7729  0.4562  1.7976
18911THY    CP368847   2.836   8.363   7.247  0.2558  0.1113 -0.4835
18911THY    HP568848   2.739   8.314   7.229  0.8263 -1.6465 -1.0542
18911THY    HP668849   2.892   8.317   7.329  0.4948 -0.7441 -1.7846
18911THY    HP768850   2.902   8.358   7.159  0.8200  0.5450 -0.7527
18911THY    CA368851   3.037   8.583   7.331  0.4056 -0.7063 -0.1492
18911THY    HA368852   3.029   8.509   7.410 -0.2024  0.2105  0.8692
18911THY    CA468853   3.147   8.670   7.326  0.1102 -0.4716 -0.2971
18911THY    HA468854   3.232   8.647   7.389  0.4137 -0.5840  0.5090
18911THY    CA568855   3.149   8.769   7.226 -0.8582  0.4236  0.0786
18911THY    CM168856   3.268   8.856   7.219 -0.0757 -0.3512  0.1957
18911THY    HM168857   3.329   8.845   7.128  0.3081 -0.0358 -0.3572
18911THY    HM268858   3.332   8.851   7.307  0.0248 -0.4009  0.5356
18911THY    HM368859   3.237   8.961   7.217 -2.2766  0.5759 -0.3923
18911THY    CA668860   3.029   8.797   7.155  0.3642 -0.4767  0.2138
18911THY    HA668861   3.024   8.884   7.090 -0.7112 -0.7237 -0.0193
18912THY      O68862   2.188   2.801   7.763 -0.0537 -0.2739  0.5443
18912THY     HO68863   2.222   2.724   7.811  1.3356 -1.1563  0.5645
18912THY    CA168864   2.164   2.749   7.640  0.4664 -0.3316  0.5311
18912THY    CA268865   2.132   2.826   7.528 -0.5618  0.1775  0.2745
18912THY    CP168866   2.118   2.975   7.529  0.2941  0.0952 -0.3453
18912THY    HP168867   2.158   3.021   7.620 -1.4211  0.1588  1.1500
18912THY    CP268868   1.967   3.006   7.526 -0.3657 -0.3282 -0.6028
18912THY    HP268869   1.930   2.937   7.602  0.0764  0.7039  0.2477
18912THY    HP368870   1.925   2.989   7.426  0.5775 -0.6829 -0.9142
18912THY    HP468871   1.944   3.108   7.561 -0.1921 -1.1227 -0.2797
18912THY    CP368872   2.185   3.038   7.406 -0.0193  0.0879 -0.1126
18912THY    HP568873   2.124   3.034   7.315  0.1165  0.0361 -2.6396
18912THY    HP668874   2.282   3.001   7.373 -0.6499 -0.9124 -0.9468
18912THY    HP768875   2.211   3.141   7.435  2.1557  2.0633 -1.1534
18912THY    CA368876   2.098   2.764   7.404 -0.0316 -0.3723  0.5053
18912THY    HA368877   2.053   2.821   7.323 -1.3342 -0.5748 -0.7628
18912THY    CA468878   2.117   2.628   7.391  0.1690 -0.1490 -0.2139
18912THY    HA468879   2.089   2.583   7.297  1.5121 -0.0840 -1.2550
18912THY    CA568880   2.157   2.550   7.502  0.5120  0.0729  0.4250
18912THY    CM168881   2.187   2.402   7.486 -0.2081 -0.0017 -0.3729
18912THY    HM168882   2.211   2.342   7.575  0.1749 -0.5295 -1.0163
18912THY    HM268883   2.268   2.384   7.415  1.5234  1.1481  2.2385
18912THY    HM368884   2.098   2.355   7.442 -0.4733 -0.4333  0.5161
18912THY    CA668885   2.181   2.611   7.625  0.8762 -0.2727  0.0047
18912THY    HA668886   2.213   2.547   7.707  0.9840 -0.9753 -0.8604
18913THY      O68887   5.552   2.553   2.648  0.1962  0.0860 -0.0936
18913THY     HO68888   5.633   2.543   2.701 -1.6166  2.8939 -0.7926
18913THY    CA168889   5.461   2.514   2.735 -0.1811  0.2606  0.1215
18913THY    CA268890   5.330   2.501   2.684  0.3001 -0.0684  0.1409
18913THY    CP168891   5.288   2.518   2.542 -0.1415 -0.0900 -0.7591
18913THY    HP168892   5.380   2.515   2.483 -0.2987 -0.3468 -0.5624
18913THY    CP268893   5.205   2.645   2.537 -0.1602  0.4572 -0.8856
18913THY    HP268894   5.175   2.686   2.440  0.4181  1.0350  1.0099
18913THY    HP368895   5.265   2.734   2.561 -1.2135 -3.4426  1.1185
18913THY    HP468896   5.109   2.652   2.590 -0.9015 -1.0184  1.1145
18913THY    CP368897   5.212   2.394   2.500  0.0766 -0.3589 -0.1822
18913THY    HP568898   5.256   2.298   2.528 -0.4125 -0.6071 -0.4761
18913THY    HP668899   5.209   2.384   2.391  0.5144 -0.2154 -2.3288
18913THY    HP768900   5.110   2.403   2.538 -0.5312 -2.2718  1.9376
18913THY    CA368901   5.232   2.476   2.784  0.2540  0.1611  0.5335
18913THY    HA368902   5.127   2.458   2.763  0.4586 -0.7242  0.3274
18913THY    CA468903   5.269   2.468   2.916  0.6868 -0.3774 -0.2119
18913THY    HA468904   5.194   2.462   2.994  0.1970 -0.1534  4.9113
18913THY    CA568905   5.400   2.487   2.959 -0.2559  0.3614  0.8582
18913THY    CM168906   5.432   2.484   3.108 -0.1984  0.4007  0.0753
18913THY    HM168907   5.349   2.436   3.161  1.1890  1.8266 -0.8401
18913THY    HM268908   5.444   2.583   3.154 -0.7864 -1.2790  0.9616
18913THY    HM368909   5.512   2.415   3.137 -0.4503  0.2347 -0.2923
18913THY    CA668910   5.493   2.509   2.867 -0.3577 -0.1124 -0.1233
18913THY    HA668911   5.592   2.536   2.902 -0.1254 -1.4678  0.8954
18914THY      O68912   8.397   8.665   7.658  0.1510 -0.0903  0.5178
18914THY     HO68913   8.425   8.705   7.742  1.5534 -0.7050  0.8733
18914THY    CA168914   8.414   8.757   7.570  0.1361 -0.1468 -0.7818
18914THY    CA268915   8.382   8.734   7.432  0.9056 -0.8798 -0.7100
18914THY    CP168916   8.342   8.605   7.371  0.5800  0.0076 -0.0943
18914THY    HP168917   8.350   8.534   7.453  0.0691  2.4901  2.5272
18914THY    CP268918   8.418   8.564   7.247 -0.6336  0.6083  0.3007
18914THY    HP268919   8.391   8.630   7.163  2.0274  1.2870  2.3969
18914THY    HP368920   8.402   8.456   7.236 -1.4376  0.9051  0.3786
18914THY    HP468921   8.527   8.571   7.248 -0.3870 -0.4441 -2.1127
18914THY    CP368922   8.197   8.588   7.335  0.2270 -0.3843  0.0346
18914THY    HP568923   8.179   8.485   7.302 -0.8683 -1.2126  0.4701
18914THY    HP668924   8.159   8.664   7.265 -2.7745  2.5173  1.4652
18914THY    HP768925   8.137   8.611   7.423  1.1801  0.8315 -1.9103
18914THY    CA368926   8.396   8.846   7.346 -0.1743  0.2914  0.2469
18914THY    HA368927   8.363   8.844   7.243  1.6910 -0.3223 -0.4507
18914THY    CA468928   8.430   8.975   7.395 -0.6386  0.5857  0.2155
18914THY    HA468929   8.444   9.061   7.331  1.4648  0.6588 -0.0222
18914THY    CA568930   8.466   8.992   7.529  0.0137  0.1802  0.7113
18914THY    CM168931   8.481   9.134   7.578 -0.2424  0.2598  0.1017
18914THY    HM168932   8.553   9.188   7.515 -0.9881 -0.1462  0.6544
18914THY    HM268933   8.530   9.150   7.675  1.0944 -0.3580 -0.1277
18914THY    HM368934   8.385   9.187   7.571  0.9232  1.8026  2.5912
18914THY    CA668935   8.454   8.887   7.615 -0.7288 -0.3059  0.0566
18914THY    HA668936   8.465   8.911   7.721  1.8051 -0.5676  0.3058
18915THY      O68937   2.241   9.080   2.255 -0.2879  0.1033  0.1051
18915THY     HO68938   2.275   9.171   2.257  2.3804  1.8941 -0.8243
18915THY    CA168939   2.112   9.089   2.291 -0.4749  0.9603  0.6120
18915THY    CA268940   2.038   8.979   2.327  0.5178 -0.6008  0.6121
18915THY    CP168941   2.106   8.841   2.324 -0.0469  0.0439 -0.5545
18915THY    HP168942   2.214   8.840   2.341  0.1493 -0.9957 -2.3608
18915THY    CP268943   2.086   8.771   2.190  0.3120  0.2143  0.5321
18915THY    HP268944   2.098   8.837   2.103 -1.0502 -0.6898 -0.3496
18915THY    HP368945   1.985   8.729   2.179  1.3941  2.3929 -3.1916
18915THY    HP468946   2.155   8.686   2.184 -1.3751 -1.7209 -0.8029
18915THY    CP368947   2.041   8.748   2.429  0.3061 -0.1761  0.8899
18915THY    HP568948   2.107   8.661   2.444  1.8175  0.9491  2.1497
18915THY    HP668949   1.942   8.708   2.407 -0.1241 -0.5696  2.1341
18915THY    HP768950   2.041   8.807   2.522 -0.3587  1.3510 -1.3786
18915THY    CA368951   1.904   8.991   2.362  0.6060 -0.1511 -1.0253
18915THY    HA368952   1.843   8.905   2.386 -1.4769  0.0519  0.4289
18915THY    CA468953   1.840   9.120   2.352  0.2386 -0.2799  0.1101
18915THY    HA468954   1.734   9.138   2.366  0.0034  0.6451 -1.6977
18915THY    CA568955   1.919   9.235   2.317  0.2718  0.0309  0.0768
18915THY    CM168956   1.857   9.374   2.297  0.5496 -0.2143  0.6977
18915THY    HM168957   1.867   9.438   2.385  1.3842 -0.9118  1.5784
18915THY    HM268958   1.752   9.368   2.266  0.2366  0.9671 -0.1475
18915THY    HM368959   1.903   9.430   2.213  3.1184 -0.2970 -1.3306
18915THY    CA668960   2.058   9.217   2.289 -0.0303 -0.7761  0.0317
18915THY    HA668961   2.119   9.297   2.249 -1.7872 -1.4762  1.0701
18916THY      O68962   2.533   0.927   5.987 -0.0284 -0.1239  0.1768
18916THY     HO68963   2.578   0.845   5.960  0.3656  2.3866 -0.5097
18916THY    CA168964   2.406   0.913   5.941  0.2712  0.5686  0.0905
18916THY    CA268965   2.312   1.014   5.945  1.2890 -0.2443 -0.8541
18916THY    CP168966   2.351   1.153   5.994  0.3586  0.3133 -0.0082
18916THY    HP168967   2.458   1.148   6.022 -0.0849  1.9555 -2.4656
18916THY    CP268968   2.268   1.197   6.115  0.3343 -0.0739  0.0492
18916THY    HP268969   2.299   1.137   6.202  0.3566 -0.7455 -0.9427
18916THY    HP368970   2.164   1.178   6.087 -0.0347  1.9506 -1.2189
18916THY    HP468971   2.284   1.304   6.130  0.0698 -3.6401  0.7307
18916THY    CP368972   2.353   1.251   5.872 -1.0088  0.6548 -0.8241
18916THY    HP568973   2.406   1.199   5.792  0.5044  2.3106 -1.9699
18916THY    HP668974   2.398   1.348   5.895 -0.0530  2.1796 -1.5839
18916THY    HP768975   2.251   1.269   5.835  0.1368 -2.6392 -0.4621
18916THY    CA368976   2.190   0.996   5.876  1.0069 -0.8955 -0.2304
18916THY    HA368977   2.125   1.081   5.857  0.4478 -0.5301 -0.5740
18916THY    CA468978   2.166   0.881   5.809  0.1598 -0.9261  0.0679
18916THY    HA468979   2.080   0.883   5.743  0.9269 -1.9934  2.4230
18916THY    CA568980   2.257   0.778   5.808  0.3527  0.1249  0.5064
18916THY    CM168981   2.241   0.637   5.732 -0.4980  0.0254 -0.4382
18916THY    HM168982   2.149   0.637   5.673 -1.3032  1.2330  0.7763
18916THY    HM268983   2.245   0.557   5.808  1.7920  0.1451 -0.2990
18916THY    HM368984   2.315   0.623   5.652 -1.0704 -0.5878 -0.0313
18916THY    CA668985   2.378   0.795   5.881  0.5592 -0.1865 -1.0237
18916THY    HA668986   2.454   0.718   5.871  0.9184 -1.9482 -0.4664
18917THY      O68987   6.770   7.689   7.157 -0.5752  0.2466 -0.6540
18917THY     HO68988   6.772   7.743   7.238  3.1538  0.3226 -0.6899
18917THY    CA168989   6.841   7.583   7.205  0.4066  0.0174 -0.3059
18917THY    CA268990   6.837   7.458   7.152 -0.5348  0.4885 -0.0573
18917THY    CP168991   6.739   7.418   7.038 -0.0007 -0.2298  0.1473
18917THY    HP168992   6.724   7.500   6.966 -1.0232 -0.0412  0.1407
18917THY    CP268993   6.603   7.387   7.086  0.1222 -0.1485  0.4354
18917THY    HP268994   6.593   7.288   7.132  1.5331 -2.8932 -1.1156
18917THY    HP368995   6.546   7.371   6.994 -1.0318  0.7895 -1.0461
18917THY    HP468996   6.564   7.456   7.162  1.2070  1.2646 -0.4379
18917THY    CP368997   6.794   7.302   6.954  0.0847 -0.1432 -0.1571
18917THY    HP568998   6.890   7.323   6.907  0.9777  2.3352  1.7858
18917THY    HP668999   6.716   7.285   6.878 -0.8098  0.7611 -0.2215
18917THY    HP769000   6.801   7.210   7.013 -1.0972 -2.1520 -1.6012
18917THY    CA369001   6.925   7.359   7.212 -0.2623  0.1918 -0.2463
18917THY    HA369002   6.919   7.254   7.184 -0.3183  0.7576 -0.3981
18917THY    CA469003   7.008   7.389   7.317  0.7129  0.3606 -0.2454
18917THY    HA469004   7.077   7.323   7.367  1.2360 -0.6375 -0.4707
18917THY    CA569005   7.005   7.518   7.372 -0.0951 -1.3766  0.2962
18917THY    CM169006   7.072   7.561   7.499 -0.2762 -0.0621 -0.1984
18917THY    HM169007   7.161   7.501   7.522  0.0244 -1.8489 -0.4848
18917THY    HM269008   7.007   7.546   7.587  1.0052  1.0700  0.6267
18917THY    HM369009   7.112   7.662   7.500  1.9172 -0.3166 -1.0108
18917THY    CA669010   6.921   7.609   7.311  0.3282 -0.2990 -0.3154
18917THY    HA669011   6.920   7.710   7.353  1.6995 -1.0962  0.0618
18918THY      O69012   3.399   8.468   2.229 -0.4940  0.1122  0.0899
18918THY     HO69013   3.365   8.398   2.287 -0.2292 -0.9447 -0.9603
18918THY    CA169014   3.396   8.419   2.101  0.2328 -0.4033 -0.4684
18918THY    CA269015   3.451   8.504   1.997  0.1357 -0.2630  0.5170
18918THY    CP169016   3.523   8.631   2.020  0.5490 -0.3519  0.0491
18918THY    HP169017   3.552   8.628   2.125 -1.6542  0.3719  1.2306
18918THY    CP269018   3.419   8.748   2.033  0.1982 -0.0214  0.5100
18918THY    HP269019   3.352   8.726   2.116  2.4944  1.2753 -2.2480
18918THY    HP369020   3.375   8.772   1.936  0.6560  0.2726  2.7849
18918THY    HP469021   3.473   8.836   2.070  3.0869  0.4450 -1.3088
18918THY    CP369022   3.645   8.675   1.938 -0.1559 -1.1375  0.0664
18918THY    HP569023   3.627   8.706   1.834  0.9546 -0.9673  1.3651
18918THY    HP669024   3.714   8.590   1.941  0.7064 -0.0147  0.7816
18918THY    HP769025   3.681   8.764   1.990 -1.1813 -0.5150  0.1373
18918THY    CA369026   3.437   8.445   1.868  0.0407  0.1977  0.4801
18918THY    HA369027   3.495   8.495   1.792  0.5283  2.1961  3.1787
18918THY    CA469028   3.377   8.320   1.845  0.0616  0.6333  0.4238
18918THY    HA469029   3.382   8.270   1.749 -4.1296  0.2054  0.4674
18918THY    CA569030   3.332   8.249   1.950  0.7439  0.5505  0.5439
18918THY    CM169031   3.268   8.115   1.924  0.0558 -0.2481 -0.8497
18918THY    HM169032   3.248   8.060   2.017  2.7534 -0.2602 -2.0231
18918THY    HM269033   3.346   8.054   1.877  0.2486  0.6463 -1.3192
18918THY    HM369034   3.179   8.135   1.864  0.7136 -0.5368  1.5841
18918THY    CA669035   3.340   8.295   2.080 -0.0120 -0.9427  0.5224
18918THY    HA669036   3.301   8.239   2.164 -0.4424 -0.4764  1.4967
18919THY      O69037   3.812   7.284   3.370 -0.6366 -0.1485 -0.2127
18919THY     HO69038   3.796   7.228   3.448  2.9640  0.0753 -1.1612
18919THY    CA169039   3.813   7.407   3.427 -0.0035 -0.2187  0.5720
18919THY    CA269040   3.852   7.526   3.355  0.2727  0.1333  0.0569
18919THY    CP169041   3.874   7.524   3.203 -0.1553  0.3511  0.6111
18919THY    HP169042   3.906   7.421   3.183 -2.0227 -1.0830  0.2546
18919THY    CP269043   3.986   7.623   3.152 -0.0941 -0.0378  0.2498
18919THY    HP269044   4.069   7.632   3.223  0.1579 -0.1590 -0.9400
18919THY    HP369045   3.949   7.725   3.132  2.0098 -0.8193  0.9044
18919THY    HP469046   4.036   7.595   3.059  0.6150  0.9451 -1.9583
18919THY    CP369047   3.749   7.537   3.116  0.9798  0.1044  0.5100
18919THY    HP569048   3.774   7.523   3.010 -0.1679 -0.1624  0.3624
18919THY    HP669049   3.700   7.635   3.123 -0.6551  0.9439 -0.3285
18919THY    HP769050   3.677   7.460   3.148  0.1171 -0.9348  0.8502
18919THY    CA369051   3.854   7.656   3.422 -0.2710 -0.2385 -0.1397
18919THY    HA369052   3.878   7.747   3.367  1.0553  0.3348 -0.1166
18919THY    CA469053   3.824   7.654   3.556  0.3512 -0.4437 -0.0870
18919THY    HA469054   3.820   7.743   3.618  1.4099  2.3173 -1.8519
18919THY    CA569055   3.773   7.536   3.620 -0.6281  0.4755 -0.2723
18919THY    CM169056   3.704   7.553   3.755  0.3961  0.3647  0.3414
18919THY    HM169057   3.719   7.466   3.820  0.5461 -0.5676 -0.3522
18919THY    HM269058   3.596   7.563   3.745  0.1641 -0.2154 -1.9777
18919THY    HM369059   3.733   7.645   3.807  0.1077  0.2486  0.4981
18919THY    CA669060   3.776   7.413   3.560 -0.1946 -0.1149  0.8735
18919THY    HA669061   3.744   7.321   3.609  0.1711 -1.5211 -0.0476
18920THY      O69062   7.394   5.086   4.627  0.0240  0.2814 -0.0398
18920THY     HO69063   7.412   5.159   4.690  0.2391 -1.4365  1.4592
18920THY    CA169064   7.462   5.131   4.517 -0.0678 -0.5102 -1.0115
18920THY    CA269065   7.432   5.096   4.385 -0.3225 -0.1674  0.0169
18920THY    CP169066   7.303   5.017   4.364  0.0667 -0.4557 -0.2340
18920THY    HP169067   7.231   5.046   4.441 -0.8974 -1.4151 -0.0177
18920THY    CP269068   7.343   4.870   4.384  0.0853  0.4559  0.6702
18920THY    HP269069   7.419   4.841   4.311 -0.4060  0.1714  0.0818
18920THY    HP369070   7.256   4.807   4.362  1.7122  0.7825 -1.8087
18920THY    HP469071   7.368   4.850   4.489 -1.3441  0.1638 -3.6797
18920THY    CP369072   7.238   5.027   4.220  0.5467 -0.5876 -0.8011
18920THY    HP569073   7.199   5.128   4.199  2.1980 -0.0603 -0.0079
18920THY    HP669074   7.151   4.961   4.213 -0.7756 -0.7487  0.8986
18920THY    HP769075   7.316   5.002   4.147  0.4570 -1.2166  0.6290
18920THY    CA369076   7.506   5.151   4.276  0.3846 -0.5629 -0.1331
18920THY    HA369077   7.474   5.131   4.174 -0.2229 -0.8304  2.0250
18920THY    CA469078   7.618   5.231   4.307 -0.3648 -0.5154 -0.2901
18920THY    HA469079   7.664   5.277   4.220 -0.3535 -0.7166 -0.6747
18920THY    CA569080   7.650   5.263   4.441  0.1069 -0.0770  0.3475
18920THY    CM169081   7.783   5.328   4.471  0.2600 -0.0770  0.7339
18920THY    HM169082   7.827   5.361   4.376  0.3445 -0.7305 -1.1542
18920THY    HM269083   7.849   5.254   4.517 -0.2545 -1.7690 -0.8609
18920THY    HM369084   7.758   5.411   4.539 -1.7639  1.9068 -1.3437
18920THY    CA669085   7.572   5.209   4.542  0.2409  0.2575  0.2216
18920THY    HA669086   7.601   5.226   4.645 -1.9110  0.8689  0.5440
18921THY      O69087   2.010   9.169   2.641 -0.3739 -0.2321  0.0478
18921THY     HO69088   1.930   9.132   2.599 -1.6577  3.2081 -1.5497
18921THY    CA169089   1.968   9.284   2.688 -0.8056  0.5581  0.7138
18921THY    CA269090   2.055   9.361   2.761  0.5039  0.0265 -0.7106
18921THY    CP169091   2.192   9.317   2.802 -0.0548  0.3764  0.4934
18921THY    HP169092   2.218   9.216   2.771 -0.0903 -0.4890  0.7412
18921THY    CP269093   2.209   9.328   2.957 -0.3456  0.6240  0.0167
18921THY    HP269094   2.151   9.248   3.004 -2.2125  0.4748  1.2174
18921THY    HP369095   2.183   9.423   3.004  0.2704  1.0758 -0.0313
18921THY    HP469096   2.316   9.313   2.978 -0.0892 -0.7851 -0.2739
18921THY    CP369097   2.292   9.409   2.746 -0.3398  0.1623 -0.5246
18921THY    HP569098   2.303   9.510   2.789 -0.3601 -3.4939  1.2173
18921THY    HP669099   2.290   9.425   2.637  1.1627  0.4207  2.0752
18921THY    HP769100   2.392   9.364   2.749  0.5109 -2.2347  0.9668
18921THY    CA369101   2.007   9.486   2.810 -0.1810 -0.5243 -0.0000
18921THY    HA369102   2.072   9.553   2.865 -0.6296 -0.7537  0.6351
18921THY    CA469103   1.877   9.515   2.788  0.1705 -1.3099  0.4336
18921THY    HA469104   1.830   9.601   2.834  0.1561  2.4320 -1.3574
18921THY    CA569105   1.800   9.441   2.704  0.3506  1.0304  0.3834
18921THY    CM169106   1.650   9.485   2.685 -0.6084  0.2033  0.2103
18921THY    HM169107   1.625   9.490   2.579  4.3181 -1.1705  0.9616
18921THY    HM269108   1.637   9.583   2.733  0.9014 -0.4077  0.7395
18921THY    HM369109   1.601   9.413   2.751 -1.8844  1.6521  2.2847
18921THY    CA669110   1.844   9.321   2.653 -0.2985  0.3745  0.5077
18921THY    HA669111   1.779   9.267   2.584 -1.0548 -0.6170  2.5506
18922THY      O69112   0.574   7.552   7.597 -0.5223  0.3166 -0.7702
18922THY     HO69113   0.536   7.539   7.686 -0.7840  0.4583  0.7730
18922THY    CA169114   0.476   7.624   7.521 -0.0962 -0.2085 -0.4218
18922THY    CA269115   0.488   7.630   7.381 -0.2825 -0.3561 -0.3061
18922THY    CP169116   0.613   7.578   7.308  0.4392  0.6481 -0.4807
18922THY    HP169117   0.648   7.484   7.352  0.6256  0.2780 -0.5828
18922THY    CP269118   0.718   7.691   7.288  1.1350 -0.7413  0.2996
18922THY    HP269119   0.766   7.725   7.380  0.6566 -0.7428  1.0143
18922THY    HP369120   0.676   7.780   7.239 -0.5834  1.8966  1.0700
18922THY    HP469121   0.803   7.638   7.245  1.8504  1.4153 -0.3940
18922THY    CP369122   0.567   7.534   7.164  0.2256  0.4833 -0.0535
18922THY    HP569123   0.646   7.479   7.110 -0.8758 -4.2052  2.4399
18922THY    HP669124   0.545   7.616   7.094  0.5788 -0.1044 -0.4500
18922THY    HP769125   0.479   7.471   7.179 -0.6418 -0.5494  0.8809
18922THY    CA369126   0.402   7.721   7.315  0.1339 -0.6884 -0.1334
18922THY    HA369127   0.413   7.740   7.209 -2.7055 -1.1403 -0.5578
18922THY    CA469128   0.300   7.779   7.384  0.1626 -0.3462  0.0023
18922THY    HA469129   0.239   7.853   7.333  0.4855  0.7785  1.0955
18922THY    CA569130   0.267   7.745   7.518  0.5339 -0.0369  0.4804
18922THY    CM169131   0.147   7.807   7.589 -0.0815 -0.4921 -0.0874
18922THY    HM169132   0.109   7.897   7.539 -1.0066 -0.5209 -0.4833
18922THY    HM269133   0.181   7.837   7.688  1.5124 -1.5407  1.7976
18922THY    HM369134   0.065   7.734   7.591 -2.4943  0.0756  2.5016
18922THY    CA669135   0.362   7.663   7.584 -0.4348 -0.1409 -0.1014
18922THY    HA669136   0.353   7.642   7.690  3.4838  0.4066  0.1646
18923THY      O69137   0.440   4.475   4.787  0.0823 -0.6868 -0.0674
18923THY     HO69138   0.475   4.385   4.799 -0.5459 -0.8287 -0.3331
18923THY    CA169139   0.407   4.477   4.655  0.3435  0.4068  0.5196
18923THY    CA269140   0.344   4.588   4.596 -0.6378 -0.0460 -0.4325
18923THY    CP169141   0.309   4.710   4.679 -0.0505  1.1733  0.7195
18923THY    HP169142   0.371   4.710   4.769  1.5232  0.1653 -0.8907
18923THY    CP269143   0.172   4.710   4.739  0.7639  0.2517 -0.5634
18923THY    HP269144   0.132   4.812   4.739 -0.6332  1.3584 -1.0664
18923THY    HP369145   0.162   4.671   4.841  1.3407  0.7988  0.7010
18923THY    HP469146   0.095   4.654   4.684 -0.1932  1.4989 -0.5349
18923THY    CP369147   0.328   4.842   4.601 -0.2674 -0.5697  0.3596
18923THY    HP569148   0.250   4.859   4.525 -0.6244 -0.3656 -0.3443
18923THY    HP669149   0.429   4.835   4.558 -0.0647  0.1620 -2.7046
18923THY    HP769150   0.324   4.929   4.667 -0.7880 -0.2657  0.1061
18923THY    CA369151   0.287   4.581   4.472  0.2889 -0.0480  0.1899
18923THY    HA369152   0.231   4.667   4.436 -0.0558  1.8748  0.8210
18923THY    CA469153   0.314   4.467   4.396 -0.6689 -0.2375  0.2787
18923THY    HA469154   0.266   4.453   4.300  0.6896 -0.7063 -1.4504
18923THY    CA569155   0.385   4.357   4.445  0.1953 -0.6701  0.2835
18923THY    CM169156   0.407   4.230   4.356  0.9134 -0.9431  0.0717
18923THY    HM169157   0.504   4.238   4.305  0.9859 -0.7297  0.5618
18923THY    HM269158   0.331   4.225   4.278 -0.9346  0.6048  1.9369
18923THY    HM369159   0.411   4.138   4.417 -0.8671 -0.5168  0.2402
18923THY    CA669160   0.436   4.360   4.581  0.2198 -0.1350  0.1022
18923THY    HA669161   0.496   4.280   4.624 -0.7464  1.9109  0.4422
18924THY      O69162   0.894   4.919   4.271 -0.1021 -0.1560 -0.0771
18924THY     HO69163   0.870   4.957   4.185  1.5538 -0.4681  0.3426
18924THY    CA169164   0.934   5.021   4.349  0.0417  0.0010 -0.1155
18924THY    CA269165   0.847   5.074   4.450  0.4706 -0.1927  0.3393
18924THY    CP169166   0.716   5.003   4.483 -0.4015 -0.2515 -0.4533
18924THY    HP169167   0.679   4.939   4.401 -0.4214 -0.4054 -0.2451
18924THY    CP269168   0.604   5.100   4.509 -0.7884  0.3932  0.4405
18924THY    HP269169   0.506   5.067   4.475 -0.9370  1.4878 -0.2909
18924THY    HP369170   0.616   5.191   4.449 -2.6620 -2.5392 -1.1185
18924THY    HP469171   0.590   5.130   4.614  0.4383  0.1326  2.0507
18924THY    CP369172   0.723   4.928   4.617  0.1604  0.5151  0.3614
18924THY    HP569173   0.777   4.991   4.689 -0.2519 -0.0254  1.3509
18924THY    HP669174   0.780   4.838   4.591  1.0734 -2.0072  1.5526
18924THY    HP769175   0.630   4.897   4.666  0.8547  1.9617  0.4684
18924THY    CA369176   0.906   5.176   4.532 -0.4071  0.2806 -0.2763
18924THY    HA369177   0.849   5.213   4.617  0.9677 -0.3778  3.7807
18924THY    CA469178   1.030   5.236   4.503  0.0934  0.0289  0.0093
18924THY    HA469179   1.067   5.317   4.564  1.2487 -0.6451  0.0059
18924THY    CA569180   1.100   5.190   4.390 -0.0065  0.6661 -0.8069
18924THY    CM169181   1.228   5.253   4.352  0.1528 -0.7800 -0.5051
18924THY    HM169182   1.249   5.337   4.419 -0.2257 -0.5204 -0.6095
18924THY    HM269183   1.225   5.284   4.247 -0.9386 -1.0414 -1.4397
18924THY    HM369184   1.313   5.187   4.372 -0.6212  0.1329 -1.2552
18924THY    CA669185   1.057   5.081   4.314  0.0965  0.4877 -0.6489
18924THY    HA669186   1.117   5.036   4.236  1.9320  2.8786 -2.6154
18925THY      O69187   4.919   4.717   5.055 -1.0385 -0.4553  0.7862
18925THY     HO69188   4.949   4.804   5.087 -2.8520  4.9749 -0.2387
18925THY    CA169189   4.994   4.627   5.127 -0.4512  0.5438 -0.1825
18925THY    CA269190   4.968   4.494   5.102  0.0386 -0.4389  0.2946
18925THY    CP169191   4.852   4.442   5.021  0.5991 -0.1100 -0.0596
18925THY    HP169192   4.771   4.517   5.026 -0.8728 -1.8190 -1.4446
18925THY    CP269193   4.786   4.314   5.068 -0.0195  0.1092 -0.6807
18925THY    HP269194   4.691   4.304   5.014 -0.1070  0.2694 -0.7223
18925THY    HP369195   4.769   4.321   5.176 -2.4052 -0.2990  0.9802
18925THY    HP469196   4.850   4.227   5.047 -1.5960  0.7732 -2.0803
18925THY    CP369197   4.892   4.449   4.871 -0.3038  0.0182 -0.7095
18925THY    HP569198   4.946   4.542   4.851  0.8155 -2.4513 -1.7951
18925THY    HP669199   4.807   4.438   4.803  1.4181 -2.8961  2.2043
18925THY    HP769200   4.966   4.376   4.834 -0.4435 -4.0163  0.9601
18925THY    CA369201   5.063   4.401   5.161 -0.1496  0.1658  0.3751
18925THY    HA369202   5.061   4.296   5.131 -0.6163  0.7000  0.2273
18925THY    CA469203   5.175   4.444   5.236 -0.1635 -0.8856  0.1625
18925THY    HA469204   5.242   4.365   5.269 -0.7330  0.0283  0.0431
18925THY    CA569205   5.187   4.582   5.268 -0.1249 -0.3162 -0.0571
18925THY    CM169206   5.307   4.621   5.353  0.3199 -0.0991  0.2519
18925THY    HM169207   5.378   4.537   5.356 -2.1276  2.6420 -1.9182
18925THY    HM269208   5.281   4.640   5.457  0.9849  0.5169 -1.9336
18925THY    HM369209   5.362   4.708   5.314  1.8905  1.1014 -0.1652
18925THY    CA669210   5.096   4.674   5.210  0.0090 -0.0746  0.0881
18925THY    HA669211   5.116   4.780   5.221  0.0933  0.4662  0.0191
18926THY      O69212   7.320   7.680   3.118 -0.1911 -0.4652  0.3215
18926THY     HO69213   7.353   7.669   3.209 -0.1246 -0.4678  0.5034
18926THY    CA169214   7.435   7.646   3.056 -0.1201  0.3758  0.0177
18926THY    CA269215   7.426   7.567   2.934 -0.2110 -0.0895 -0.4858
18926THY    CP169216   7.296   7.502   2.880  0.6447 -0.2337 -0.2346
18926THY    HP169217   7.208   7.526   2.941  1.2223  0.4631  0.1773
18926THY    CP269218   7.310   7.352   2.858  0.5118 -0.2417 -0.1846
18926THY    HP269219   7.390   7.327   2.787  2.8681  2.0446  0.4555
18926THY    HP369220   7.212   7.324   2.816  0.4367  0.2957 -0.7559
18926THY    HP469221   7.315   7.306   2.957 -0.3959 -0.1237 -0.0470
18926THY    CP369222   7.264   7.570   2.740 -0.4689  0.2640  0.2902
18926THY    HP569223   7.160   7.550   2.713 -0.6383  1.8780 -1.2926
18926THY    HP669224   7.338   7.521   2.674 -0.3480  0.9639 -0.4994
18926THY    HP769225   7.274   7.679   2.733  1.5668 -0.1140  0.1301
18926THY    CA369226   7.544   7.536   2.869  0.4398 -0.0834  0.2346
18926THY    HA369227   7.548   7.471   2.782 -0.3797  1.1344 -1.5137
18926THY    CA469228   7.662   7.585   2.919 -0.8836 -0.3008  0.1987
18926THY    HA469229   7.750   7.570   2.858 -0.3518  0.2302  1.0373
18926THY    CA569230   7.670   7.665   3.028 -0.5916 -0.4838 -0.3070
18926THY    CM169231   7.804   7.722   3.069 -0.3476 -0.3876  0.1036
18926THY    HM169232   7.788   7.816   3.123 -0.7091  1.2533 -0.8709
18926THY    HM269233   7.879   7.723   2.989  0.2590  0.0295 -2.7403
18926THY    HM369234   7.831   7.651   3.148  0.0684  0.7931  1.5420
18926THY    CA669235   7.550   7.705   3.104  0.1487  0.3703 -0.1382
18926THY    HA669236   7.549   7.779   3.183 -0.7307 -0.4325  0.7290
18927THY      O69237   3.109   0.526   5.767  0.2326 -0.2206  0.3996
18927THY     HO69238   3.118   0.544   5.672 -1.2530 -0.4769 -0.0273
18927THY    CA169239   3.234   0.510   5.818 -0.0362 -0.1320  0.0463
18927THY    CA269240   3.259   0.434   5.935  0.6061 -0.0181  0.1469
18927THY    CP169241   3.145   0.375   6.016  0.0938  0.5165  0.4105
18927THY    HP169242   3.049   0.396   5.966 -0.0546  0.3340 -0.6131
18927THY    CP269243   3.118   0.436   6.160 -0.4717 -0.3459 -0.2371
18927THY    HP269244   3.204   0.409   6.222  1.9325 -3.3896 -0.0766
18927THY    HP369245   3.034   0.387   6.211  0.5253 -0.5675 -2.2802
18927THY    HP469246   3.093   0.543   6.154  1.2905 -1.8415  0.1413
18927THY    CP369247   3.152   0.220   6.039  1.2612  0.0099  0.0230
18927THY    HP569248   3.174   0.168   5.945  0.6176 -0.1381  0.0121
18927THY    HP669249   3.054   0.183   6.070  0.9382  0.1890  1.0027
18927THY    HP769250   3.223   0.198   6.120 -0.4487  1.3375 -0.8081
18927THY    CA369251   3.397   0.419   5.975 -0.7092  0.1632 -0.3685
18927THY    HA369252   3.422   0.376   6.071 -0.4655  0.2837  0.0362
18927THY    CA469253   3.502   0.477   5.900 -0.3726 -0.0160 -0.4438
18927THY    HA469254   3.606   0.466   5.930 -0.3442  0.2245  0.4194
18927THY    CA569255   3.468   0.554   5.786 -0.5079 -0.3534  0.0091
18927THY    CM169256   3.577   0.613   5.708 -1.5435 -0.2416 -0.1439
18927THY    HM169257   3.638   0.678   5.771  1.3466 -0.4736 -2.4232
18927THY    HM269258   3.546   0.668   5.619 -0.2355 -0.8937 -0.4403
18927THY    HM369259   3.640   0.533   5.667  0.7852  0.0372  1.4565
18927THY    CA669260   3.337   0.559   5.733  0.0328 -0.6390 -0.2382
18927THY    HA669261   3.321   0.615   5.641  1.5944 -0.3440  0.7489
18928THY      O69262   5.435   3.377   4.801  0.1574  0.4008  0.3066
18928THY     HO69263   5.419   3.450   4.864  0.8165  1.3723 -0.3665
18928THY    CA169264   5.565   3.349   4.814  0.9902 -0.0480 -0.0489
18928THY    CA269265   5.630   3.265   4.720 -0.3945  0.5367  0.1304
18928THY    CP169266   5.545   3.218   4.597  0.0573 -0.4398 -0.1297
18928THY    HP169267   5.455   3.276   4.577  1.7317  0.5232  3.0447
18928THY    CP269268   5.494   3.081   4.626 -0.7418  0.2876 -0.4460
18928THY    HP269269   5.446   3.043   4.536  0.2156 -1.1171  1.5048
18928THY    HP369270   5.424   3.093   4.710  0.7713  1.6968 -1.0316
18928THY    HP469271   5.573   3.011   4.656 -0.6090 -0.9138 -0.8345
18928THY    CP369272   5.628   3.225   4.467 -0.6283 -0.0999  0.0528
18928THY    HP569273   5.563   3.211   4.379 -0.1055 -0.1496 -2.4451
18928THY    HP669274   5.699   3.142   4.459 -2.1037 -3.4837 -1.0771
18928THY    HP769275   5.685   3.318   4.453 -0.8856 -0.0265  0.2248
18928THY    CA369276   5.767   3.231   4.736  0.2773 -0.4565  0.1651
18928THY    HA369277   5.813   3.158   4.670  0.7071 -0.3599  0.3482
18928THY    CA469278   5.835   3.283   4.852  0.5563 -0.3008 -0.3190
18928THY    HA469279   5.937   3.258   4.878  0.7244 -1.4813 -0.9692
18928THY    CA569280   5.761   3.367   4.943 -1.1069  0.6525 -0.4947
18928THY    CM169281   5.835   3.410   5.066  0.1364  0.1230 -0.1668
18928THY    HM169282   5.835   3.519   5.074 -1.8017  0.7669 -0.1839
18928THY    HM269283   5.940   3.379   5.071 -0.2604  4.4012 -1.4848
18928THY    HM369284   5.788   3.384   5.161 -0.1530 -0.2582 -1.0964
18928THY    CA669285   5.626   3.400   4.924 -0.3836 -0.3990  0.3366
18928THY    HA669286   5.576   3.467   4.993  1.6963  0.7632  0.8041
18929THY      O69287   2.766   6.489   3.864 -0.0048  0.3781 -0.2069
18929THY     HO69288   2.804   6.491   3.954  3.0358 -0.7935  0.6068
18929THY    CA169289   2.636   6.540   3.871 -1.0310  0.4276 -0.1307
18929THY    CA269290   2.527   6.512   3.779 -0.5408  0.0257 -0.6637
18929THY    CP169291   2.554   6.427   3.651  0.4219 -0.5151  0.4211
18929THY    HP169292   2.661   6.411   3.630  1.0142  2.3021  0.2951
18929THY    CP269293   2.495   6.496   3.526  0.2999 -0.3464  0.2520
18929THY    HP269294   2.387   6.493   3.546  0.5187  0.9049 -2.1315
18929THY    HP369295   2.513   6.434   3.437 -2.2449 -1.0743  0.4564
18929THY    HP469296   2.529   6.600   3.529 -0.8862  0.2000  0.6419
18929THY    CP369297   2.509   6.281   3.673 -0.3159 -0.7183 -0.0320
18929THY    HP569298   2.494   6.231   3.577  1.3412 -0.2695 -1.4882
18929THY    HP669299   2.416   6.280   3.732  0.4015  0.4418 -0.0290
18929THY    HP769300   2.589   6.224   3.722 -0.2871 -2.4452 -1.5418
18929THY    CA369301   2.398   6.562   3.811  0.1171 -0.4295 -0.5996
18929THY    HA369302   2.316   6.544   3.743 -0.2754  0.2223 -1.3680
18929THY    CA469303   2.379   6.645   3.923  0.2913  0.7397  0.6399
18929THY    HA469304   2.281   6.684   3.949 -0.3109 -0.5599  0.0421
18929THY    CA569305   2.487   6.673   4.005 -0.1048  0.1022  0.6672
18929THY    CM169306   2.475   6.759   4.130  0.1034  0.2290 -0.8979
18929THY    HM169307   2.483   6.866   4.108  1.2201  1.8598 -0.6142
18929THY    HM269308   2.550   6.731   4.205  1.5078 -0.5248  0.7246
18929THY    HM369309   2.382   6.746   4.187 -0.0478 -0.0539 -1.0718
18929THY    CA669310   2.610   6.622   3.976 -1.2138  0.2052 -0.0979
18929THY    HA669311   2.694   6.649   4.040  1.4896 -1.7455 -3.0784
18930THY      O69312   6.633   3.005   4.770 -0.1988  0.3244 -0.4869
18930THY     HO69313   6.550   2.998   4.820 -1.3693 -1.5294 -0.4298
18930THY    CA169314   6.597   3.054   4.652  0.1813  0.1308 -0.2390
18930THY    CA269315   6.684   3.124   4.555 -0.0179 -1.3174  0.2146
18930THY    CP169316   6.820   3.165   4.606 -0.2183  0.0749 -0.0516
18930THY    HP169317   6.841   3.107   4.696  1.1324  1.3332  2.2224
18930THY    CP269318   6.813   3.312   4.654 -0.0724 -0.0234  0.7852
18930THY    HP269319   6.724   3.333   4.715 -0.6887 -0.8560  0.6389
18930THY    HP369320   6.808   3.376   4.565  1.6727 -1.1989 -0.6214
18930THY    HP469321   6.898   3.342   4.717  0.6302 -1.5162  2.0886
18930THY    CP369322   6.935   3.138   4.504 -0.0528 -0.0359 -0.2729
18930THY    HP569323   6.918   3.198   4.413  1.2361 -0.6495 -0.8113
18930THY    HP669324   6.943   3.034   4.474 -0.4603  1.3307 -0.7227
18930THY    HP769325   7.030   3.170   4.548  0.2513  0.3390 -1.6702
18930THY    CA369326   6.631   3.169   4.437 -0.0998 -0.4367 -0.2558
18930THY    HA369327   6.679   3.238   4.369 -0.6076  1.4342  2.0832
18930THY    CA469328   6.504   3.127   4.402 -0.1764 -0.3154  0.1081
18930THY    HA469329   6.464   3.158   4.305  1.9468 -1.1068  0.5787
18930THY    CA569330   6.426   3.048   4.487 -0.0282 -0.3795 -0.4865
18930THY    CM169331   6.284   3.011   4.453 -0.2829 -0.3232 -0.4576
18930THY    HM169332   6.270   2.902   4.448  1.1374 -1.2508 -0.6212
18930THY    HM269333   6.259   3.053   4.355 -0.9669  0.7923  1.9407
18930THY    HM369334   6.208   3.041   4.528  1.0178  0.5502  0.7857
18930THY    CA669335   6.472   3.017   4.616 -0.1773 -0.5859 -0.0647
18930THY    HA669336   6.407   2.960   4.682 -1.1961 -1.3341  0.1948
18931THY      O69337   4.296   0.932   2.457  0.1772  0.0952 -0.3102
18931THY     HO69338   4.250   1.015   2.435 -0.3624 -0.1247 -0.6661
18931THY    CA169339   4.430   0.951   2.450 -0.2059 -0.1464 -0.5398
18931THY    CA269340   4.518   0.848   2.482 -0.0638 -0.2109  0.6474
18931THY    CP169341   4.468   0.715   2.540 -0.8987  0.0746 -0.4957
18931THY    HP169342   4.369   0.693   2.498 -0.6778  0.3482 -2.1644
18931THY    CP269343   4.443   0.724   2.691  0.2872 -0.0922 -0.0727
18931THY    HP269344   4.446   0.621   2.730  1.8252  2.8106  0.9800
18931THY    HP369345   4.347   0.767   2.724 -0.8557 -0.8291 -1.9082
18931THY    HP469346   4.519   0.784   2.740 -1.2055  1.2415  0.8110
18931THY    CP369347   4.566   0.600   2.510  0.2894 -0.3397 -0.4779
18931THY    HP569348   4.660   0.617   2.565 -0.0740 -0.2536  1.4790
18931THY    HP669349   4.594   0.587   2.404  0.9378 -0.4285  1.3965
18931THY    HP769350   4.530   0.508   2.557 -1.7464  2.0633  1.3969
18931THY    CA369351   4.657   0.885   2.470  0.1250  0.5169  0.3347
18931THY    HA369352   4.729   0.810   2.501  0.4609  1.1229  0.8946
18931THY    CA469353   4.696   1.014   2.421 -0.3225 -0.0010 -0.2972
18931THY    HA469354   4.802   1.035   2.413 -0.5535  0.6604  1.3386
18931THY    CA569355   4.603   1.120   2.399  0.7088  0.6737 -1.0525
18931THY    CM169356   4.650   1.266   2.374  0.2822 -0.0169  0.0879
18931THY    HM169357   4.556   1.322   2.364 -0.2709 -1.9005 -1.0823
18931THY    HM269358   4.698   1.262   2.275 -0.2925 -0.2971 -3.4905
18931THY    HM369359   4.724   1.308   2.444  1.8818 -0.0752 -2.3933
18931THY    CA669360   4.464   1.086   2.409  0.1637 -0.0866 -0.5171
18931THY    HA669361   4.391   1.166   2.402  0.0590 -1.3691 -0.7061
18932THY      O69362   2.763   7.701   7.565  0.3073  0.0403 -0.1091
18932THY     HO69363   2.844   7.649   7.550  0.2841  1.1380 -0.4949
18932THY    CA169364   2.802   7.829   7.561  0.5915  0.6034 -1.5932
18932THY    CA269365   2.717   7.923   7.499  0.0784 -0.3299  0.3241
18932THY    CP169366   2.591   7.872   7.426 -0.3707 -0.3440 -0.1637
18932THY    HP169367   2.612   7.778   7.373 -2.5506 -1.6151 -0.0004
18932THY    CP269368   2.548   7.960   7.304 -0.2409 -0.4241 -0.3038
18932THY    HP269369   2.524   8.062   7.335  2.1272 -1.6174  0.6718
18932THY    HP369370   2.464   7.915   7.249  0.9796 -2.3062 -0.3802
18932THY    HP469371   2.625   7.962   7.227  0.9582  0.7528 -0.0983
18932THY    CP369372   2.470   7.851   7.522  0.8778  0.2352  0.2103
18932THY    HP569373   2.447   7.934   7.589  0.8365  1.2257 -0.5839
18932THY    HP669374   2.475   7.763   7.587  0.1237 -2.1792 -1.7530
18932THY    HP769375   2.382   7.830   7.460  0.8062  0.2528  0.4571
18932THY    CA369376   2.754   8.063   7.506 -0.0752 -0.0078  0.3488
18932THY    HA369377   2.688   8.141   7.469 -0.7401  0.6395  0.1020
18932THY    CA469378   2.876   8.099   7.563  0.2976 -0.2168 -0.1893
18932THY    HA469379   2.912   8.201   7.559 -1.3041 -1.4441  0.3675
18932THY    CA569380   2.962   8.004   7.619  0.1630  0.4227 -0.3433
18932THY    CM169381   3.106   8.046   7.667  0.0015 -0.3674 -0.0141
18932THY    HM169382   3.170   7.958   7.659 -1.9913 -3.4825 -1.3302
18932THY    HM269383   3.100   8.082   7.771 -0.0150  0.8873 -3.3412
18932THY    HM369384   3.160   8.122   7.609  1.6182  0.5735 -0.3841
18932THY    CA669385   2.924   7.866   7.618  0.5116  0.0230 -0.2690
18932THY    HA669386   2.987   7.788   7.659 -0.3166 -1.6186 -1.8902
18933THY      O69387   1.580   5.365   5.393  0.1945 -0.6059  0.1464
18933THY     HO69388   1.571   5.358   5.489  2.0129 -0.5187 -2.1688
18933THY    CA169389   1.636   5.485   5.383 -0.3471  0.1540  0.4397
18933THY    CA269390   1.606   5.574   5.277  0.3840  0.2581  0.6451
18933THY    CP169391   1.504   5.529   5.169 -0.0066 -0.4907  0.1671
18933THY    HP169392   1.461   5.430   5.186  0.1453  0.3351  0.2377
18933THY    CP269393   1.580   5.511   5.037 -0.6224  0.3242 -0.3119
18933THY    HP269394   1.509   5.463   4.969 -0.8411  0.1309  0.2807
18933THY    HP369395   1.674   5.458   5.056 -0.0140  2.0497  1.2565
18933THY    HP469396   1.619   5.609   5.006  0.4798 -0.1393 -0.8799
18933THY    CP369397   1.385   5.627   5.164 -0.3311 -0.0250  0.1492
18933THY    HP569398   1.409   5.734   5.155 -1.9066 -0.0243  0.5309
18933THY    HP669399   1.330   5.624   5.259 -0.0123  0.1655  0.3452
18933THY    HP769400   1.309   5.597   5.091 -2.9039  1.6377  2.1818
18933THY    CA369401   1.661   5.703   5.281  0.0509  0.5824  0.5055
18933THY    HA369402   1.635   5.768   5.198 -0.0430 -0.0740 -0.3589
18933THY    CA469403   1.751   5.730   5.381 -0.2501  0.5527 -0.1207
18933THY    HA469404   1.793   5.830   5.390  1.1202  0.6084 -0.6890
18933THY    CA569405   1.767   5.646   5.489 -0.5594  0.5840  0.4255
18933THY    CM169406   1.834   5.710   5.599  0.4526  0.6803 -0.1317
18933THY    HM169407   1.820   5.819   5.603  2.1171 -3.3553  0.4189
18933THY    HM269408   1.941   5.699   5.578  0.3945 -0.3823  1.0572
18933THY    HM369409   1.814   5.655   5.691 -2.1863 -0.0049 -0.4602
18933THY    CA669410   1.711   5.518   5.494  0.0517  0.7048  0.4037
18933THY    HA669411   1.726   5.470   5.591  1.7461 -0.5221 -1.7038
18934THY      O69412   6.668   8.174   7.337  0.2253 -0.2038 -0.1153
18934THY     HO69413   6.759   8.207   7.340  0.3551  0.1262 -0.4859
18934THY    CA169414   6.658   8.052   7.396  0.1226 -0.4060 -1.2475
18934THY    CA269415   6.557   7.964   7.367  0.5999 -0.2989  0.0337
18934THY    CP169416   6.444   8.012   7.275 -0.1433 -0.6754  0.1042
18934THY    HP169417   6.423   8.118   7.289 -1.3478  0.3203 -0.2460
18934THY    CP269418   6.314   7.941   7.313 -0.0014  0.5357 -0.0073
18934THY    HP269419   6.308   7.923   7.421  2.3313  0.4744 -1.5901
18934THY    HP369420   6.292   7.847   7.261 -4.2740 -0.7936  1.4849
18934THY    HP469421   6.230   8.003   7.279  0.0408 -0.1623 -0.3273
18934THY    CP369422   6.479   7.985   7.133  0.1779 -0.9129  0.1071
18934THY    HP569423   6.561   8.049   7.097 -0.7991  1.8379  3.1486
18934THY    HP669424   6.398   8.013   7.066  2.7830 -3.4043  2.3452
18934THY    HP769425   6.511   7.881   7.117 -0.1485 -1.3323  0.0722
18934THY    CA369426   6.568   7.836   7.419  0.0617 -0.9594 -0.3935
18934THY    HA369427   6.501   7.756   7.389 -0.5910  0.3511 -0.3703
18934THY    CA469428   6.677   7.812   7.509 -0.2259  0.6260  0.3783
18934THY    HA469429   6.683   7.714   7.557 -1.8327 -1.9205 -1.0750
18934THY    CA569430   6.764   7.914   7.550 -0.1948  0.2672  0.2425
18934THY    CM169431   6.868   7.885   7.652 -0.3211  0.0557  0.3486
18934THY    HM169432   6.847   7.928   7.751 -0.8096  0.3526 -0.5451
18934THY    HM269433   6.964   7.934   7.632 -0.1100 -0.6710 -0.3363
18934THY    HM369434   6.894   7.781   7.671  1.2604 -1.7138  0.3839
18934THY    CA669435   6.759   8.037   7.496 -0.1730  1.0143 -0.0902
18934THY    HA669436   6.837   8.111   7.511  0.8712 -2.2460 -0.4042
18935THY      O69437   8.322   7.742   4.598  0.0438 -0.3869 -0.5474
18935THY     HO69438   8.316   7.779   4.508 -3.8576  0.0225  0.3122
18935THY    CA169439   8.244   7.627   4.584  0.0338 -0.1792 -0.0422
18935THY    CA269440   8.183   7.568   4.698 -0.0514 -0.1375  0.0178
18935THY    CP169441   8.196   7.635   4.829  0.5548  0.5796 -0.0700
18935THY    HP169442   8.231   7.737   4.809  0.3050  1.0952  0.1191
18935THY    CP269443   8.282   7.557   4.924 -0.3881  0.0523 -0.0332
18935THY    HP269444   8.259   7.576   5.029 -0.3967  0.0477 -0.0199
18935THY    HP369445   8.387   7.584   4.904  0.1541  1.5043 -0.9669
18935THY    HP469446   8.267   7.450   4.909 -0.2630  3.1059 -0.5693
18935THY    CP369447   8.062   7.656   4.905 -0.1616 -0.4226 -1.0523
18935THY    HP569448   8.074   7.737   4.979  0.4678 -1.0445 -0.5655
18935THY    HP669449   8.036   7.561   4.954 -2.6530  1.0724  0.2896
18935THY    HP769450   7.970   7.681   4.851  0.3783 -1.4829 -1.3376
18935THY    CA369451   8.125   7.447   4.688  0.1387  0.4286  1.3573
18935THY    HA369452   8.066   7.391   4.760  1.1674  0.7652  0.6654
18935THY    CA469453   8.120   7.389   4.555  0.7772  0.1882 -0.4269
18935THY    HA469454   8.071   7.294   4.535  0.9111 -0.6719 -0.3295
18935THY    CA569455   8.174   7.451   4.444  0.1853  0.5805  0.8969
18935THY    CM169456   8.175   7.385   4.306 -0.3889 -0.1705  0.6487
18935THY    HM169457   8.238   7.443   4.237  0.7511  0.3019  0.0176
18935THY    HM269458   8.075   7.366   4.267  0.1805 -1.1278 -0.5431
18935THY    HM369459   8.236   7.293   4.310 -0.4964 -0.3492  0.5688
18935THY    CA669460   8.232   7.570   4.459  0.2016 -0.2509 -0.9352
18935THY    HA669461   8.277   7.622   4.375  0.5539  1.4258  1.6413
18936THY      O69462   1.356   2.254   2.433  0.3807  0.8506  0.2866
18936THY     HO69463   1.353   2.340   2.479 -1.1702  2.5726 -0.6197
18936THY    CA169464   1.412   2.176   2.533 -0.5967  0.0969  0.5446
18936THY    CA269465   1.500   2.069   2.500 -0.1397 -0.3262 -0.0421
18936THY    CP169466   1.522   2.032   2.348  0.0756  0.1021  0.3052
18936THY    HP169467   1.449   2.091   2.291 -1.6825  3.0448  1.1605
18936THY    CP269468   1.492   1.884   2.310 -0.4360 -0.5901  0.4823
18936THY    HP269469   1.517   1.809   2.386  0.6037  1.0460  2.3865
18936THY    HP369470   1.548   1.863   2.218  1.4452  0.6418 -0.1873
18936THY    HP469471   1.388   1.860   2.285 -0.6538  0.2842  0.4830
18936THY    CP369472   1.669   2.063   2.301  0.1521  0.3220 -0.5900
18936THY    HP569473   1.672   2.172   2.309  2.5569  1.7475 -0.7001
18936THY    HP669474   1.696   2.045   2.196  0.6616  0.1565  1.0373
18936THY    HP769475   1.745   2.023   2.369  0.8854 -0.1027  0.0653
18936THY    CA369476   1.558   1.996   2.605  0.6197  0.2050  0.6133
18936THY    HA369477   1.619   1.906   2.592  0.3442  0.7805  0.3375
18936THY    CA469478   1.521   2.030   2.738 -0.5672 -0.3929 -0.0250
18936THY    HA469479   1.576   1.978   2.816  1.3247 -1.2317  0.6766
18936THY    CA569480   1.432   2.136   2.768 -0.6641  0.5873 -0.2693
18936THY    CM169481   1.393   2.150   2.911  0.3128 -0.2759  0.1244
18936THY    HM169482   1.400   2.055   2.964 -1.3955 -0.8747 -0.3829
18936THY    HM269483   1.292   2.194   2.911  0.6563 -1.1142  0.9465
18936THY    HM369484   1.458   2.220   2.965 -1.3310  1.9280  0.0400
18936THY    CA669485   1.375   2.211   2.666 -0.0975  0.2928 -0.1042
18936THY    HA669486   1.300   2.286   2.694  0.0743  1.8208 -0.4636
18937THY      O69487   1.410   5.080   2.607 -0.2502 -0.4752  0.2658
18937THY     HO69488   1.500   5.090   2.641  0.4941 -2.2680 -0.0811
18937THY    CA169489   1.402   4.951   2.583 -0.1190 -0.3876 -0.5874
18937THY    CA269490   1.280   4.890   2.552  0.4348  0.7892  0.4987
18937THY    CP169491   1.149   4.977   2.540 -0.0123 -0.0928 -0.5795
18937THY    HP169492   1.176   5.083   2.548 -1.2580 -1.5876 -0.1003
18937THY    CP269493   1.070   4.951   2.670 -0.2999 -0.1808 -0.7273
18937THY    HP269494   1.015   4.856   2.663 -1.3322 -0.0080 -0.1587
18937THY    HP369495   0.993   5.028   2.680 -0.4912  1.7386 -1.1207
18937THY    HP469496   1.127   4.952   2.763 -0.7664  0.1508 -2.2396
18937THY    CP369497   1.073   4.960   2.405 -0.4060  0.5284 -0.6931
18937THY    HP569498   1.149   4.940   2.328 -0.1904 -0.1201  2.1493
18937THY    HP669499   1.009   5.044   2.377  1.0436 -2.0882 -0.3594
18937THY    HP769500   1.011   4.870   2.416 -1.0596  2.9496 -0.0310
18937THY    CA369501   1.279   4.752   2.525  0.0773 -0.1899 -0.2255
18937THY    HA369502   1.179   4.717   2.499  0.2920 -2.2896  0.5855
18937THY    CA469503   1.394   4.680   2.527  0.7891  0.0454 -0.1029
18937THY    HA469504   1.397   4.576   2.498 -0.0084  0.7767 -0.3463
18937THY    CA569505   1.515   4.745   2.558 -0.2628  0.2205 -0.6615
18937THY    CM169506   1.644   4.658   2.548  0.4337 -0.6225 -0.0804
18937THY    HM169507   1.688   4.650   2.648  0.5029 -0.5449  1.1089
18937THY    HM269508   1.711   4.701   2.473 -1.7656 -1.3180  2.3745
18937THY    HM369509   1.627   4.552   2.528 -0.1103  1.9516 -0.5645
18937THY    CA669510   1.519   4.877   2.596 -0.7035  0.3286 -0.4542
18937THY    HA669511   1.610   4.922   2.636 -1.3587  1.2595  0.0701
18938THY      O69512   6.023   4.180   5.741 -0.0382  0.3378  0.2312
18938THY     HO69513   6.050   4.123   5.815 -1.5718  1.3987  0.8149
18938THY    CA169514   5.919   4.251   5.794 -0.5501  0.3428  0.1254
18938THY    CA269515   5.902   4.388   5.761  0.4751  0.0327 -0.2582
18938THY    CP169516   5.987   4.456   5.656 -0.3507 -0.3981 -0.3007
18938THY    HP169517   6.060   4.386   5.613 -0.7395  1.3410 -1.8510
18938THY    CP269518   6.071   4.571   5.719  0.0779 -0.4484 -0.5814
18938THY    HP269519   6.135   4.532   5.799  0.1949 -0.3537 -0.2077
18938THY    HP369520   6.017   4.656   5.762 -0.1078  0.3028 -1.0711
18938THY    HP469521   6.137   4.611   5.641  2.0896  0.9429 -1.0063
18938THY    CP369522   5.896   4.514   5.550  0.2697 -0.5881 -0.2083
18938THY    HP569523   5.820   4.441   5.518  0.8022  2.2379 -2.1263
18938THY    HP669524   5.961   4.546   5.467 -0.0947 -1.4913 -1.7095
18938THY    HP769525   5.833   4.590   5.599 -1.9316  1.2273 -3.0189
18938THY    CA369526   5.800   4.459   5.836 -0.0547 -0.3049  0.3110
18938THY    HA369527   5.804   4.567   5.832 -0.7579  1.1982  0.4211
18938THY    CA469528   5.721   4.395   5.934 -0.4077 -0.4892 -0.1224
18938THY    HA469529   5.644   4.449   5.988 -0.8125 -0.1389 -1.0270
18938THY    CA569530   5.730   4.258   5.945  0.4000 -0.5464  0.0701
18938THY    CM169531   5.624   4.185   6.029  0.1255 -0.5508 -0.0893
18938THY    HM169532   5.520   4.209   6.003 -0.5848  2.3876  0.3838
18938THY    HM269533   5.623   4.224   6.131 -0.9210 -0.4779 -0.2771
18938THY    HM369534   5.625   4.076   6.019  0.4855 -3.1423  0.0670
18938THY    CA669535   5.834   4.184   5.885  0.6268  0.1623 -0.1212
18938THY    HA669536   5.844   4.077   5.902  1.5400 -2.8504 -0.6057
18939THY      O69537   6.904   7.918   3.177  0.0037 -0.2004 -0.3743
18939THY     HO69538   6.977   7.947   3.120  2.1202  0.1148 -4.3854
18939THY    CA169539   6.855   8.030   3.242 -0.3250  0.4654 -0.1586
18939THY    CA269540   6.717   8.038   3.277 -1.1423 -0.3716  0.8669
18939THY    CP169541   6.633   7.905   3.269  0.1878 -0.6065  0.3894
18939THY    HP169542   6.536   7.919   3.319  1.2115  1.4498  0.5375
18939THY    CP269543   6.685   7.792   3.361 -0.5987  0.3759 -0.0275
18939THY    HP269544   6.734   7.832   3.451 -1.4664  0.8564 -0.0241
18939THY    HP369545   6.749   7.720   3.310  0.5612 -2.6507  2.9357
18939THY    HP469546   6.603   7.723   3.383 -1.5032  0.3647  1.0169
18939THY    CP369547   6.607   7.850   3.127 -0.0494  0.7243  0.4287
18939THY    HP569548   6.553   7.756   3.143  2.1832  2.0186 -0.7099
18939THY    HP669549   6.699   7.841   3.067 -0.6240  0.0154 -0.9580
18939THY    HP769550   6.551   7.922   3.066  0.5173  0.2215  0.4612
18939THY    CA369551   6.667   8.167   3.323  0.5605  0.8729 -0.2320
18939THY    HA369552   6.564   8.173   3.357 -0.4674 -1.0592 -3.7834
18939THY    CA469553   6.752   8.276   3.333  0.2714  0.0444 -0.6792
18939THY    HA469554   6.707   8.368   3.370  1.9091  0.3336  0.0433
18939THY    CA569555   6.889   8.266   3.290 -0.2794 -0.1409  0.2173
18939THY    CM169556   6.988   8.378   3.313  0.0742  1.0115 -1.1584
18939THY    HM169557   7.083   8.332   3.342 -0.7407  2.5556 -1.9356
18939THY    HM269558   6.963   8.445   3.397  1.2059 -0.6106  1.4594
18939THY    HM369559   6.999   8.444   3.226  1.8612  0.9475 -1.4952
18939THY    CA669560   6.941   8.142   3.242  0.5879 -0.2362  0.3488
18939THY    HA669561   7.046   8.136   3.217  0.6635  0.1727 -0.0144
18940THY      O69562   4.634   1.158   6.309  0.2048 -0.0684  0.1693
18940THY     HO69563   4.639   1.099   6.232 -0.3373 -0.7996  1.0394
18940THY    CA169564   4.511   1.217   6.305  0.4638 -0.2467  0.4118
18940THY    CA269565   4.470   1.329   6.382  0.1463  0.1601  0.5133
18940THY    CP169566   4.569   1.380   6.491  0.7469  0.2687 -0.3580
18940THY    HP169567   4.671   1.346   6.472  0.5218 -1.9008  0.0757
18940THY    CP269568   4.521   1.330   6.630 -0.0340  0.3942 -0.6525
18940THY    HP269569   4.536   1.222   6.629 -2.3652  3.0920 -1.1009
18940THY    HP369570   4.414   1.348   6.645 -0.4196 -2.7728  0.4541
18940THY    HP469571   4.587   1.380   6.702 -2.5232  1.0236  2.0081
18940THY    CP369572   4.570   1.537   6.494  0.4347 -0.5914 -0.1796
18940THY    HP569573   4.471   1.576   6.519  0.4761  2.3586 -1.6618
18940THY    HP669574   4.606   1.592   6.406  0.7214  0.2560  1.0255
18940THY    HP769575   4.636   1.561   6.578  2.6306 -2.3988  0.5077
18940THY    CA369576   4.339   1.382   6.356 -0.0176 -0.0410  0.3238
18940THY    HA369577   4.320   1.465   6.424 -1.0877 -1.8337  1.6046
18940THY    CA469578   4.256   1.330   6.257  0.2384 -0.2836 -0.1033
18940THY    HA469579   4.160   1.376   6.234 -0.1385  1.0730 -0.1786
18940THY    CA569580   4.299   1.217   6.188 -0.3039  0.4222  0.3302
18940THY    CM169581   4.219   1.165   6.077  0.4845 -0.2609  0.2536
18940THY    HM169582   4.247   1.195   5.975 -1.9723 -1.2692 -0.6388
18940THY    HM269583   4.115   1.200   6.086  0.0115 -0.4830 -1.0392
18940THY    HM369584   4.220   1.055   6.081  1.0426  0.3497  0.2784
18940THY    CA669585   4.421   1.161   6.207  0.4307 -0.0473 -0.0973
18940THY    HA669586   4.462   1.079   6.148  0.6704  0.8994 -0.6739
18941THY      O69587   8.224   4.210   6.819 -0.0047 -0.9030  0.7384
18941THY     HO69588   8.187   4.295   6.790  1.1140  0.4782  1.7398
18941THY    CA169589   8.359   4.224   6.833  0.1880 -0.6100  0.5511
18941THY    CA269590   8.438   4.132   6.904  0.3409 -0.2382 -0.1946
18941THY    CP169591   8.384   4.037   7.007 -0.1033  0.0452 -0.1453
18941THY    HP169592   8.275   4.041   6.995 -0.1312  0.6470  1.2599
18941THY    CP269593   8.413   4.084   7.143 -0.2782 -0.0282  0.2885
18941THY    HP269594   8.367   4.179   7.172  0.2623  0.2076  0.4850
18941THY    HP369595   8.518   4.111   7.161  0.6615  0.1591 -3.0720
18941THY    HP469596   8.403   4.006   7.219  0.0176 -2.5863 -2.4211
18941THY    CP369597   8.430   3.889   6.978 -0.7420  0.6160  0.5894
18941THY    HP569598   8.416   3.857   6.874 -0.5923  0.6935  0.2756
18941THY    HP669599   8.359   3.816   7.019  0.7674 -0.1144 -1.3870
18941THY    HP769600   8.533   3.875   7.012 -0.3569 -0.7143  0.0721
18941THY    CA369601   8.579   4.144   6.905  0.0908 -0.3777  0.0187
18941THY    HA369602   8.639   4.082   6.970 -0.1199 -2.1657 -2.1839
18941THY    CA469603   8.640   4.250   6.836  0.3074 -0.1615  0.3280
18941THY    HA469604   8.747   4.262   6.829  0.2575 -1.6149  0.1178
18941THY    CA569605   8.559   4.340   6.763  1.4567  0.0418  0.1229
18941THY    CM169606   8.622   4.440   6.672 -0.4669 -0.0212  0.0864
18941THY    HM169607   8.553   4.523   6.691  0.7016  0.9141  0.8844
18941THY    HM269608   8.599   4.406   6.571  0.5347  0.8628 -3.5967
18941THY    HM369609   8.731   4.452   6.676 -0.5507 -0.9081  1.3695
18941THY    CA669610   8.417   4.323   6.765  0.1052 -0.0245 -0.2107
18941THY    HA669611   8.358   4.396   6.710  1.9925  0.3420  1.6813
18942THY      O69612   3.913   8.504   7.491 -0.1784  0.0842  0.0300
18942THY     HO69613   3.830   8.505   7.440  0.7490 -1.5687 -1.6112
18942THY    CA169614   3.961   8.378   7.472  0.1513  1.0421 -0.5287
18942THY    CA269615   4.038   8.310   7.565  0.0716  0.9424 -0.3813
18942THY    CP169616   4.046   8.381   7.703  0.3665  0.5464 -0.4161
18942THY    HP169617   4.048   8.490   7.694  1.1974 -1.2777 -0.5620
18942THY    CP269618   4.164   8.343   7.791 -0.9294  0.2268 -0.4072
18942THY    HP269619   4.251   8.341   7.725 -0.5794  0.6932 -0.8494
18942THY    HP369620   4.145   8.238   7.819 -1.1473  0.3437 -0.3387
18942THY    HP469621   4.169   8.416   7.873  0.3883 -1.0603  1.0171
18942THY    CP369622   3.929   8.351   7.795  0.7998  0.1644  0.0045
18942THY    HP569623   3.946   8.246   7.822  1.6496 -3.2721 -0.8867
18942THY    HP669624   3.838   8.358   7.733 -0.2278  1.7482  1.3311
18942THY    HP769625   3.927   8.427   7.873  0.3905  0.4886 -0.3323
18942THY    CA369626   4.098   8.185   7.535  0.9914  0.3197  0.2554
18942THY    HA369627   4.157   8.140   7.615  1.3869 -0.1357 -0.0392
18942THY    CA469628   4.079   8.134   7.406  0.2667  0.2781 -0.0632
18942THY    HA469629   4.134   8.049   7.367  0.8369 -1.7487  1.1690
18942THY    CA569630   3.985   8.190   7.319  0.3739 -0.3100 -1.0620
18942THY    CM169631   3.937   8.123   7.184  0.2445 -0.4633 -0.0375
18942THY    HM169632   3.829   8.112   7.198 -0.1086 -1.9695  1.1775
18942THY    HM269633   3.977   8.021   7.177 -1.4429  3.0427 -1.0996
18942THY    HM369634   3.960   8.178   7.092 -4.2851 -0.1765  2.8060
18942THY    CA669635   3.930   8.309   7.357 -0.7765 -0.4741  0.2167
18942THY    HA669636   3.857   8.347   7.286 -1.3869  0.4044  0.7325
18943THY      O69637   1.598   4.197   2.407 -0.4701 -0.2194  0.7030
18943THY     HO69638   1.564   4.135   2.473 -1.7757 -0.9017  0.6691
18943THY    CA169639   1.716   4.133   2.357  0.3560  0.1251 -0.6965
18943THY    CA269640   1.773   4.160   2.232 -0.3378 -0.1311  0.0633
18943THY    CP169641   1.704   4.259   2.133 -0.1388 -0.2380 -0.4896
18943THY    HP169642   1.599   4.272   2.158  0.2105  2.4940 -2.1357
18943THY    CP269643   1.719   4.232   1.987  0.1768  0.5537 -0.4574
18943THY    HP269644   1.670   4.312   1.930 -1.4249  0.9213 -1.1288
18943THY    HP369645   1.681   4.132   1.960  3.3148  1.1124 -1.9434
18943THY    HP469646   1.821   4.228   1.947  0.3261  0.8270  0.4230
18943THY    CP369647   1.756   4.399   2.176 -0.5356  0.2715  0.4469
18943THY    HP569648   1.749   4.407   2.285  0.8869  0.3643  0.7857
18943THY    HP669649   1.687   4.474   2.136 -1.4721 -0.6844 -0.8785
18943THY    HP769650   1.861   4.419   2.150 -0.4966  0.9207  1.1122
18943THY    CA369651   1.896   4.097   2.196  0.2287  0.4034  0.3545
18943THY    HA369652   1.942   4.098   2.098 -0.0310  0.2770  0.0779
18943THY    CA469653   1.950   4.001   2.288  0.0003 -0.2342 -0.0736
18943THY    HA469654   2.042   3.948   2.266 -1.1421 -2.0998 -1.3832
18943THY    CA569655   1.891   3.973   2.412 -0.6936  0.3676  0.5552
18943THY    CM169656   1.957   3.884   2.515 -0.3581 -0.2354  0.2296
18943THY    HM169657   2.057   3.850   2.484 -0.9800  0.6955 -2.7086
18943THY    HM269658   1.894   3.799   2.545 -2.5362 -1.5299  1.3091
18943THY    HM369659   1.969   3.942   2.607 -1.4569  1.1576 -1.6215
18943THY    CA669660   1.772   4.039   2.450  0.7965  0.4891  0.4829
18943THY    HA669661   1.729   4.025   2.548 -3.1212 -0.6430  2.8943
18944THY      O69662   7.982   4.532   2.567  0.2789  0.5727  0.9571
18944THY     HO69663   7.922   4.579   2.627  1.1062  0.2481  2.4831
18944THY    CA169664   7.917   4.529   2.449  0.7216 -0.0280 -0.6700
18944THY    CA269665   7.941   4.423   2.355 -0.9608 -0.3198 -0.2813
18944THY    CP169666   8.019   4.299   2.407  0.0247 -0.7175 -0.0521
18944THY    HP169667   8.041   4.302   2.514  1.5942 -0.9968 -0.7820
18944THY    CP269668   8.156   4.280   2.337 -0.0741 -0.6331 -0.1652
18944THY    HP269669   8.202   4.379   2.338  0.7129 -0.4184 -0.5265
18944THY    HP369670   8.126   4.260   2.233  2.0648 -0.9950 -1.8708
18944THY    HP469671   8.214   4.200   2.385  0.6645  3.5934  2.6011
18944THY    CP369672   7.934   4.167   2.388 -0.7275 -0.0725 -0.5068
18944THY    HP569673   7.959   4.145   2.283  4.2577  0.7702 -0.1418
18944THY    HP669674   7.827   4.165   2.413 -0.7291  0.1960  1.3416
18944THY    HP769675   7.985   4.086   2.441  1.7940 -0.0706  0.9877
18944THY    CA369676   7.899   4.441   2.221 -1.0259  0.1357  0.1258
18944THY    HA369677   7.913   4.363   2.147  1.5247 -0.1797  0.7716
18944THY    CA469678   7.827   4.556   2.189 -0.5529  0.4778 -0.0501
18944THY    HA469679   7.792   4.570   2.087 -1.9814  0.9909  0.2859
18944THY    CA569680   7.799   4.658   2.277 -1.1230 -0.3973  0.9509
18944THY    CM169681   7.725   4.782   2.230 -0.7082  0.1191  0.1093
18944THY    HM169682   7.796   4.864   2.218  1.6671  3.6181 -1.1998
18944THY    HM269683   7.671   4.812   2.321 -1.7137 -0.3094 -0.3197
18944THY    HM369684   7.651   4.764   2.151 -0.8829  0.3721 -0.3140
18944THY    CA669685   7.855   4.646   2.405  0.5428  0.5901  0.1598
18944THY    HA669686   7.841   4.728   2.475  1.0941 -0.5834  1.2995
18945THY      O69687   5.811   3.351   6.182  0.3603 -0.0293  0.4496
18945THY     HO69688   5.716   3.344   6.161  0.8666 -3.2511  1.7688
18945THY    CA169689   5.850   3.452   6.108 -0.0982 -0.8706 -0.5802
18945THY    CA269690   5.952   3.435   6.016  0.0341  0.6338 -0.6324
18945THY    CP169691   6.014   3.297   5.983 -0.2690  0.4467  0.1280
18945THY    HP169692   6.019   3.242   6.078  0.3213 -0.9943 -2.4555
18945THY    CP269693   6.154   3.292   5.919 -0.5554  0.0923  0.9080
18945THY    HP269694   6.148   3.304   5.810 -0.2712 -0.1512 -0.8837
18945THY    HP369695   6.202   3.196   5.941 -0.3589 -0.9980  0.7495
18945THY    HP469696   6.216   3.371   5.963  0.9352  0.6768 -0.5289
18945THY    CP369697   5.926   3.232   5.881 -0.0098 -0.9102  0.3145
18945THY    HP569698   5.826   3.205   5.916  0.6577  0.2196 -0.7302
18945THY    HP669699   5.967   3.141   5.837  1.4740 -1.6694  1.3078
18945THY    HP769700   5.924   3.303   5.797  2.5697 -0.8173  0.5838
18945THY    CA369701   5.993   3.550   5.941 -0.3716 -0.6302  0.0469
18945THY    HA369702   6.074   3.546   5.869  0.1118 -0.0344 -1.3648
18945THY    CA469703   5.934   3.670   5.967 -0.1886 -0.1051  0.2746
18945THY    HA469704   5.968   3.753   5.906 -0.6329 -1.4287 -0.4668
18945THY    CA569705   5.821   3.677   6.052  0.0424 -0.0396 -0.5973
18945THY    CM169706   5.738   3.805   6.051  0.6644 -0.1534  0.5071
18945THY    HM169707   5.788   3.897   6.084 -0.3417  1.0673  0.6409
18945THY    HM269708   5.644   3.800   6.108  0.8973  0.3724  1.6367
18945THY    HM369709   5.703   3.824   5.949 -3.0639  0.9933  0.5698
18945THY    CA669710   5.774   3.569   6.121  0.2912  0.4851  0.2291
18945THY    HA669711   5.687   3.569   6.187 -0.5437 -0.5670 -1.0936
18946THY      O69712   6.743   2.561   3.777 -0.3464 -0.0739 -0.0696
18946THY     HO69713   6.779   2.623   3.844 -0.0436 -0.5599  0.2922
18946THY    CA169714   6.636   2.614   3.719 -0.2558 -0.2456 -0.0219
18946THY    CA269715   6.579   2.555   3.607  0.1617 -0.1002  0.4313
18946THY    CP169716   6.640   2.427   3.540  0.0293  0.2406  0.6201
18946THY    HP169717   6.702   2.375   3.615  1.1309 -0.8119  0.3715
18946THY    CP269718   6.709   2.447   3.406 -0.2305 -0.2178  0.0234
18946THY    HP269719   6.752   2.351   3.377  1.9858  0.4147  0.7489
18946THY    HP369720   6.790   2.520   3.422  0.4328 -0.3711 -0.6636
18946THY    HP469721   6.643   2.486   3.328  0.9769  0.1697  3.2044
18946THY    CP369722   6.523   2.330   3.505 -0.1182  0.8323 -0.5927
18946THY    HP569723   6.559   2.226   3.508  0.4176  0.1288 -0.4382
18946THY    HP669724   6.472   2.343   3.409  0.9555  0.4565  1.1089
18946THY    HP769725   6.446   2.328   3.583 -2.1137 -1.0390 -2.6825
18946THY    CA369726   6.463   2.619   3.551 -0.4209 -0.3931  0.1805
18946THY    HA369727   6.416   2.571   3.466 -0.1005 -0.4605 -0.0101
18946THY    CA469728   6.409   2.741   3.607  0.4112 -0.1114  0.3736
18946THY    HA469729   6.317   2.783   3.568  1.2653 -1.0993  1.4270
18946THY    CA569730   6.475   2.796   3.720 -0.4672  0.4511  0.1050
18946THY    CM169731   6.424   2.915   3.784  1.0241  0.1644 -0.2286
18946THY    HM169732   6.491   3.000   3.765 -0.1676 -0.5483  0.5647
18946THY    HM269733   6.411   2.895   3.891 -0.9709 -0.0133 -0.0637
18946THY    HM369734   6.324   2.937   3.747  1.2550 -0.2296  0.1687
18946THY    CA669735   6.587   2.736   3.772  0.3763  0.5858 -0.3918
18946THY    HA669736   6.635   2.780   3.859 -0.7060  0.9622  0.0837
18947THY      O69737   1.564   8.259   7.137 -0.0888 -0.9312 -0.3934
18947THY     HO69738   1.519   8.222   7.059 -1.9869  0.8842 -2.1502
18947THY    CA169739   1.538   8.386   7.147  0.7487  0.2369 -0.3069
18947THY    CA269740   1.643   8.473   7.175  0.4363  0.2943 -0.3547
18947THY    CP169741   1.797   8.430   7.181  0.5854 -0.0666 -0.9746
18947THY    HP169742   1.812   8.323   7.162  0.6454  0.3509 -1.0418
18947THY    CP269743   1.850   8.463   7.320 -0.4925  0.7994 -0.1109
18947THY    HP269744   1.776   8.457   7.401  1.4355  2.6300 -0.3743
18947THY    HP369745   1.886   8.567   7.318  0.6780  0.5248 -0.5153
18947THY    HP469746   1.941   8.405   7.337 -1.5969  1.1945 -1.8127
18947THY    CP369747   1.869   8.506   7.073 -0.2541 -0.2256 -0.6352
18947THY    HP569748   1.852   8.614   7.070  0.2768 -1.4898 -0.5614
18947THY    HP669749   1.832   8.461   6.980  2.5425 -1.3872 -0.7289
18947THY    HP769750   1.976   8.480   7.073  0.1368 -1.5257  0.8284
18947THY    CA369751   1.601   8.605   7.198  0.1943 -0.0332 -0.2628
18947THY    HA369752   1.678   8.673   7.232  0.0839  0.8318 -0.5521
18947THY    CA469753   1.472   8.647   7.168  0.0502  0.0914  0.3191
18947THY    HA469754   1.443   8.751   7.181  0.0346 -1.2176  0.4878
18947THY    CA569755   1.376   8.560   7.122 -0.7368 -0.0999  1.1719
18947THY    CM169756   1.237   8.603   7.098 -0.0979  0.5535 -0.8693
18947THY    HM169757   1.174   8.611   7.188  0.0251  0.7014 -1.5314
18947THY    HM269758   1.179   8.536   7.033 -2.4661  0.5406  1.0363
18947THY    HM369759   1.248   8.696   7.042  0.0955 -0.2267 -1.3579
18947THY    CA669760   1.410   8.424   7.124 -0.5661  1.3609 -0.5511
18947THY    HA669761   1.333   8.355   7.091 -1.8521  2.9032  0.0712
18948THY      O69762   9.265   2.925   2.534 -0.3292  0.2461  0.1600
18948THY     HO69763   9.206   2.849   2.543 -1.0519 -0.5153  0.6146
18948THY    CA169764   9.204   3.016   2.616 -0.1345 -0.1165  0.5556
18948THY    CA269765   9.270   3.127   2.660 -0.9683  0.2665 -0.2967
18948THY    CP169766   9.405   3.162   2.603 -0.2202  0.4407 -0.3073
18948THY    HP169767   9.443   3.082   2.538  1.9124  1.9817 -0.6490
18948THY    CP269768   9.512   3.174   2.715  0.2317  0.0175  0.1843
18948THY    HP269769   9.531   3.081   2.769  0.4917 -1.6279 -0.7698
18948THY    HP369770   9.500   3.261   2.781 -1.8742  2.2069 -1.6439
18948THY    HP469771   9.600   3.188   2.652  0.3082  0.3722  1.4949
18948THY    CP369772   9.408   3.284   2.516 -0.2801 -1.2123 -0.8313
18948THY    HP569773   9.337   3.285   2.433  0.0321 -1.5574  2.3589
18948THY    HP669774   9.508   3.293   2.471  0.4718  0.1149 -2.0180
18948THY    HP769775   9.394   3.374   2.577 -0.8352 -3.2837  0.5760
18948THY    CA369776   9.207   3.212   2.758 -0.1502 -0.6359 -0.1475
18948THY    HA369777   9.247   3.306   2.793  1.5644  1.6303 -1.6170
18948THY    CA469778   9.077   3.175   2.793 -0.2235 -0.4202 -0.7290
18948THY    HA469779   9.025   3.248   2.854 -0.0105 -1.7980  0.6246
18948THY    CA569780   9.020   3.062   2.750  0.1367 -0.2519  0.3730
18948THY    CM169781   8.877   3.035   2.792 -0.2725 -0.0362 -0.2425
18948THY    HM169782   8.822   2.968   2.725 -1.4618 -0.2356  0.8736
18948THY    HM269783   8.816   3.126   2.802  1.7325  1.1640  1.0354
18948THY    HM369784   8.863   2.989   2.890  0.2516  0.5966  0.9119
18948THY    CA669785   9.088   2.970   2.671 -0.0503  0.1340  0.0942
18948THY    HA669786   9.048   2.872   2.648  2.4299  1.7653 -1.4319
18949THY      O69787   0.320   6.591   5.650 -0.2270  0.0321 -0.2694
18949THY     HO69788   0.330   6.507   5.699 -0.3646 -1.7520 -1.3715
18949THY    CA169789   0.317   6.703   5.733 -0.0417 -0.6944  0.0848
18949THY    CA269790   0.305   6.837   5.696  0.3031  0.1070  0.2105
18949THY    CP169791   0.291   6.879   5.548  0.2182 -0.1460 -0.2296
18949THY    HP169792   0.301   6.795   5.479 -0.7520 -0.4802 -0.0829
18949THY    CP269793   0.406   6.975   5.500  1.0213  0.7343  0.1690
18949THY    HP269794   0.390   7.011   5.398  0.9328  0.9016  0.6147
18949THY    HP369795   0.502   6.925   5.517  1.6758  2.8216  1.9484
18949THY    HP469796   0.412   7.059   5.570  1.1345  1.6110 -0.5508
18949THY    CP369797   0.153   6.942   5.528 -0.3186  0.1248  0.3577
18949THY    HP569798   0.152   7.049   5.552  0.4738  1.1848  0.1362
18949THY    HP669799   0.081   6.891   5.591  0.7079  0.8662 -0.2019
18949THY    HP769800   0.127   6.922   5.423  0.1409  0.0183  0.3017
18949THY    CA369801   0.337   6.932   5.794  0.2326  0.1062  0.0275
18949THY    HA369802   0.336   7.039   5.775 -1.2017 -0.8335 -0.1202
18949THY    CA469803   0.362   6.896   5.926 -0.7172 -0.4650 -0.3111
18949THY    HA469804   0.374   6.967   6.007  1.2672  1.0513 -2.2123
18949THY    CA569805   0.348   6.758   5.965 -0.5844  0.2899 -1.0516
18949THY    CM169806   0.343   6.728   6.109 -0.2853 -0.2987 -0.5009
18949THY    HM169807   0.368   6.624   6.134 -0.3152 -0.2875 -0.5055
18949THY    HM269808   0.250   6.754   6.162  0.1013  0.2110 -0.1304
18949THY    HM369809   0.422   6.780   6.166 -1.3833 -0.7745  1.8383
18949THY    CA669810   0.333   6.659   5.869  0.6694  0.5923  0.1927
18949THY    HA669811   0.339   6.553   5.894  0.0305  0.4732  0.1262
18950THY      O69812   3.649   8.563   7.352  0.0801  0.2148  0.3365
18950THY     HO69813   3.644   8.643   7.297  1.5525 -1.7210 -0.8140
18950THY    CA169814   3.625   8.456   7.273 -0.4539 -1.0882  0.2471
18950THY    CA269815   3.553   8.347   7.322  0.0004 -0.6179 -0.9978
18950THY    CP169816   3.494   8.345   7.462 -0.3351 -0.1814 -0.3223
18950THY    HP169817   3.502   8.440   7.515  1.0547 -1.6196  0.4107
18950THY    CP269818   3.580   8.257   7.553 -0.3585 -0.3300 -0.8632
18950THY    HP269819   3.553   8.282   7.656  1.3694 -0.3885  1.5936
18950THY    HP369820   3.679   8.303   7.556 -0.7281 -0.4085 -0.0490
18950THY    HP469821   3.574   8.149   7.531 -0.7764  2.5502 -1.5045
18950THY    CP369822   3.342   8.306   7.459 -0.7599  0.0205 -0.2136
18950THY    HP569823   3.294   8.382   7.396  1.0231 -1.1993 -0.0181
18950THY    HP669824   3.306   8.317   7.561 -0.8459 -0.1635  1.4602
18950THY    HP769825   3.317   8.205   7.425 -0.3015  1.3580 -0.7956
18950THY    CA369826   3.522   8.249   7.232  0.0146 -0.6474 -0.1038
18950THY    HA369827   3.453   8.171   7.264  0.5652 -0.2167 -0.4270
18950THY    CA469828   3.569   8.245   7.105  0.3883 -0.4814  0.1305
18950THY    HA469829   3.530   8.172   7.035 -0.7860 -0.6903  0.9271
18950THY    CA569830   3.653   8.348   7.060 -0.6150  0.2011 -0.3980
18950THY    CM169831   3.707   8.338   6.916  0.1243 -1.2906 -0.3371
18950THY    HM169832   3.769   8.418   6.875  2.0809 -1.4511 -1.8607
18950THY    HM269833   3.616   8.332   6.857 -0.8187 -0.0362  0.8660
18950THY    HM369834   3.763   8.244   6.915 -0.7634  4.2557 -1.2862
18950THY    CA669835   3.687   8.457   7.146  0.7688  0.0276 -0.2822
18950THY    HA669836   3.738   8.546   7.110  0.3769 -0.0683 -0.0943
18951THY      O69837   6.962   8.289   7.366 -0.8009  0.0802  0.4200
18951THY     HO69838   6.966   8.376   7.409  1.9059 -0.6134  0.7515
18951THY    CA169839   7.073   8.291   7.284 -0.5505 -0.7780 -0.1889
18951THY    CA269840   7.129   8.170   7.239 -0.2590  0.5087  0.3438
18951THY    CP169841   7.070   8.032   7.280 -0.3222 -0.6671 -0.2744
18951THY    HP169842   7.019   8.049   7.376  0.7088 -0.5849  3.2636
18951THY    CP269843   7.179   7.934   7.301  0.0502  0.1262 -0.2430
18951THY    HP269844   7.220   7.903   7.204 -1.3255  0.0714 -2.0374
18951THY    HP369845   7.126   7.852   7.350 -0.3948  1.0020  0.5562
18951THY    HP469846   7.260   7.985   7.354 -0.4965 -0.3969  1.2228
18951THY    CP369847   6.967   7.980   7.185 -0.1378 -0.3066  0.2906
18951THY    HP569848   6.920   7.887   7.222 -0.8464  1.3261  1.2479
18951THY    HP669849   7.016   7.960   7.089 -1.0764 -0.9663  1.0697
18951THY    HP769850   6.888   8.055   7.181 -0.4844  1.5656  0.0853
18951THY    CA369851   7.241   8.178   7.159  0.7630 -0.7638  0.7211
18951THY    HA369852   7.301   8.091   7.134  1.6697 -2.2349  1.7115
18951THY    CA469853   7.302   8.297   7.133  0.0252  0.4372  0.3313
18951THY    HA469854   7.394   8.296   7.075  0.3785  0.9727  0.9612
18951THY    CA569855   7.246   8.414   7.176  0.0298  0.3212  0.1815
18951THY    CM169856   7.318   8.544   7.148  0.6545 -0.0030  0.4890
18951THY    HM169857   7.348   8.558   7.043 -0.6411 -0.5157 -0.4168
18951THY    HM269858   7.409   8.544   7.210 -0.0557  1.0663 -0.5591
18951THY    HM369859   7.256   8.630   7.173 -0.7203  1.4765 -0.8698
18951THY    CA669860   7.123   8.417   7.246  0.3662 -0.4001 -0.2077
18951THY    HA669861   7.084   8.511   7.283  5.4308 -0.9153  2.4246
18952THY      O69862   4.989   2.606   3.890  0.0538  0.1276  0.4974
18952THY     HO69863   4.927   2.538   3.921 -3.2687  0.0961  3.2332
18952THY    CA169864   5.109   2.560   3.915  0.1713 -0.1335  0.2412
18952THY    CA269865   5.214   2.643   3.942  0.5341 -0.2940 -0.0207
18952THY    CP169866   5.186   2.788   3.936 -0.3436 -0.1303  0.2495
18952THY    HP169867   5.121   2.821   3.854 -1.9165  1.4545  1.2769
18952THY    CP269868   5.312   2.869   3.896  0.2204  0.5320  0.3954
18952THY    HP269869   5.290   2.975   3.879 -1.9777  1.6057  0.1805
18952THY    HP369870   5.353   2.839   3.800  1.0253  1.6762 -2.5074
18952THY    HP469871   5.391   2.867   3.971  3.3800 -2.5426  1.1949
18952THY    CP369872   5.136   2.842   4.070  0.6419 -0.3799  0.0057
18952THY    HP569873   5.043   2.792   4.100  0.0217 -1.2128  0.6261
18952THY    HP669874   5.123   2.951   4.071  1.7630 -0.8273  0.1641
18952THY    HP769875   5.215   2.825   4.144 -0.7021  1.0000 -0.3419
18952THY    CA369876   5.338   2.593   3.973  0.1898 -0.1271  0.0651
18952THY    HA369877   5.418   2.655   4.011 -1.4848 -0.0373  2.2602
18952THY    CA469878   5.353   2.453   3.980 -0.0559 -0.6769  0.2289
18952THY    HA469879   5.442   2.415   4.030 -0.4513 -0.5657 -0.5713
18952THY    CA569880   5.241   2.370   3.950  0.5488 -0.2372 -0.4981
18952THY    CM169881   5.256   2.219   3.962 -0.2516  0.0744 -0.2265
18952THY    HM169882   5.183   2.181   4.035  1.5035  1.6776 -0.6923
18952THY    HM269883   5.355   2.190   3.998 -0.3570  1.4701  1.0020
18952THY    HM369884   5.246   2.184   3.859  1.4178 -0.5165  0.9110
18952THY    CA669885   5.125   2.420   3.908 -0.8406  0.0284 -0.1441
18952THY    HA669886   5.043   2.353   3.883 -0.0589  0.7446 -1.4049
18953THY      O69887   6.396   1.710   4.697  0.1800  0.7882  0.2579
18953THY     HO69888   6.468   1.773   4.683  0.9248  1.4526 -0.4238
18953THY    CA169889   6.462   1.598   4.729 -0.3015 -0.4399  0.3943
18953THY    CA269890   6.411   1.473   4.698  0.8542  0.8375  0.5209
18953THY    CP169891   6.259   1.455   4.643 -0.1735 -0.5889 -0.0160
18953THY    HP169892   6.204   1.548   4.623 -0.4363 -0.9441 -0.2464
18953THY    CP269893   6.165   1.376   4.732 -0.5715 -0.6093 -0.6186
18953THY    HP269894   6.149   1.429   4.827  0.4965 -0.8498  0.1700
18953THY    HP369895   6.203   1.275   4.755 -0.0866 -0.6608 -0.4492
18953THY    HP469896   6.070   1.373   4.678 -1.0280  0.1276  0.3815
18953THY    CP369897   6.252   1.395   4.503  0.4866 -0.1695  0.0290
18953THY    HP569898   6.289   1.292   4.497  1.8298 -3.1421  0.5629
18953THY    HP669899   6.301   1.470   4.439 -1.4478  0.8132  2.2763
18953THY    HP769900   6.145   1.400   4.476  0.3562  0.5167  1.4166
18953THY    CA369901   6.481   1.358   4.730  0.0031 -0.2215  0.0830
18953THY    HA369902   6.442   1.258   4.714  1.4032  2.1700 -0.9179
18953THY    CA469903   6.600   1.367   4.800  0.4428  0.0712  0.0313
18953THY    HA469904   6.660   1.280   4.824  1.3616 -0.0557  0.6089
18953THY    CA569905   6.653   1.498   4.823  0.1040 -0.1075  0.3567
18953THY    CM169906   6.794   1.520   4.875 -0.2733 -0.5191 -0.2023
18953THY    HM169907   6.869   1.444   4.850  1.5783 -2.1582  1.9994
18953THY    HM269908   6.788   1.527   4.985 -0.1533 -0.5880  1.2947
18953THY    HM369909   6.840   1.615   4.844  0.4949  1.0207 -0.0348
18953THY    CA669910   6.587   1.615   4.781 -0.3016 -0.5477 -0.1185
18953THY    HA669911   6.628   1.712   4.807  0.6389 -0.0387 -0.6411
18954THY      O69912   8.206   6.210   5.860  0.0839  0.4122 -0.2138
18954THY     HO69913   8.249   6.241   5.942 -2.8411  1.1693  2.3740
18954THY    CA169914   8.244   6.302   5.765 -0.0472 -0.4735 -1.0673
18954THY    CA269915   8.272   6.277   5.631 -1.0739 -0.4135  0.0997
18954THY    CP169916   8.256   6.134   5.579  0.0912  0.9103  0.0537
18954THY    HP169917   8.221   6.069   5.660  1.8932  0.3245 -1.7481
18954THY    CP269918   8.387   6.064   5.540 -0.0551 -0.6393  0.0527
18954THY    HP269919   8.364   5.965   5.497 -0.8453 -0.8682  0.3341
18954THY    HP369920   8.435   6.045   5.637 -2.3786  0.2257 -2.0076
18954THY    HP469921   8.445   6.134   5.479  0.4447  2.8362  2.9508
18954THY    CP369922   8.140   6.128   5.475 -0.9756  0.3685 -0.2109
18954THY    HP569923   8.121   6.023   5.452  0.9847  0.3683 -0.5986
18954THY    HP669924   8.163   6.168   5.375 -3.6738 -0.7288 -1.1640
18954THY    HP769925   8.058   6.192   5.509 -1.2782 -1.2058  0.2878
18954THY    CA369926   8.310   6.385   5.543 -0.1559 -0.0882 -0.3586
18954THY    HA369927   8.315   6.366   5.436  1.0549 -0.0690 -0.2296
18954THY    CA469928   8.317   6.512   5.592 -0.2699  0.8441  0.3687
18954THY    HA469929   8.342   6.591   5.522 -1.2610 -0.0473 -0.0746
18954THY    CA569930   8.301   6.538   5.723  0.5541 -0.7794  0.0396
18954THY    CM169931   8.314   6.682   5.773 -0.0809  0.1988 -0.3824
18954THY    HM169932   8.213   6.706   5.809 -0.2695  0.3509 -1.3550
18954THY    HM269933   8.338   6.751   5.692 -1.2348  1.3083  1.4110
18954THY    HM369934   8.384   6.696   5.856 -1.9914  1.6561  1.0495
18954THY    CA669935   8.258   6.438   5.809 -0.5641 -0.1360  0.1678
18954THY    HA669936   8.237   6.457   5.914 -2.6194  0.0469 -2.4637
18955THY      O69937   8.294   6.580   2.746  0.2376  0.3170 -0.3703
18955THY     HO69938   8.240   6.541   2.675 -0.6479  1.8883 -2.1936
18955THY    CA169939   8.310   6.714   2.737 -0.3533 -0.5402  0.1501
18955THY    CA269940   8.379   6.796   2.829  0.3923 -0.4480  0.1692
18955THY    CP169941   8.452   6.720   2.939  0.3021 -0.4852 -0.5346
18955THY    HP169942   8.383   6.638   2.963 -2.0058 -1.5365  0.9879
18955THY    CP269943   8.472   6.808   3.068  0.6411  0.0722 -0.1362
18955THY    HP269944   8.379   6.863   3.089 -0.9540 -0.0051 -2.6488
18955THY    HP369945   8.554   6.880   3.065  0.8796 -0.2789 -0.4199
18955THY    HP469946   8.497   6.754   3.161 -0.0947  1.3334  1.6012
18955THY    CP369947   8.588   6.670   2.895  0.2253  0.3408 -0.6360
18955THY    HP569948   8.613   6.587   2.962  4.2272 -0.2240 -0.1120
18955THY    HP669949   8.653   6.757   2.902  0.1176  0.6057 -0.5755
18955THY    HP769950   8.594   6.637   2.790  0.6893  0.4145 -0.7969
18955THY    CA369951   8.369   6.932   2.819  0.0008 -0.4122 -0.0770
18955THY    HA369952   8.427   6.998   2.883 -0.2645  1.1942 -1.3333
18955THY    CA469953   8.293   6.991   2.713  0.1959 -0.4236  0.5296
18955THY    HA469954   8.287   7.100   2.711  2.2306 -2.4344  0.6867
18955THY    CA569955   8.238   6.909   2.612 -0.1650  0.4464 -0.0278
18955THY    CM169956   8.165   6.968   2.498  0.6536  1.0766 -0.2277
18955THY    HM169957   8.244   6.983   2.423  0.7699  1.3478  0.6036
18955THY    HM269958   8.131   7.068   2.530  0.1161 -0.4978  0.1144
18955THY    HM369959   8.085   6.906   2.458 -0.3140  0.8423  1.1176
18955THY    CA669960   8.240   6.774   2.631 -0.2962  0.2319  0.6414
18955THY    HA669961   8.192   6.702   2.565 -0.8413  1.4686 -0.1698
18956THY      O69962   3.052   2.432   2.583  0.3649  0.2083 -0.4651
18956THY     HO69963   3.047   2.404   2.676 -1.5209  1.0817  2.3481
18956THY    CA169964   3.185   2.432   2.557 -0.0895 -1.0479  0.1052
18956THY    CA269965   3.245   2.509   2.453  0.7512  0.1656 -0.2083
18956THY    CP169966   3.158   2.588   2.353 -0.1261  0.7707 -0.2887
18956THY    HP169967   3.056   2.603   2.391 -0.7005 -1.1207  0.9179
18956THY    CP269968   3.144   2.522   2.212 -0.0124 -0.6867 -0.6227
18956THY    HP269969   3.074   2.439   2.221  0.7978 -1.2305 -1.3796
18956THY    HP369970   3.235   2.482   2.166  0.5391 -0.7793  0.6864
18956THY    HP469971   3.090   2.590   2.144 -1.1981  0.8957  0.0763
18956THY    CP369972   3.214   2.733   2.332  0.1110  0.6256  0.3872
18956THY    HP569973   3.223   2.766   2.436 -0.4989  0.8741 -0.2159
18956THY    HP669974   3.147   2.791   2.266 -0.3457 -0.5800 -1.4249
18956THY    HP769975   3.318   2.735   2.297 -0.5528 -1.4876  0.4911
18956THY    CA369976   3.389   2.516   2.446 -0.2768  0.1902  0.0188
18956THY    HA369977   3.445   2.569   2.369  0.9144 -0.5922 -2.2587
18956THY    CA469978   3.461   2.442   2.542 -0.2436 -0.3800 -0.1736
18956THY    HA469979   3.569   2.450   2.540 -0.1738 -0.4894 -1.0659
18956THY    CA569980   3.403   2.364   2.645 -0.0912  0.1336  0.0695
18956THY    CM169981   3.481   2.272   2.734 -0.0919  0.5046  0.3364
18956THY    HM169982   3.443   2.169   2.727  0.8797 -0.5450  0.0356
18956THY    HM269983   3.483   2.299   2.841  1.0939  0.9648 -1.4261
18956THY    HM369984   3.589   2.270   2.713 -0.2353 -0.2178 -0.1501
18956THY    CA669985   3.263   2.366   2.653  0.5906  0.3174  0.2868
18956THY    HA669986   3.220   2.304   2.732  0.5982  0.3071  0.2684
18957THY      O69987   3.078   6.589   5.677 -0.0086  0.5243 -0.6132
18957THY     HO69988   3.000   6.536   5.653  0.3451  0.2796 -1.0244
18957THY    CA169989   3.055   6.635   5.803  0.1799 -0.1689  0.4078
18957THY    CA269990   3.164   6.669   5.893 -0.6215  0.2141 -0.7140
18957THY    CP169991   3.301   6.646   5.840  0.3918 -0.8048  0.3112
18957THY    HP169992   3.301   6.569   5.762 -0.3455  1.0805 -1.7061
18957THY    CP269993   3.394   6.572   5.951 -0.1533 -0.6261 -0.1904
18957THY    HP269994   3.343   6.478   5.976 -0.6125 -2.0137 -0.3342
18957THY    HP369995   3.409   6.640   6.036  1.5901 -0.2155 -1.0655
18957THY    HP469996   3.491   6.550   5.906  0.8964  0.6055  1.6649
18957THY    CP369997   3.359   6.783   5.806  0.3707  0.2599  0.4792
18957THY    HP569998   3.332   6.856   5.884 -0.3521  1.2144 -0.7526
18957THY    HP669999   3.308   6.818   5.716  0.9365 -0.4085 -0.4040
18957THY    HP770000   3.465   6.773   5.781  0.0769 -0.7188 -0.2824
18957THY    CA370001   3.135   6.735   6.011 -0.4116 -0.1388  0.2783
18957THY    HA370002   3.206   6.747   6.093 -1.8638  1.0264  1.3626
18957THY    CA470003   3.007   6.768   6.050  0.2924 -0.4815 -0.2401
18957THY    HA470004   2.988   6.820   6.143 -1.5013 -1.0010  0.0903
18957THY    CA570005   2.901   6.731   5.961 -0.3644 -0.1232  0.0965
18957THY    CM170006   2.763   6.745   6.011  0.2700 -0.5256 -0.9994
18957THY    HM170007   2.738   6.646   6.053  2.2037 -0.1161 -1.3682
18957THY    HM270008   2.691   6.772   5.934  0.3614 -0.0843  0.6208
18957THY    HM370009   2.742   6.821   6.087 -0.8623 -0.1030 -1.7070
18957THY    CA670010   2.922   6.669   5.840 -0.2250 -0.0168  0.0589
18957THY    HA670011   2.838   6.650   5.775 -1.8665  2.3316 -1.3785
18958THY      O70012   1.687   0.391   6.474  0.6426  0.1024  0.3365
18958THY     HO70013   1.767   0.424   6.429  1.6242  1.2213 -0.4292
18958THY    CA170014   1.662   0.480   6.572 -0.4450 -0.4546  0.8780
18958THY    CA270015   1.576   0.446   6.678  0.0722  0.4667 -0.0797
18958THY    CP170016   1.486   0.324   6.679  0.7235  0.6386 -0.6964
18958THY    HP170017   1.514   0.257   6.597  0.9901 -1.4145  1.7636
18958THY    CP270018   1.336   0.372   6.658 -0.4701 -0.3100 -0.4398
18958THY    HP270019   1.309   0.463   6.712 -2.3805 -1.6685 -0.1314
18958THY    HP370020   1.270   0.291   6.688 -0.6623  0.2346 -0.0857
18958THY    HP470021   1.319   0.392   6.551 -1.7846 -0.1757 -0.7259
18958THY    CP370022   1.508   0.251   6.814 -0.8427 -0.4556 -0.2232
18958THY    HP570023   1.603   0.197   6.821 -0.4987  1.6410  0.5327
18958THY    HP670024   1.426   0.178   6.825 -1.0562  1.0745  0.2105
18958THY    HP770025   1.512   0.314   6.904 -0.6651 -0.1354 -0.6832
18958THY    CA370026   1.559   0.532   6.783 -0.1727  0.4000 -0.1427
18958THY    HA370027   1.490   0.517   6.866  0.4524  0.4172 -3.6682
18958THY    CA470028   1.655   0.638   6.789  0.3505 -0.5204 -0.7576
18958THY    HA470029   1.655   0.701   6.877 -4.5000  0.9781 -2.3382
18958THY    CA570030   1.748   0.665   6.683 -0.0745 -0.2280  0.0579
18958THY    CM170031   1.853   0.779   6.699 -0.2018  0.1263  0.6394
18958THY    HM170032   1.848   0.814   6.803 -2.6543 -0.6292  2.8801
18958THY    HM270033   1.812   0.861   6.639  0.8541  0.4210  1.4044
18958THY    HM370034   1.948   0.743   6.659 -0.3061 -1.3808  1.9474
18958THY    CA670035   1.747   0.588   6.568  0.6557  0.3021 -0.0953
18958THY    HA670036   1.815   0.607   6.486 -0.7452 -0.4111  2.1189
18959THY      O70037   7.331   5.121   2.201 -0.5171 -0.5332 -0.3879
18959THY     HO70038   7.358   5.164   2.284  1.3882 -1.7696  0.9640
18959THY    CA170039   7.400   5.203   2.109 -0.0264  0.6851  0.2122
18959THY    CA270040   7.457   5.154   1.982  0.0893 -0.1959 -0.9445
18959THY    CP170041   7.423   5.008   1.933  1.3875  0.2666  0.8030
18959THY    HP170042   7.349   4.964   2.001 -1.9707 -1.3701  3.5166
18959THY    CP270043   7.543   4.917   1.942  0.2211  0.5417 -0.6452
18959THY    HP270044   7.612   4.949   1.863 -2.4326 -2.0063 -0.8478
18959THY    HP370045   7.514   4.814   1.919 -2.2848 -1.7926  0.4632
18959THY    HP470046   7.584   4.926   2.043  0.1565  0.4427  1.1802
18959THY    CP370047   7.378   5.009   1.792 -0.1472  0.3572 -0.2711
18959THY    HP570048   7.336   4.908   1.777 -1.0623 -0.7942  0.2629
18959THY    HP670049   7.462   5.038   1.728 -0.1660  0.1883 -0.5832
18959THY    HP770050   7.290   5.073   1.778 -2.2801 -0.1403 -3.0969
18959THY    CA370051   7.533   5.250   1.910 -1.3384  0.6164 -0.4930
18959THY    HA370052   7.590   5.218   1.823 -2.9447 -0.5767 -0.2350
18959THY    CA470053   7.555   5.383   1.957  0.2650  0.1863  0.0687
18959THY    HA470054   7.615   5.457   1.905  0.7667  0.2265 -0.3007
18959THY    CA570055   7.510   5.421   2.082 -0.1066 -0.7592 -0.1662
18959THY    CM170056   7.562   5.553   2.138  0.3498 -0.0522 -0.1743
18959THY    HM170057   7.530   5.639   2.079  0.1002 -2.0404 -1.5821
18959THY    HM270058   7.671   5.561   2.125  0.3437  0.5531  1.0557
18959THY    HM370059   7.546   5.555   2.247 -1.0195 -0.2505  1.0184
18959THY    CA670060   7.432   5.327   2.154  0.3807 -0.5673 -0.1512
18959THY    HA670061   7.402   5.352   2.255  0.6844 -0.0586 -1.6964
18960THY      O70062   8.169   0.592   4.191  0.3325  0.7133  0.1941
18960THY     HO70063   8.091   0.650   4.187 -0.1271 -0.9288 -0.4968
18960THY    CA170064   8.274   0.663   4.147 -0.4144 -0.4273 -1.2085
18960THY    CA270065   8.411   0.618   4.159  0.5312  0.7864  0.1140
18960THY    CP170066   8.432   0.480   4.225 -0.1344  0.1961 -0.1123
18960THY    HP170067   8.354   0.441   4.291 -0.6295 -0.1514  0.2866
18960THY    CP270068   8.546   0.488   4.328 -0.2170 -0.2103 -0.2501
18960THY    HP270069   8.569   0.397   4.385 -0.3203 -0.1632 -0.2458
18960THY    HP370070   8.544   0.574   4.396 -2.7565 -0.8118  0.2392
18960THY    HP470071   8.639   0.501   4.270 -0.5301 -1.1197 -1.8058
18960THY    CP370072   8.461   0.361   4.125 -0.4203 -0.6997  0.2477
18960THY    HP570073   8.384   0.331   4.053 -2.2369  0.3010  2.2491
18960THY    HP670074   8.491   0.280   4.193 -1.8180  1.7883  1.6993
18960THY    HP770075   8.548   0.391   4.066  0.3718 -0.2157 -1.0377
18960THY    CA370076   8.517   0.702   4.100 -0.2545  0.5591  0.1369
18960THY    HA370077   8.614   0.655   4.093 -0.5980  0.5625 -0.5937
18960THY    CA470078   8.485   0.824   4.045 -0.2715 -0.2396  0.4329
18960THY    HA470079   8.566   0.879   3.997  1.7955  1.6440 -0.7701
18960THY    CA570080   8.350   0.863   4.042 -0.8111 -0.1566 -0.0592
18960THY    CM170081   8.324   1.005   3.998  0.3681 -0.2372 -0.4349
18960THY    HM170082   8.367   1.085   4.060 -0.4251 -0.1051 -0.1034
18960THY    HM270083   8.216   1.020   3.988  0.3115  0.9814  0.0440
18960THY    HM370084   8.363   1.015   3.896  0.9969  0.1966  2.5931
18960THY    CA670085   8.248   0.790   4.101 -0.4838  0.4143 -0.2762
18960THY    HA670086   8.151   0.837   4.111  0.4628  1.6395  1.5557
18961THY      O70087   3.589   3.524   3.625 -0.3138 -0.7407 -0.1158
18961THY     HO70088   3.671   3.503   3.578  2.0565  2.6353  0.7217
18961THY    CA170089   3.494   3.437   3.580  0.1954  0.0321  0.1634
18961THY    CA270090   3.371   3.443   3.641 -0.7917  0.6174  0.5896
18961THY    CP170091   3.347   3.538   3.763 -0.4682  0.5028 -0.3052
18961THY    HP170092   3.409   3.628   3.748 -1.0027 -0.3339 -0.0672
18961THY    CP270093   3.392   3.461   3.888  0.0089  0.2662 -0.1747
18961THY    HP270094   3.495   3.424   3.877 -0.4962 -1.6446 -1.1176
18961THY    HP370095   3.332   3.373   3.912 -1.8092  1.7723  1.3836
18961THY    HP470096   3.388   3.529   3.974  1.1113 -0.0808  0.3537
18961THY    CP370097   3.200   3.575   3.774  0.0248  0.0947  0.1314
18961THY    HP570098   3.151   3.487   3.817  0.9125  1.7061  0.4044
18961THY    HP670099   3.151   3.597   3.678 -1.7158  0.8343 -0.3382
18961THY    HP770100   3.177   3.661   3.838  0.1446  1.8441 -1.1047
18961THY    CA370101   3.273   3.359   3.605  0.1885  0.2457  0.6369
18961THY    HA370102   3.176   3.354   3.654  0.3016  0.6561  2.0937
18961THY    CA470103   3.296   3.267   3.504 -0.5236  0.4208 -0.7835
18961THY    HA470104   3.222   3.194   3.475  2.1737 -3.0551 -2.4322
18961THY    CA570105   3.411   3.264   3.434 -0.1905 -0.1260 -0.2063
18961THY    CM170106   3.427   3.155   3.325  0.0847 -0.4892 -0.4743
18961THY    HM170107   3.486   3.072   3.367  1.0007 -1.6688 -0.4363
18961THY    HM270108   3.459   3.196   3.229 -3.1833  0.3973  5.2454
18961THY    HM370109   3.333   3.104   3.300  0.4941  1.3272 -2.2278
18961THY    CA670110   3.522   3.340   3.480  0.4471  0.1449 -0.5041
18961THY    HA670111   3.623   3.327   3.443  1.3372  1.3110  2.2890
18962THY      O70112   9.521   8.434   5.771 -0.5344 -0.1553  0.0475
18962THY     HO70113   9.539   8.530   5.764  0.7284  1.9887  0.0072
18962THY    CA170114   9.399   8.416   5.816  0.1064  0.3179 -0.9862
18962THY    CA270115   9.329   8.304   5.782 -0.0714 -0.0817  0.0254
18962THY    CP170116   9.393   8.186   5.704 -0.2135 -0.5160 -0.5532
18962THY    HP170117   9.480   8.228   5.653 -0.3639 -0.0109  0.4079
18962THY    CP270118   9.291   8.121   5.601 -0.3777 -0.1004 -0.4345
18962THY    HP270119   9.341   8.053   5.531 -1.6365  1.4347 -3.1032
18962THY    HP370120   9.230   8.196   5.550 -1.9000 -0.8301 -2.1001
18962THY    HP470121   9.221   8.059   5.659 -2.6373  0.2741  2.2801
18962THY    CP370122   9.421   8.088   5.812 -0.0803 -0.6535  0.1793
18962THY    HP570123   9.468   7.994   5.782 -2.3955  0.2095 -1.3490
18962THY    HP670124   9.325   8.064   5.859  1.0267  1.7905  0.1496
18962THY    HP770125   9.501   8.132   5.873  1.3846 -1.1466 -1.6825
18962THY    CA370126   9.194   8.295   5.832  0.7605 -0.2157  0.1498
18962THY    HA370127   9.132   8.208   5.816  0.1670  0.5446  0.4242
18962THY    CA470128   9.134   8.399   5.901 -0.0683 -0.2747  0.2517
18962THY    HA470129   9.033   8.384   5.939 -0.1528  0.5166  2.4240
18962THY    CA570130   9.203   8.517   5.932  0.2274  0.0387  0.0449
18962THY    CM170131   9.144   8.635   6.005  0.4134  0.0692  0.2343
18962THY    HM170132   9.061   8.678   5.947 -1.7993  2.6716 -0.2426
18962THY    HM270133   9.220   8.711   6.026 -2.9097 -0.3512  4.0439
18962THY    HM370134   9.112   8.596   6.103 -0.5193  0.5632  2.1173
18962THY    CA670135   9.336   8.522   5.884  0.2367 -0.6182  0.0862
18962THY    HA670136   9.395   8.610   5.909  1.3027  1.5940 -1.1663
18963THY      O70137   1.200   2.247   7.615  0.5755  0.1657  0.0476
18963THY     HO70138   1.264   2.303   7.662  1.0891 -0.3954 -0.0521
18963THY    CA170139   1.159   2.173   7.720 -0.1521  1.0132 -1.6833
18963THY    CA270140   1.077   2.060   7.713  0.4781  0.0684  0.7866
18963THY    CP170141   1.013   2.016   7.581 -0.3680  0.2941  0.0996
18963THY    HP170142   1.048   2.075   7.495  0.6710  0.1074 -0.7673
18963THY    CP270143   0.860   2.032   7.590  0.4143 -0.1801 -0.3739
18963THY    HP270144   0.813   1.995   7.682 -1.2096 -0.9930 -0.3812
18963THY    HP370145   0.817   1.963   7.517 -0.7797  1.8011 -1.8483
18963THY    HP470146   0.823   2.134   7.581  1.1585  0.0637 -0.0695
18963THY    CP370147   1.056   1.869   7.545 -0.6986 -0.0321  0.0258
18963THY    HP570148   1.024   1.846   7.443  0.1574 -0.1093 -0.8992
18963THY    HP670149   0.999   1.793   7.600 -0.2543 -0.9912 -1.0342
18963THY    HP770150   1.163   1.846   7.554 -1.0803  1.6698 -1.2779
18963THY    CA370151   1.053   1.978   7.828  0.4349 -0.9102 -0.6565
18963THY    HA370152   0.985   1.893   7.823  0.8478 -1.2619 -0.9698
18963THY    CA470153   1.112   2.018   7.951 -0.8466  0.1796  0.0491
18963THY    HA470154   1.091   1.961   8.040  0.6676 -0.6147 -1.8701
18963THY    CA570155   1.195   2.125   7.957  0.2609 -0.1874  0.0057
18963THY    CM170156   1.245   2.178   8.088 -0.1724 -0.5060  0.0334
18963THY    HM170157   1.248   2.103   8.167  0.1821  1.0742  1.6342
18963THY    HM270158   1.186   2.261   8.128 -1.7354  1.8166 -2.0470
18963THY    HM370159   1.347   2.217   8.079  0.2253  1.6017 -0.3996
18963THY    CA670160   1.217   2.207   7.845  0.7274  0.1096 -0.1839
18963THY    HA670161   1.284   2.292   7.857  1.5456 -0.3999 -0.7303
18964THY      O70162   2.702   3.430   7.233 -0.4319  0.1583 -0.4995
18964THY     HO70163   2.750   3.381   7.302  0.7875  2.0840  3.0441
18964THY    CA170164   2.757   3.552   7.221  0.6461  0.6338 -0.2505
18964THY    CA270165   2.715   3.634   7.110 -0.0602 -0.3863 -0.2193
18964THY    CP170166   2.630   3.579   6.992 -0.8723  0.3283 -0.7252
18964THY    HP170167   2.628   3.470   6.991 -1.3310 -0.4603 -0.7109
18964THY    CP270168   2.701   3.608   6.864  0.1630  0.2226  0.3217
18964THY    HP270169   2.645   3.579   6.775  0.3550  0.3908 -0.5864
18964THY    HP370170   2.800   3.561   6.860 -0.8805  0.7064 -2.0531
18964THY    HP470171   2.723   3.715   6.856 -0.2356 -3.4648  0.2579
18964THY    CP370172   2.498   3.647   6.986 -0.3203 -0.0805  0.2424
18964THY    HP570173   2.497   3.755   6.969 -1.5185 -1.7112  0.0199
18964THY    HP670174   2.442   3.617   7.075 -1.2725 -1.1751 -1.4352
18964THY    HP770175   2.446   3.603   6.900 -1.8339 -0.0537  1.8677
18964THY    CA370176   2.757   3.770   7.110  0.0626  1.0601 -0.0355
18964THY    HA370177   2.707   3.836   7.040  1.7370  0.8235  1.0404
18964THY    CA470178   2.852   3.808   7.203 -0.2104  0.3968  0.5860
18964THY    HA470179   2.885   3.911   7.193  1.2421 -1.6699 -0.0208
18964THY    CA570180   2.901   3.725   7.309 -0.6387  0.3397  0.1819
18964THY    CM170181   3.007   3.766   7.411  0.3455 -0.4846 -0.2876
18964THY    HM170182   2.975   3.869   7.425  1.2116 -0.9347  0.0552
18964THY    HM270183   3.110   3.757   7.373  0.0383 -1.8482  1.5264
18964THY    HM370184   2.987   3.703   7.499 -0.6250 -0.4172  0.1025
18964THY    CA670185   2.843   3.598   7.321 -0.3716 -0.1094 -0.2714
18964THY    HA670186   2.880   3.528   7.396 -2.3052  0.0163 -1.2101
18965THY      O70187   4.368   3.880   2.662 -0.7795 -0.2680 -0.4572
18965THY     HO70188   4.455   3.838   2.658  0.6634  0.5408  2.2580
18965THY    CA170189   4.386   3.985   2.747  0.2482 -0.6664  1.5618
18965THY    CA270190   4.280   4.077   2.771  0.1100 -0.1064 -0.6673
18965THY    CP170191   4.149   4.046   2.705 -0.2527 -0.1269  0.3331
18965THY    HP170192   4.144   3.943   2.669  2.6975  0.7263 -0.1883
18965THY    CP270193   4.138   4.137   2.584  0.3123 -0.0072  0.3461
18965THY    HP270194   4.040   4.122   2.537 -0.4795  2.0607 -1.5879
18965THY    HP370195   4.215   4.104   2.514 -0.9335 -1.0898 -0.3547
18965THY    HP470196   4.157   4.243   2.604  0.5865 -1.1333  0.5206
18965THY    CP370197   4.036   4.069   2.806 -0.1230 -0.3435 -0.2623
18965THY    HP570198   4.042   4.175   2.833  0.7014 -1.0508 -0.1159
18965THY    HP670199   4.050   4.011   2.897  0.9386  1.2207  2.2672
18965THY    HP770200   3.945   4.052   2.748 -0.0572 -0.8539  0.9589
18965THY    CA370201   4.315   4.195   2.846  0.1683  0.1708  0.3659
18965THY    HA370202   4.242   4.274   2.860  1.1031 -2.4643  1.8066
18965THY    CA470203   4.449   4.212   2.890  0.1549 -0.0560  0.1465
18965THY    HA470204   4.479   4.298   2.948 -1.3031  0.3439  0.4140
18965THY    CA570205   4.545   4.111   2.870 -0.2907 -0.3918 -0.0289
18965THY    CM170206   4.678   4.126   2.930 -0.6657 -0.1362  0.4251
18965THY    HM170207   4.752   4.046   2.913 -1.1667 -1.9384  0.2939
18965THY    HM270208   4.683   4.165   3.032 -0.5214 -0.3836  1.0610
18965THY    HM370209   4.724   4.198   2.862 -2.6062 -1.6932  0.2754
18965THY    CA670210   4.509   3.994   2.808 -0.2802 -1.0073  0.2934
18965THY    HA670211   4.588   3.921   2.793  0.4710 -1.9220  1.2561
18966THY      O70212   5.468   8.965   6.999 -0.0696 -0.0146 -0.0741
18966THY     HO70213   5.532   9.024   7.040  2.5268 -1.0517 -1.9818
18966THY    CA170214   5.421   8.878   7.089 -0.7619  0.1661  0.5927
18966THY    CA270215   5.401   8.746   7.048  0.4685 -0.3043  0.2524
18966THY    CP170216   5.418   8.699   6.907  0.2727  1.0896  0.1649
18966THY    HP170217   5.423   8.788   6.843 -0.2306 -0.8690 -1.1376
18966THY    CP270218   5.289   8.616   6.864 -0.6550 -0.4656 -0.3692
18966THY    HP270219   5.296   8.519   6.915  1.1051  2.8812  1.3269
18966THY    HP370220   5.285   8.603   6.755  2.3509 -0.7048 -0.0799
18966THY    HP470221   5.199   8.659   6.907 -1.0436 -0.1513 -1.4495
18966THY    CP370222   5.538   8.610   6.882 -0.2141  0.1282  0.6752
18966THY    HP570223   5.534   8.529   6.957  0.1710  0.0169  0.5529
18966THY    HP670224   5.632   8.665   6.889  0.8070  0.7067 -1.0582
18966THY    HP770225   5.541   8.569   6.781  1.0591 -0.2267  1.5809
18966THY    CA370226   5.344   8.662   7.154 -0.1262  0.2208 -0.0050
18966THY    HA370227   5.322   8.557   7.136 -0.0287  2.6040 -0.4858
18966THY    CA470228   5.313   8.711   7.274 -0.7319 -0.2568 -0.8169
18966THY    HA470229   5.247   8.648   7.333 -0.2046 -0.3615 -1.4731
18966THY    CA570230   5.341   8.843   7.310 -0.7925 -0.1690 -0.0385
18966THY    CM170231   5.294   8.886   7.449 -0.1210  0.1717 -0.0444
18966THY    HM170232   5.313   8.809   7.524  2.2724 -0.5365 -0.2213
18966THY    HM270233   5.193   8.918   7.422  0.3182 -1.2076  0.2195
18966THY    HM370234   5.348   8.973   7.490 -2.1374 -1.2621  2.0065
18966THY    CA670235   5.406   8.924   7.219 -0.1343 -0.1032  0.1079
18966THY    HA670236   5.437   9.024   7.249  2.6952  3.5007 -1.6058
18967THY      O70237   7.471   6.127   6.391 -0.0320 -0.7948 -0.0397
18967THY     HO70238   7.506   6.190   6.325 -0.6983 -0.6948  0.4517
18967THY    CA170239   7.471   6.009   6.324  0.1037 -0.4923 -0.6609
18967THY    CA270240   7.359   5.921   6.331 -0.4631  0.3893 -0.1332
18967THY    CP170241   7.231   5.957   6.409  0.5681 -0.1483  0.8768
18967THY    HP170242   7.232   6.061   6.444  2.2674  0.7112  0.6111
18967THY    CP270243   7.239   5.881   6.541 -0.6330 -0.8506  0.1892
18967THY    HP270244   7.150   5.906   6.601  0.9689 -0.1982  5.4289
18967THY    HP370245   7.332   5.898   6.597  0.4972 -2.4429 -0.4895
18967THY    HP470246   7.255   5.773   6.529  2.0246  1.1674  0.2379
18967THY    CP370247   7.110   5.915   6.334  0.4750 -0.2217  0.1158
18967THY    HP570248   7.128   5.921   6.226 -1.8088 -0.6939 -0.5012
18967THY    HP670249   7.025   5.980   6.357 -0.2770 -0.0608 -0.8990
18967THY    HP770250   7.076   5.815   6.361  0.2278  2.1348  0.7744
18967THY    CA370251   7.359   5.800   6.250  0.7244 -0.8976 -0.2020
18967THY    HA370252   7.283   5.723   6.249  2.7038 -1.5511 -2.2704
18967THY    CA470253   7.468   5.771   6.176 -0.0485  0.6893 -0.0715
18967THY    HA470254   7.470   5.684   6.111 -1.0399  0.8272 -0.2110
18967THY    CA570255   7.575   5.851   6.180 -0.1472  0.0571 -0.2426
18967THY    CM170256   7.696   5.811   6.111  0.1918  0.6157 -0.2019
18967THY    HM170257   7.688   5.716   6.057 -2.3532 -0.9134  0.7905
18967THY    HM270258   7.792   5.815   6.165  0.7372 -0.3599  0.5647
18967THY    HM370259   7.706   5.888   6.033 -0.8157  1.1204  0.4612
18967THY    CA670260   7.584   5.967   6.260 -0.0200  0.2237 -0.2335
18967THY    HA670261   7.672   6.030   6.255 -0.3602 -0.4425  0.1937
18968THY      O70262   1.967   2.663   6.521 -0.4217 -0.6166  0.4673
18968THY     HO70263   1.998   2.715   6.597  1.3423 -1.9611  1.4887
18968THY    CA170264   1.934   2.757   6.427 -0.6152 -0.0696  0.1384
18968THY    CA270265   1.912   2.718   6.298  0.4574  0.1448 -0.3489
18968THY    CP170266   1.944   2.574   6.252  0.2776 -0.6379  0.2132
18968THY    HP170267   1.992   2.518   6.333  1.2198 -1.3494 -0.0291
18968THY    CP270268   2.046   2.562   6.144 -0.8785  0.5647  0.5018
18968THY    HP270269   2.141   2.608   6.174 -0.7928 -1.8083  2.0762
18968THY    HP370270   2.015   2.625   6.059 -0.8045 -1.5944 -2.1809
18968THY    HP470271   2.065   2.461   6.107  0.7764 -1.8693  1.5889
18968THY    CP370272   1.813   2.521   6.216 -0.1307 -0.0463 -0.2413
18968THY    HP570273   1.814   2.413   6.195  1.4904 -0.0769 -0.2432
18968THY    HP670274   1.773   2.565   6.123 -0.9671  0.1234 -0.6281
18968THY    HP770275   1.741   2.544   6.295  0.0837 -0.2299  1.1294
18968THY    CA370276   1.864   2.814   6.202  0.2184  0.1817  0.3077
18968THY    HA370277   1.836   2.785   6.101  0.7719  0.4143 -1.1120
18968THY    CA470278   1.855   2.951   6.242 -0.0447 -0.5264  0.1202
18968THY    HA470279   1.819   3.028   6.174 -0.7291 -0.9864 -0.5964
18968THY    CA570280   1.885   2.989   6.374 -0.3061  1.2225 -0.6400
18968THY    CM170281   1.852   3.127   6.423  0.3989  0.3098 -0.7387
18968THY    HM170282   1.869   3.208   6.352 -1.8438  0.0916 -0.3799
18968THY    HM270283   1.907   3.137   6.517  0.8310  0.3455 -2.9443
18968THY    HM370284   1.743   3.136   6.437  0.3449 -1.1635  1.5904
18968THY    CA670285   1.918   2.889   6.466 -0.4901  0.0408  0.3519
18968THY    HA670286   1.934   2.909   6.572  0.4856  0.3103 -1.5829
18969THY      O70287   5.064   5.174   3.126  0.4763  0.1575 -0.1032
18969THY     HO70288   5.048   5.115   3.050 -1.6381  0.5930 -0.1923
18969THY    CA170289   4.952   5.169   3.205  0.0503  0.5558 -0.0720
18969THY    CA270290   4.955   5.207   3.340 -0.0405 -0.2638  0.3475
18969THY    CP170291   5.075   5.284   3.393 -0.5939  0.5023 -0.4097
18969THY    HP170292   5.155   5.285   3.318 -1.3742 -0.3591  0.0707
18969THY    CP270293   5.138   5.232   3.528 -0.2919 -0.0480 -0.3057
18969THY    HP270294   5.179   5.131   3.513 -0.2831  0.8531 -0.4420
18969THY    HP370295   5.062   5.236   3.607 -1.6121 -1.2751 -0.2445
18969THY    HP470296   5.218   5.302   3.555 -0.1693 -0.9825 -0.0732
18969THY    CP370297   5.033   5.429   3.399 -0.6144 -0.2979  0.0418
18969THY    HP570298   4.938   5.446   3.450  0.0662  0.4632  1.8420
18969THY    HP670299   5.023   5.477   3.301 -0.3800 -1.9074 -2.9503
18969THY    HP770300   5.106   5.483   3.461 -1.2633  1.8594 -1.4398
18969THY    CA370301   4.840   5.177   3.426 -0.0762 -0.5174 -0.6870
18969THY    HA370302   4.845   5.201   3.532 -0.7708 -0.8299  0.9330
18969THY    CA470303   4.736   5.108   3.366 -0.3248  0.4918 -0.3035
18969THY    HA470304   4.644   5.092   3.421 -0.7768 -0.6185 -1.7887
18969THY    CA570305   4.731   5.072   3.230  0.4247 -0.2293 -0.0710
18969THY    CM170306   4.616   5.002   3.165  0.1767  0.7717 -0.2822
18969THY    HM170307   4.522   5.008   3.221 -0.3702 -0.1056 -0.4410
18969THY    HM270308   4.637   4.894   3.157  0.3942  0.1509 -0.2000
18969THY    HM370309   4.597   5.033   3.062 -0.5926  0.4344 -1.7770
18969THY    CA670310   4.838   5.111   3.152  0.1200  0.0447  0.3156
18969THY    HA670311   4.833   5.104   3.043  0.4706 -0.0502  1.3937
18970THY      O70312   0.609   1.414   2.314 -0.0433 -0.0503  0.0833
18970THY     HO70313   0.625   1.462   2.398  0.9206  0.2050 -0.6562
18970THY    CA170314   0.595   1.516   2.226 -0.2190 -0.1343  0.6111
18970THY    CA270315   0.662   1.517   2.094  0.1665 -0.0591  1.0823
18970THY    CP170316   0.737   1.395   2.043  0.5200 -0.3195 -0.0798
18970THY    HP170317   0.695   1.311   2.099 -3.2942  0.1460  1.9047
18970THY    CP270318   0.886   1.407   2.070 -0.3507 -0.6179 -0.1919
18970THY    HP270319   0.924   1.485   2.003 -1.7282  0.9539  1.9338
18970THY    HP370320   0.942   1.318   2.039  0.8533 -0.2853  0.4226
18970THY    HP470321   0.906   1.423   2.177 -1.0071 -0.9089  3.3801
18970THY    CP370322   0.716   1.364   1.894  0.4525 -0.4633 -0.5174
18970THY    HP570323   0.736   1.457   1.838 -3.1245 -1.3133 -0.1246
18970THY    HP670324   0.615   1.331   1.867  0.1140  1.0244 -0.7477
18970THY    HP770325   0.789   1.290   1.859 -0.7137 -0.5515 -1.6639
18970THY    CA370326   0.652   1.635   2.014 -0.3944 -0.2013 -0.2152
18970THY    HA370327   0.708   1.637   1.921  0.1074  0.0045 -2.6410
18970THY    CA470328   0.569   1.744   2.059 -0.3499  0.0260  0.1896
18970THY    HA470329   0.551   1.830   1.996 -0.9290  0.0785  0.1083
18970THY    CA570330   0.503   1.735   2.182 -0.3702 -0.4262 -0.1488
18970THY    CM170331   0.406   1.842   2.223 -0.3087  0.2895  0.1983
18970THY    HM170332   0.463   1.934   2.240  3.2350 -0.2134 -1.7161
18970THY    HM270333   0.338   1.831   2.308 -0.1400  0.8455  2.7937
18970THY    HM370334   0.335   1.861   2.141  0.1170  0.1320  1.1337
18970THY    CA670335   0.533   1.627   2.267  1.0263 -0.3217  0.4844
18970THY    HA670336   0.482   1.624   2.364  0.1084 -0.8027 -2.3910
18971THY      O70337   7.318   7.985   1.928  0.4244 -0.8945 -0.5154
18971THY     HO70338   7.401   7.943   1.958  1.3215 -0.3133  1.5555
18971THY    CA170339   7.360   8.109   1.915  0.8503 -0.4447 -0.4076
18971THY    CA270340   7.262   8.208   1.907  0.3153  0.4095  1.0291
18971THY    CP170341   7.110   8.178   1.925 -0.1517  0.2160 -0.4027
18971THY    HP170342   7.077   8.080   1.888  0.5689 -2.2177  0.2245
18971THY    CP270343   7.019   8.265   1.839  0.0029  0.0692  0.5469
18971THY    HP270344   7.054   8.289   1.738  1.0503  0.8908  2.8110
18971THY    HP370345   6.998   8.365   1.880  0.0445  1.4264  0.0210
18971THY    HP470346   6.921   8.216   1.845 -0.8513 -1.1636  2.0143
18971THY    CP370347   7.076   8.182   2.076  0.0891  0.3506  0.0392
18971THY    HP570348   7.112   8.088   2.120  1.5238  0.1636  0.4708
18971THY    HP670349   6.968   8.193   2.092  0.0671 -0.8743  2.1317
18971THY    HP770350   7.137   8.257   2.127  1.7386 -0.9238 -0.3805
18971THY    CA370351   7.304   8.329   1.853 -0.2706  0.5667 -0.3499
18971THY    HA370352   7.231   8.406   1.828  2.3162  2.3395  2.9583
18971THY    CA470353   7.439   8.364   1.845 -0.1810  0.6312  0.0907
18971THY    HA470354   7.467   8.465   1.815 -1.2999  0.3365  0.3287
18971THY    CA570355   7.536   8.267   1.870  0.0276  0.3197  0.7757
18971THY    CM170356   7.681   8.292   1.853  1.1915 -0.0928 -0.2668
18971THY    HM170357   7.742   8.201   1.862  0.0422  0.4472 -1.0012
18971THY    HM270358   7.714   8.374   1.918 -1.3599  3.9107 -2.0988
18971THY    HM370359   7.689   8.326   1.749 -1.6290  0.0271  1.1123
18971THY    CA670360   7.496   8.132   1.895  0.2279  0.5539 -0.0854
18971THY    HA670361   7.559   8.044   1.892 -2.9457 -3.0240 -2.5490
18972THY      O70362   3.908   4.630   6.288  0.0618 -0.0603  0.7787
18972THY     HO70363   3.906   4.695   6.215  1.5034 -1.0751 -0.2359
18972THY    CA170364   3.947   4.512   6.216 -0.2745 -1.0441  0.4922
18972THY    CA270365   3.867   4.396   6.203 -0.0600 -0.2314 -0.2158
18972THY    CP170366   3.729   4.397   6.271 -0.5282 -0.6233 -0.8164
18972THY    HP170367   3.695   4.500   6.283  1.5239 -0.0894 -0.1508
18972THY    CP270368   3.737   4.342   6.417 -0.4539  0.1834 -0.3820
18972THY    HP270369   3.633   4.334   6.452 -0.8803 -1.1303 -0.9651
18972THY    HP370370   3.778   4.411   6.491  0.2863 -0.8077  0.2667
18972THY    HP470371   3.786   4.244   6.421 -1.1836  2.4021 -0.7043
18972THY    CP370372   3.620   4.329   6.186  0.6255  0.3782  0.0158
18972THY    HP570373   3.620   4.220   6.199 -1.1406  1.0060  0.0528
18972THY    HP670374   3.637   4.355   6.081  2.3496  0.3679 -0.9578
18972THY    HP770375   3.532   4.367   6.240  1.4008  0.7489  1.3332
18972THY    CA370376   3.922   4.282   6.139  0.2617  0.6381 -0.0825
18972THY    HA370377   3.872   4.186   6.139 -0.8331 -1.4243  0.4502
18972THY    CA470378   4.050   4.284   6.085  0.1196  0.4683 -0.1632
18972THY    HA470379   4.095   4.197   6.037 -2.9617 -0.8009 -1.2233
18972THY    CA570380   4.125   4.399   6.092 -0.1261 -0.7337  0.3028
18972THY    CM170381   4.273   4.394   6.046 -0.4755  0.7585  0.1952
18972THY    HM170382   4.344   4.349   6.115  1.4398 -1.3013 -0.1338
18972THY    HM270383   4.313   4.493   6.020 -0.7319  0.6402  0.2711
18972THY    HM370384   4.292   4.333   5.957 -1.5851  0.1369  0.7193
18972THY    CA670385   4.072   4.509   6.155 -0.5244  0.2272 -0.3143
18972THY    HA670386   4.139   4.594   6.163  0.6662 -2.4435 -0.8899
18973THY      O70387   8.625   5.494   7.055 -0.1379 -0.2252 -0.0758
18973THY     HO70388   8.625   5.567   6.990 -0.5767 -1.5062 -1.1630
18973THY    CA170389   8.538   5.412   7.004 -0.2065  0.4247  0.1880
18973THY    CA270390   8.566   5.274   7.008 -0.1620  0.0113 -0.4118
18973THY    CP170391   8.652   5.218   7.120  1.1309 -0.0246  0.3888
18973THY    HP170392   8.669   5.300   7.191  0.2542  0.6226  0.0282
18973THY    CP270393   8.796   5.183   7.064 -0.0062 -0.4123 -0.7283
18973THY    HP270394   8.852   5.123   7.137  0.6828  0.1758  0.5962
18973THY    HP370395   8.852   5.276   7.047 -0.2104  2.3898 -0.0127
18973THY    HP470396   8.795   5.125   6.971 -0.3205  0.0109 -1.4175
18973THY    CP370397   8.596   5.102   7.201 -0.0047 -0.3792 -0.0009
18973THY    HP570398   8.667   5.078   7.281  1.4167 -1.0174  1.8621
18973THY    HP670399   8.582   5.007   7.148  0.6403 -0.8939  0.1844
18973THY    HP770400   8.494   5.132   7.230  0.3963 -0.0798  1.1108
18973THY    CA370401   8.489   5.188   6.940 -0.3083 -0.0778 -0.8377
18973THY    HA370402   8.507   5.081   6.945  0.9971  0.2673 -0.6234
18973THY    CA470403   8.388   5.243   6.852 -0.4678  0.1451 -0.1642
18973THY    HA470404   8.325   5.172   6.798  0.6383 -1.0301 -0.2929
18973THY    CA570405   8.360   5.379   6.836 -0.2703  0.1914 -0.6872
18973THY    CM170406   8.245   5.437   6.762 -0.6188  0.3046 -0.7448
18973THY    HM170407   8.286   5.532   6.725  0.5489  0.6109 -1.1152
18973THY    HM270408   8.155   5.451   6.824 -0.8489  0.1475 -1.4806
18973THY    HM370409   8.209   5.375   6.679 -1.3108  0.1923 -0.2148
18973THY    CA670410   8.441   5.465   6.918  0.2172 -0.1905  0.5064
18973THY    HA670411   8.420   5.571   6.914 -0.4820  2.3548  0.5526
18974THY      O70412   0.579   8.821   3.789 -0.6660 -0.0162 -0.0387
18974THY     HO70413   0.573   8.858   3.699  0.5286  0.7956  2.3402
18974THY    CA170414   0.511   8.912   3.867 -0.5272  0.1159 -0.3195
18974THY    CA270415   0.509   8.893   4.005 -0.5482  0.1665 -0.0036
18974THY    CP170416   0.570   8.763   4.067 -0.1508  0.6550 -0.1009
18974THY    HP170417   0.648   8.723   4.001 -0.4677  0.0231  0.3045
18974THY    CP270418   0.471   8.643   4.080 -0.1914 -0.1140 -0.1395
18974THY    HP270419   0.442   8.616   4.182 -1.7176  0.2739  2.5927
18974THY    HP370420   0.534   8.560   4.047  0.2571  0.7224 -0.1387
18974THY    HP470421   0.390   8.653   4.006  1.2725 -1.7174  0.3452
18974THY    CP370422   0.635   8.790   4.200  0.2111 -0.7976 -0.0799
18974THY    HP570423   0.720   8.721   4.205  0.0998 -0.9499 -0.2260
18974THY    HP670424   0.569   8.768   4.285 -0.4220 -1.5668 -1.2140
18974THY    HP770425   0.683   8.888   4.210  1.9364  0.5721 -0.9957
18974THY    CA370426   0.447   8.999   4.086  0.3558  0.5418 -0.1554
18974THY    HA370427   0.448   8.999   4.195  1.4531  0.5490  0.6726
18974THY    CA470428   0.380   9.100   4.023  0.8818  0.9300 -0.2477
18974THY    HA470429   0.331   9.176   4.084 -1.1550 -0.8433 -0.0194
18974THY    CA570430   0.388   9.114   3.884  0.5660  0.5667  0.6349
18974THY    CM170431   0.324   9.235   3.825  0.9472 -0.1420 -0.2002
18974THY    HM170432   0.218   9.249   3.848  0.2959 -2.3862 -0.9858
18974THY    HM270433   0.329   9.246   3.717  0.3371 -0.1327  0.1798
18974THY    HM370434   0.377   9.318   3.873 -2.1606  0.8477  1.3770
18974THY    CA670435   0.459   9.025   3.804  0.4498 -0.1278  0.3365
18974THY    HA670436   0.469   9.040   3.697  0.5437 -0.6171 -2.6194
18975THY      O70437   6.108   3.828   4.482 -0.4589 -0.0712 -0.0541
18975THY     HO70438   6.169   3.836   4.558 -1.7364  0.9404  0.4717
18975THY    CA170439   6.084   3.695   4.467  1.0499  0.0694  0.4622
18975THY    CA270440   5.957   3.639   4.500 -0.5197 -0.2337 -0.0322
18975THY    CP170441   5.836   3.727   4.516 -0.5797 -0.1516  0.1258
18975THY    HP170442   5.855   3.818   4.458 -1.9743 -0.2238  0.3940
18975THY    CP270443   5.805   3.757   4.661 -0.6094 -0.4603 -0.0376
18975THY    HP270444   5.808   3.668   4.724  2.5347  0.4312  0.5549
18975THY    HP370445   5.707   3.806   4.662 -1.0392  0.3193 -0.8925
18975THY    HP470446   5.886   3.823   4.694 -0.6645 -0.0685 -0.1674
18975THY    CP370447   5.711   3.670   4.448 -0.2486 -0.2306 -0.0805
18975THY    HP570448   5.641   3.754   4.435 -0.3375 -1.0304 -0.2717
18975THY    HP670449   5.681   3.568   4.475  3.5763  0.1857 -1.2310
18975THY    HP770450   5.732   3.652   4.342  1.2957  0.2029 -0.9423
18975THY    CA370451   5.952   3.496   4.515  0.0145 -0.1387  0.1005
18975THY    HA370452   5.862   3.449   4.554 -0.3427  1.7911  2.2255
18975THY    CA470453   6.068   3.418   4.482  1.0823  0.0340  0.3489
18975THY    HA470454   6.066   3.310   4.497  0.0876  1.5226  0.5369
18975THY    CA570455   6.186   3.483   4.448  0.8316  0.6189 -0.3149
18975THY    CM170456   6.311   3.406   4.407  0.3728  0.0234  0.5873
18975THY    HM170457   6.298   3.385   4.300 -1.1394  0.4025 -0.6252
18975THY    HM270458   6.314   3.308   4.456 -0.1929 -1.7534 -0.3772
18975THY    HM370459   6.408   3.453   4.427  1.0202 -2.3869  0.4040
18975THY    CA670460   6.193   3.618   4.437  0.8875  0.0071 -0.2669
18975THY    HA670461   6.289   3.668   4.434  1.0539  0.5574 -0.5428
18976THY      O70462   0.176   7.117   4.894 -0.1028  0.4181  0.1530
18976THY     HO70463   0.148   7.051   4.960 -0.9915 -2.4608 -2.5780
18976THY    CA170464   0.223   7.228   4.961 -0.3943  0.7050  0.3811
18976THY    CA270465   0.277   7.338   4.894 -0.2953  0.1260  0.0171
18976THY    CP170466   0.310   7.340   4.746  0.7614  0.0362  0.0943
18976THY    HP170467   0.253   7.261   4.697  2.9781 -0.0174 -1.5798
18976THY    CP270468   0.458   7.299   4.734  0.5925 -0.2693 -0.1789
18976THY    HP270469   0.470   7.196   4.768 -2.5896  2.9127  0.2680
18976THY    HP370470   0.518   7.370   4.792  1.7376  0.2328 -1.5135
18976THY    HP470471   0.490   7.315   4.631 -1.6838 -1.1656 -0.9917
18976THY    CP370472   0.287   7.478   4.679  0.1188 -0.2087 -0.1226
18976THY    HP570473   0.384   7.529   4.687 -0.1805 -0.7186  0.5399
18976THY    HP670474   0.197   7.523   4.722  1.3412  2.4580 -0.0244
18976THY    HP770475   0.260   7.470   4.573  0.1493 -0.1585 -1.0204
18976THY    CA370476   0.321   7.446   4.969 -0.2581  0.1158 -0.0220
18976THY    HA370477   0.368   7.534   4.926 -0.7279 -0.5057 -0.0699
18976THY    CA470478   0.301   7.450   5.107 -0.1059  0.7501  0.0896
18976THY    HA470479   0.326   7.529   5.176  0.9037  1.3945 -0.7623
18976THY    CA570480   0.238   7.343   5.164 -0.4549 -0.2883  0.7793
18976THY    CM170481   0.213   7.332   5.311 -0.6536  0.4459  0.4385
18976THY    HM170482   0.126   7.393   5.338 -0.9847 -0.0784  0.2087
18976THY    HM270483   0.294   7.377   5.370  0.3571 -2.5141  2.8753
18976THY    HM370484   0.181   7.232   5.343  1.2462 -0.7279 -0.5971
18976THY    CA670485   0.196   7.232   5.093  0.7860  0.7025  0.2931
18976THY    HA670486   0.159   7.138   5.131 -1.4192 -0.4390  0.6313
18977THY      O70487   5.599   2.733   5.315  0.3852 -0.0929 -0.7588
18977THY     HO70488   5.646   2.694   5.391 -1.3688  1.7768  0.5646
18977THY    CA170489   5.602   2.863   5.342  0.4212  0.1522 -0.4942
18977THY    CA270490   5.598   2.974   5.247 -0.2170 -0.0024  0.3535
18977THY    CP170491   5.598   2.934   5.094  0.1606  0.0758  0.3569
18977THY    HP170492   5.524   2.855   5.083  0.6026  0.9000 -0.1798
18977THY    CP270493   5.738   2.888   5.050 -0.2507 -0.3408 -0.0316
18977THY    HP270494   5.784   2.811   5.113 -0.7339 -2.3120 -2.0251
18977THY    HP370495   5.802   2.976   5.061  1.2815  2.3292 -1.3394
18977THY    HP470496   5.728   2.843   4.951 -1.1152  0.4320 -1.6618
18977THY    CP370497   5.558   3.043   5.002 -0.2793 -0.3895 -0.2238
18977THY    HP570498   5.544   3.002   4.902 -3.1006 -1.3113  2.5761
18977THY    HP670499   5.629   3.124   4.982 -0.1406  0.8609 -0.0051
18977THY    HP770500   5.457   3.077   5.031 -0.1092  1.4773 -1.1959
18977THY    CA370501   5.606   3.107   5.288 -0.1102  0.3098 -0.1092
18977THY    HA370502   5.613   3.191   5.219  2.3043  0.9499  0.3043
18977THY    CA470503   5.623   3.130   5.429  0.7776 -0.4685 -0.1987
18977THY    HA470504   5.629   3.231   5.467 -1.8817 -0.1402 -0.0704
18977THY    CA570505   5.620   3.025   5.522 -0.3620 -0.3652 -0.2412
18977THY    CM170506   5.614   3.065   5.667  0.1367 -0.1028  0.0075
18977THY    HM170507   5.697   3.025   5.726 -0.3533 -0.4162 -1.5463
18977THY    HM270508   5.523   3.018   5.706 -1.0118 -3.4152 -0.7874
18977THY    HM370509   5.593   3.171   5.685 -0.3322  1.9731 -0.3995
18977THY    CA670510   5.613   2.891   5.481  0.6604 -0.7831  0.1993
18977THY    HA670511   5.624   2.815   5.558 -0.3330 -1.5636 -0.7661
18978THY      O70512   4.441   9.189   5.755  0.3167 -0.2935  0.3033
18978THY     HO70513   4.443   9.279   5.793  0.4307  1.2178 -0.3151
18978THY    CA170514   4.491   9.198   5.635 -0.0678  0.2588 -0.2698
18978THY    CA270515   4.463   9.105   5.534  0.2087  0.1513  0.4559
18978THY    CP170516   4.362   8.983   5.556 -0.0365 -0.5167  0.2705
18978THY    HP170517   4.324   8.999   5.657 -1.7679 -0.8992 -1.1295
18978THY    CP270518   4.445   8.845   5.560 -0.2163  0.4107 -0.2457
18978THY    HP270519   4.369   8.766   5.556  0.2181  1.4125 -0.7317
18978THY    HP370520   4.518   8.833   5.641  1.8930 -1.6421 -2.5266
18978THY    HP470521   4.500   8.824   5.467 -1.5661 -1.0362  2.1053
18978THY    CP370522   4.242   8.980   5.460  0.3980  0.6395  0.4915
18978THY    HP570523   4.251   8.901   5.384  0.6646 -1.5646  2.5048
18978THY    HP670524   4.232   9.076   5.408  0.6547 -1.5497 -0.6094
18978THY    HP770525   4.154   8.956   5.520  1.0327  0.8157 -1.5887
18978THY    CA370526   4.523   9.118   5.407  0.0188  0.0274  0.3700
18978THY    HA370527   4.505   9.057   5.320 -1.0110 -1.8972  3.1954
18978THY    CA470528   4.606   9.228   5.388 -0.2900  0.0262  0.1937
18978THY    HA470529   4.649   9.239   5.289  1.3620  0.9469  2.7309
18978THY    CA570530   4.645   9.312   5.486 -0.4443 -0.4180  0.1423
18978THY    CM170531   4.755   9.403   5.465 -0.9078  0.1812  0.1740
18978THY    HM170532   4.844   9.363   5.514 -0.3274 -0.7800  0.2397
18978THY    HM270533   4.725   9.493   5.521 -0.8125 -0.6064  0.7067
18978THY    HM370534   4.784   9.430   5.363 -0.5316  0.8619  2.6122
18978THY    CA670535   4.582   9.300   5.609 -0.5486 -0.4472 -0.1271
18978THY    HA670536   4.622   9.376   5.675  2.6852 -1.6501 -0.6208
18979THY      O70537   5.209   7.213   6.415 -0.2016 -0.1886 -0.1185
18979THY     HO70538   5.138   7.274   6.440  0.4298  0.3641  0.4111
18979THY    CA170539   5.161   7.137   6.319 -0.2147 -0.3796 -0.6499
18979THY    CA270540   5.230   7.032   6.265  0.6727 -0.3340  0.7592
18979THY    CP170541   5.371   7.000   6.306 -0.1950 -0.6567 -0.4418
18979THY    HP170542   5.399   7.063   6.390  1.3102 -0.5276 -1.2227
18979THY    CP270543   5.479   7.037   6.200 -0.4337  0.5953  0.5331
18979THY    HP270544   5.573   7.007   6.247  0.6975 -0.8349  1.7080
18979THY    HP370545   5.476   7.145   6.185  0.2671  1.0943  0.6324
18979THY    HP470546   5.465   6.974   6.112  1.0088  1.6850 -1.4251
18979THY    CP370547   5.379   6.856   6.363  0.4884 -0.7250 -0.1161
18979THY    HP570548   5.426   6.864   6.462 -2.3539  0.7973 -0.7608
18979THY    HP670549   5.425   6.783   6.296 -1.4730 -0.8697 -1.2816
18979THY    HP770550   5.277   6.822   6.383 -0.4566  2.2835  3.7197
18979THY    CA370551   5.168   6.933   6.180 -1.1888  0.1105  0.2708
18979THY    HA370552   5.226   6.849   6.144  1.6160  0.0830  2.0686
18979THY    CA470553   5.037   6.952   6.150  0.3658 -0.0418  0.1114
18979THY    HA470554   4.989   6.879   6.085  0.4572 -0.6072  0.5503
18979THY    CA570555   4.967   7.063   6.203  0.4287 -0.2660  0.4777
18979THY    CM170556   4.818   7.083   6.182 -0.0263 -0.5828  0.2274
18979THY    HM170557   4.812   7.151   6.097  0.7609 -0.8822 -0.0724
18979THY    HM270558   4.765   7.124   6.269 -0.0438  0.1041 -1.1764
18979THY    HM370559   4.764   6.992   6.152 -2.0799 -0.1371  1.2371
18979THY    CA670560   5.028   7.158   6.287 -0.7666  0.5304 -0.0860
18979THY    HA670561   4.968   7.238   6.330  1.6487 -0.7005  2.5692
18980THY      O70562   5.732   7.768   7.005  0.6876 -0.4081  0.3276
18980THY     HO70563   5.816   7.799   7.045 -0.2663  1.4671  0.6293
18980THY    CA170564   5.695   7.662   7.084 -0.0071  0.5189 -0.7128
18980THY    CA270565   5.558   7.619   7.115  0.3251 -0.1769 -0.1986
18980THY    CP170566   5.438   7.685   7.039  0.1386 -0.1238 -0.4617
18980THY    HP170567   5.458   7.793   7.034  1.6336  0.8983 -0.6583
18980THY    CP270568   5.306   7.674   7.118 -0.3700  0.0031 -0.0216
18980THY    HP270569   5.306   7.732   7.211  2.1294  1.3461 -1.9520
18980THY    HP370570   5.274   7.574   7.152 -1.1935  0.9459  0.5398
18980THY    HP470571   5.218   7.704   7.060 -1.6168  1.8467  0.0778
18980THY    CP370572   5.426   7.617   6.896 -0.7677 -0.5879  0.1238
18980THY    HP570573   5.321   7.592   6.876 -0.5425 -0.0353 -1.3909
18980THY    HP670574   5.478   7.522   6.878 -0.6273 -0.7648  0.2356
18980THY    HP770575   5.462   7.686   6.819 -0.8236 -1.0517 -0.3584
18980THY    CA370576   5.535   7.512   7.201  0.0199 -0.3638 -0.4486
18980THY    HA370577   5.438   7.478   7.238 -0.4434  0.3923  1.5336
18980THY    CA470578   5.642   7.450   7.259 -0.4541 -0.6956 -0.0324
18980THY    HA470579   5.635   7.381   7.342 -0.3893  1.1164  2.0534
18980THY    CA570580   5.770   7.490   7.234 -0.3785  0.2954  0.5057
18980THY    CM170581   5.893   7.419   7.292  0.1117 -0.3093  0.1390
18980THY    HM170582   5.957   7.379   7.212 -0.3385 -0.8042  0.3871
18980THY    HM270583   5.858   7.330   7.346  1.4651  1.3993  0.6003
18980THY    HM370584   5.940   7.474   7.374  0.7933  1.5541 -2.9916
18980THY    CA670585   5.800   7.603   7.152  0.6287 -0.0189  0.5354
18980THY    HA670586   5.904   7.631   7.140  0.7849 -0.1926 -0.0934
18981THY      O70587   3.101   7.074   6.182 -0.7353 -0.5554  0.0705
18981THY     HO70588   3.110   6.996   6.238 -1.7734 -0.9885 -0.3766
18981THY    CA170589   3.221   7.087   6.110 -0.0682  0.5870  0.7874
18981THY    CA270590   3.244   7.180   6.007 -0.0944 -0.3182  0.2530
18981THY    CP170591   3.136   7.281   5.976 -0.6324  0.3133  0.5535
18981THY    HP170592   3.035   7.241   5.989 -1.0533  0.3383  1.5958
18981THY    CP270593   3.137   7.319   5.825 -0.2709  0.3698 -0.4558
18981THY    HP270594   3.051   7.383   5.801 -0.4069 -0.2514 -0.8706
18981THY    HP370595   3.139   7.235   5.754  0.3465  0.1647 -0.2712
18981THY    HP470596   3.221   7.386   5.806 -1.0445  1.1397  0.7697
18981THY    CP370597   3.155   7.396   6.066  0.5110  0.6654  0.4728
18981THY    HP570598   3.261   7.422   6.077  0.4848 -1.2367  1.5684
18981THY    HP670599   3.122   7.351   6.160  0.3538 -0.0309 -0.9401
18981THY    HP770600   3.080   7.469   6.032 -2.6674  1.0346 -2.3762
18981THY    CA370601   3.367   7.181   5.940  0.2446  0.0527 -0.9564
18981THY    HA370602   3.387   7.256   5.864 -1.5215 -1.8126 -2.2664
18981THY    CA470603   3.469   7.100   5.986 -0.0521 -0.1225  0.3618
18981THY    HA470604   3.570   7.105   5.947 -0.0487 -0.0861  0.5714
18981THY    CA570605   3.449   7.002   6.085 -0.0878 -0.0832 -0.5254
18981THY    CM170606   3.568   6.907   6.110 -0.6049 -0.6233  0.0308
18981THY    HM170607   3.532   6.823   6.170  1.0146 -1.5733 -1.4098
18981THY    HM270608   3.654   6.962   6.150 -0.4899 -1.0665  0.1751
18981THY    HM370609   3.602   6.867   6.014 -0.0372 -0.3204 -0.2189
18981THY    CA670610   3.323   6.996   6.146 -0.4708 -0.5707 -0.4835
18981THY    HA670611   3.310   6.923   6.226 -1.5261 -0.4325 -0.1612
18982THY      O70612   3.059   2.533   6.812 -0.8196 -0.8733  0.4038
18982THY     HO70613   3.089   2.487   6.732  0.5702 -0.7703  1.0653
18982THY    CA170614   2.934   2.581   6.795  0.4317 -0.5389 -0.4470
18982THY    CA270615   2.889   2.700   6.856 -0.1715  0.2668  0.9477
18982THY    CP170616   2.977   2.772   6.952  0.0691 -0.3742  0.4809
18982THY    HP170617   3.075   2.726   6.971  0.6248 -0.4000  1.6151
18982THY    CP270618   2.926   2.782   7.094  0.0563 -0.4557 -0.4371
18982THY    HP270619   2.994   2.826   7.167 -2.7864  0.3180  3.2266
18982THY    HP370620   2.888   2.685   7.129 -2.1313  1.3583  0.9736
18982THY    HP470621   2.833   2.841   7.100 -0.0787 -1.5083 -0.5177
18982THY    CP370622   2.995   2.915   6.901 -0.9248  0.1926 -0.7791
18982THY    HP570623   3.055   2.979   6.966 -0.4615 -2.8715  2.1990
18982THY    HP670624   2.900   2.962   6.874 -1.3612  1.9550 -0.5988
18982THY    HP770625   3.056   2.910   6.809 -0.3674  0.5518 -0.6690
18982THY    CA370626   2.751   2.740   6.824  0.3570  0.4638 -0.3726
18982THY    HA370627   2.714   2.817   6.891  0.3454  1.6654 -1.4013
18982THY    CA470628   2.671   2.665   6.740  0.0349 -0.6094 -0.7085
18982THY    HA470629   2.571   2.700   6.716  0.7005 -2.1488  0.2233
18982THY    CA570630   2.719   2.548   6.689  0.6408  0.5084  0.2973
18982THY    CM170631   2.631   2.462   6.599  0.4083  0.3641  0.5147
18982THY    HM170632   2.522   2.458   6.609  0.2004 -1.7702 -0.9297
18982THY    HM270633   2.662   2.357   6.608 -0.0981  1.8348  0.4668
18982THY    HM370634   2.645   2.493   6.495 -0.6270 -0.2816 -1.0622
18982THY    CA670635   2.856   2.511   6.706 -0.7025 -0.1107  0.9648
18982THY    HA670636   2.898   2.421   6.662  1.1467  0.3432  1.5760
18983THY      O70637   0.695   7.964   6.688 -0.0412  0.8598 -0.5806
18983THY     HO70638   0.643   8.033   6.644  0.5820  0.8582 -0.0967
18983THY    CA170639   0.746   8.001   6.803 -0.6005 -0.0558 -0.4037
18983THY    CA270640   0.833   7.921   6.879 -0.3020 -0.6815  0.0188
18983THY    CP170641   0.885   7.786   6.811  0.7365  0.0950 -0.6403
18983THY    HP170642   0.814   7.747   6.737 -0.4441  1.2099 -0.7106
18983THY    CP270643   0.902   7.670   6.910  0.2461  0.0872  0.0333
18983THY    HP270644   0.975   7.705   6.984  2.1568 -2.2811  1.3895
18983THY    HP370645   0.943   7.582   6.860  0.3515  0.2724 -0.0221
18983THY    HP470646   0.800   7.645   6.942  0.4981  0.9281  0.0638
18983THY    CP370647   1.026   7.800   6.743 -0.2556  0.0487 -0.0078
18983THY    HP570648   1.046   7.709   6.685  0.4993  2.1495 -1.2442
18983THY    HP670649   1.116   7.811   6.805  0.4379 -0.9215 -0.0362
18983THY    HP770650   1.034   7.881   6.669  1.1819 -0.3114 -0.4383
18983THY    CA370651   0.874   7.964   7.009 -0.0163 -0.3009 -0.3766
18983THY    HA370652   0.944   7.903   7.065 -2.5693 -0.5677 -3.8532
18983THY    CA470653   0.832   8.092   7.049 -0.0840 -0.0596  0.1971
18983THY    HA470654   0.859   8.138   7.144 -0.1776 -0.2272  0.5984
18983THY    CA570655   0.743   8.171   6.972 -0.1048  0.3027  0.0865
18983THY    CM170656   0.706   8.310   7.014 -0.5652 -0.1264 -0.7378
18983THY    HM170657   0.783   8.381   6.981 -0.1103  1.1619 -0.6062
18983THY    HM270658   0.691   8.317   7.122 -1.8102 -0.3881  1.6618
18983THY    HM370659   0.614   8.343   6.965  0.7551 -1.4911  1.1784
18983THY    CA670660   0.706   8.126   6.850  0.0589  0.3652 -0.3350
18983THY    HA670661   0.649   8.191   6.785  0.6391 -0.4846 -0.6498
18984THY      O70662   2.547   4.068   5.121  0.2680 -0.1801 -0.2124
18984THY     HO70663   2.600   4.145   5.146  2.7558 -0.4518 -1.6878
18984THY    CA170664   2.514   4.007   5.233 -0.3719  0.0556  0.6093
18984THY    CA270665   2.386   3.974   5.260  0.8230 -0.0232  0.5141
18984THY    CP170666   2.282   3.983   5.151  0.3736  0.3351  0.3501
18984THY    HP170667   2.312   4.042   5.063 -1.3158  1.0747  2.4626
18984THY    CP270668   2.156   4.055   5.204 -0.4971  0.3695  0.0105
18984THY    HP270669   2.094   4.070   5.115  0.1022 -0.3719 -1.6606
18984THY    HP370670   2.180   4.152   5.249 -0.7063 -0.0750  0.2736
18984THY    HP470671   2.091   3.988   5.263 -2.6243  0.4637  2.0353
18984THY    CP370672   2.252   3.847   5.110  0.8564  0.0590  0.2164
18984THY    HP570673   2.343   3.809   5.062 -0.3132 -0.8651 -1.5356
18984THY    HP670674   2.178   3.844   5.029  0.7163  0.1502  0.9468
18984THY    HP770675   2.218   3.777   5.188 -0.6423 -1.8400 -1.2835
18984THY    CA370676   2.353   3.922   5.388  0.2087 -0.7214 -0.3846
18984THY    HA370677   2.248   3.895   5.394 -0.4775 -1.2187  1.9083
18984THY    CA470678   2.447   3.916   5.490  0.5837  0.0520 -0.3840
18984THY    HA470679   2.413   3.887   5.589  0.3411  0.3306  0.7650
18984THY    CA570680   2.578   3.948   5.456 -0.0229  0.4998 -0.6495
18984THY    CM170681   2.687   3.949   5.560 -0.3463  0.1440 -0.0009
18984THY    HM170682   2.732   4.049   5.552 -1.1291 -3.5350  0.1882
18984THY    HM270683   2.763   3.873   5.539  0.1300 -0.5212  0.6425
18984THY    HM370684   2.648   3.922   5.659  0.5269  0.8084  1.0734
18984THY    CA670685   2.613   3.978   5.323 -0.1976 -0.6215 -0.6135
18984THY    HA670686   2.714   4.003   5.290 -0.8307 -2.0709  0.1978
   9.60500   9.60500   9.60500
