Molecule generated using the PoreMS package
24486
    1OM     OM1    1   3.802   0.273   2.983
    2OM     OM1    2   3.885   0.429   2.800
    3OM     OM1    3   3.694   0.513   2.956
    4OM     OM1    4   3.932   0.492   3.054
    5OM     OM1    5   3.604   1.241   6.494
    6OM     OM1    6   3.832   1.330   6.426
    7OM     OM1    7   5.982   8.850   5.574
    8OM     OM1    8   6.188   8.854   5.415
    9OM     OM1    9   6.213   8.872   5.678
   10OM     OM1   10   6.104   9.071   5.556
   11OM     OM1   11   5.061   1.221   3.626
   12OM     OM1   12   4.864   1.054   3.595
   13OM     OM1   13   4.915   1.153   3.832
   14OM     OM1   14   8.973   9.431   4.194
   15OM     OM1   15   8.921   9.354   3.940
   16OM     OM1   16   8.731   9.402   4.104
   17OM     OM1   17   8.879   9.197   4.148
   18OM     OM1   18   5.240   1.209   9.191
   19OM     OM1   19   0.775   1.423   5.026
   20OM     OM1   20   0.623   1.272   4.880
   21OM     OM1   21   0.800   1.408   4.763
   22OM     OM1   22   5.851   1.103   6.763
   23OM     OM1   23   5.642   1.136   6.899
   24OM     OM1   24   5.807   1.325   6.891
   25OM     OM1   25   5.860   1.094   7.028
   26OM     OM1   26   1.676   0.783   0.657
   27OM     OM1   27   1.736   0.585   0.820
   28OM     OM1   28   1.540   0.746   0.882
   29OM     OM1   29   1.780   0.845   0.879
   30OM     OM1   30   7.849   8.421   5.850
   31OM     OM1   31   7.985   8.263   6.014
   32OM     OM1   32   8.098   8.471   5.912
   33OM     OM1   33   8.628   0.217   6.176
   34OM     OM1   34   8.779   0.411   6.098
   35OM     OM1   35   8.879   0.168   6.157
   36OM     OM1   36   8.789   0.336   6.343
   37OM     OM1   37   3.322   9.495   6.641
   38OM     OM1   38   3.547   9.443   6.744
   39OM     OM1   39   3.343   9.543   6.889
   40OM     OM1   40   3.363   9.296   6.841
   41OM     OM1   41   1.367   9.419   3.048
   42OM     OM1   42   1.338   0.050   2.942
   43OM     OM1   43   1.158   9.552   3.115
   44OM     OM1   44   1.394   0.029   3.195
   45OM     OM1   45   8.070   8.354   0.953
   46OM     OM1   46   7.824   8.403   0.977
   47OM     OM1   47   7.945   8.390   1.199
   48OM     OM1   48   8.003   8.588   1.037
   49OM     OM1   49   1.547   9.196   8.029
   50OM     OM1   50   1.334   9.246   8.153
   51OM     OM1   51   1.366   9.004   8.058
   52OM     OM1   52   1.521   9.074   8.256
   53OM     OM1   53   7.057   8.859   6.501
   54OM     OM1   54   6.858   8.726   6.394
   55OM     OM1   55   7.019   8.608   6.571
   56OM     OM1   56   6.844   8.788   6.643
   57OM     OM1   57   3.872   0.005   1.024
   58OM     OM1   58   3.860   0.266   1.011
   59OM     OM1   59   3.972   0.139   1.210
   60OM     OM1   60   3.714   0.148   1.197
   61OM     OM1   61   1.819   8.277   1.420
   62OM     OM1   62   1.904   8.489   1.546
   63OM     OM1   63   1.774   8.524   1.339
   64OM     OM1   64   1.641   8.424   1.538
   65OM     OM1   65   1.223   8.350   3.136
   66OM     OM1   66   1.481   8.265   3.129
   67OM     OM1   67   1.416   8.505   3.199
   68OM     OM1   68   0.971   1.307   2.326
   69OM     OM1   69   0.716   1.363   2.352
   70OM     OM1   70   4.139   0.306   4.598
   71OM     OM1   71   4.191   0.052   4.691
   72OM     OM1   72   3.991   0.084   4.544
   73OM     OM1   73   4.234   0.122   4.449
   74OM     OM1   74   4.776   1.192   0.132
   75OM     OM1   75   4.949   1.238   9.547
   76OM     OM1   76   4.835   0.998   9.573
   77OM     OM1   77   4.702   1.216   9.489
   78OM     OM1   78   3.653   8.624   3.941
   79OM     OM1   79   3.551   8.622   4.179
   80OM     OM1   80   3.785   8.699   4.156
   81OM     OM1   81   3.608   8.858   4.054
   82OM     OM1   82   3.015   0.738   0.836
   83OM     OM1   83   2.765   0.710   0.901
   84OM     OM1   84   2.904   0.903   1.014
   85OM     OM1   85   2.942   0.656   1.075
   86OM     OM1   86   5.584   0.276   1.997
   87OM     OM1   87   5.938   0.549   1.806
   88OM     OM1   88   5.810   0.406   1.991
   89OM     OM1   89   6.031   0.314   1.875
   90OM     OM1   90   8.893   1.299   3.879
   91OM     OM1   91   8.870   1.214   4.125
   92OM     OM1   92   8.667   1.336   4.015
   93OM     OM1   93   0.226   9.077   1.506
   94OM     OM1   94   0.354   9.290   1.605
   95OM     OM1   95   0.462   9.150   1.420
   96OM     OM1   96   0.250   9.280   1.361
   97OM     OM1   97   5.872   9.564   1.390
   98OM     OM1   98   5.679   9.419   1.502
   99OM     OM1   99   5.830   9.303   1.332
  100OM     OM1  100   5.661   9.491   1.256
  101OM     OM1  101   0.572   0.300   3.154
  102OM     OM1  102   0.338   0.305   3.258
  103OM     OM1  103   0.403   0.112   3.094
  104OM     OM1  104   0.373   0.358   2.995
  105OM     OM1  105   0.400   0.499   2.090
  106OM     OM1  106   0.563   0.399   2.271
  107OM     OM1  107   0.590   0.647   2.193
  108OM     OM1  108   0.646   0.452   2.025
  109OM     OM1  109   7.637   0.471   5.051
  110OM     OM1  110   7.650   0.244   5.169
  111OM     OM1  111   7.488   0.420   5.263
  112OM     OM1  112   7.429   0.309   5.034
  113OM     OM1  113   9.540   9.184   0.195
  114OM     OM1  114   9.300   9.254   0.234
  115OM     OM1  115   9.455   9.441   0.150
  116OM     OM1  116   9.400   9.246   9.594
  117OM     OM1  117   4.084   9.557   2.263
  118OM     OM1  118   3.867   9.432   2.369
  119OM     OM1  119   4.106   9.419   2.462
  120OM     OM1  120   3.968   0.045   2.477
  121OM     OM1  121   1.115   1.307   2.547
  122OM     OM1  122   1.181   1.336   2.799
  123OM     OM1  123   0.591   8.355   6.835
  124OM     OM1  124   0.524   8.419   7.077
  125OM     OM1  125   0.355   8.286   6.951
  126OM     OM1  126   5.383   8.952   5.213
  127OM     OM1  127   5.584   9.076   5.105
  128OM     OM1  128   5.379   9.211   5.207
  129OM     OM1  129   5.349   9.069   4.987
  130OM     OM1  130   6.070   9.246   8.666
  131OM     OM1  131   5.954   9.091   8.843
  132OM     OM1  132   6.145   8.991   8.700
  133OM     OM1  133   5.913   9.054   8.589
  134OM     OM1  134   5.833   9.161   5.151
  135OM     OM1  135   5.779   9.074   4.919
  136OM     OM1  136   5.664   9.292   5.001
  137OM     OM1  137   1.291   1.262   5.071
  138OM     OM1  138   1.526   1.183   5.031
  139OM     OM1  139   1.430   1.167   5.275
  140OM     OM1  140   0.504   8.704   3.714
  141OM     OM1  141   0.580   8.751   3.962
  142OM     OM1  142   0.546   8.511   3.897
  143OM     OM1  143   0.745   8.641   3.786
  144OM     OM1  144   6.183   8.600   2.314
  145OM     OM1  145   6.079   8.362   2.282
  146OM     OM1  146   6.272   8.455   2.121
  147OM     OM1  147   6.314   8.368   2.367
  148OM     OM1  148   2.487   0.628   3.401
  149OM     OM1  149   2.182   0.300   3.435
  150OM     OM1  150   2.437   0.365   3.449
  151OM     OM1  151   2.363   0.112   3.449
  152OM     OM1  152   7.793   0.247   1.409
  153OM     OM1  153   7.579   0.155   1.487
  154OM     OM1  154   7.721   0.262   1.677
  155OM     OM1  155   7.624   0.421   1.504
  156OM     OM1  156   9.081   0.029   4.290
  157OM     OM1  157   8.916   9.516   4.442
  158OM     OM1  158   9.133   9.373   4.383
  159OM     OM1  159   4.999   9.019   2.474
  160OM     OM1  160   5.001   8.799   2.950
  161OM     OM1  161   5.065   8.732   2.696
  162OM     OM1  162   5.088   8.977   2.775
  163OM     OM1  163   8.202   0.579   7.601
  164OM     OM1  164   8.168   0.675   7.350
  165OM     OM1  165   8.288   0.813   7.537
  166OM     OM1  166   8.029   0.768   7.547
  167OM     OM1  167   1.535   8.604   1.299
  168OM     OM1  168   1.692   8.472   1.115
  169OM     OM1  169   1.727   8.724   1.164
  170OM     OM1  170   0.812   0.542   1.844
  171OM     OM1  171   0.784   0.786   1.928
  172OM     OM1  172   0.803   0.745   1.677
  173OM     OM1  173   1.018   0.708   1.841
  174OM     OM1  174   5.931   1.027   0.035
  175OM     OM1  175   5.814   1.055   0.254
  176OM     OM1  176   5.943   0.826   0.196
  177OM     OM1  177   5.715   0.876   0.094
  178OM     OM1  178   4.793   1.352   7.092
  179OM     OM1  179   4.697   1.188   7.267
  180OM     OM1  180   5.520   1.090   6.370
  181OM     OM1  181   5.299   1.040   6.238
  182OM     OM1  182   5.532   0.903   6.199
  183OM     OM1  183   5.383   0.867   6.406
  184OM     OM1  184   5.559   0.585   3.438
  185OM     OM1  185   5.398   0.410   3.320
  186OM     OM1  186   5.655   0.377   3.329
  187OM     OM1  187   5.540   0.566   3.178
  188OM     OM1  188   7.310   0.301   6.443
  189OM     OM1  189   7.319   0.283   6.705
  190OM     OM1  190   7.362   0.076   6.556
  191OM     OM1  191   7.119   0.177   6.571
  192OM     OM1  192   6.363   1.248   2.511
  193OM     OM1  193   8.654   0.467   0.792
  194OM     OM1  194   8.924   0.521   0.776
  195OM     OM1  195   8.759   0.648   0.929
  196OM     OM1  196   8.761   0.677   0.664
  197OM     OM1  197   7.182   9.016   3.343
  198OM     OM1  198   7.149   9.272   3.388
  199OM     OM1  199   7.361   9.150   3.476
  200OM     OM1  200   7.122   9.112   3.583
  201OM     OM1  201   3.453   0.779   3.847
  202OM     OM1  202   3.345   0.973   3.705
  203OM     OM1  203   3.502   0.803   3.602
  204OM     OM1  204   3.484   1.156   3.585
  205OM     OM1  205   2.434   1.305   2.307
  206OM     OM1  206   2.383   0.889   2.604
  207OM     OM1  207   2.369   1.117   2.480
  208OM     OM1  208   2.573   1.061   2.642
  209OM     OM1  209   3.466   0.332   8.084
  210OM     OM1  210   3.399   0.242   7.844
  211OM     OM1  211   3.243   0.415   7.974
  212OM     OM1  212   3.475   0.478   7.861
  213OM     OM1  213   7.074   9.401   5.181
  214OM     OM1  214   7.293   9.531   5.119
  215OM     OM1  215   7.447   9.326   5.070
  216OM     OM1  216   7.391   9.492   4.877
  217OM     OM1  217   7.914   8.574   1.375
  218OM     OM1  218   8.078   8.549   1.571
  219OM     OM1  219   8.139   8.711   1.384
  220OM     OM1  220   7.936   8.771   1.545
  221OM     OM1  221   8.608   8.261   8.977
  222OM     OM1  222   8.515   8.363   9.220
  223OM     OM1  223   8.483   8.482   8.987
  224OM     OM1  224   6.421   0.066   3.457
  225OM     OM1  225   6.335   9.548   3.241
  226OM     OM1  226   6.219   0.153   3.324
  227OM     OM1  227   6.188   9.537   3.452
  228OM     OM1  228   7.103   0.759   0.391
  229OM     OM1  229   6.987   0.950   0.530
  230OM     OM1  230   7.119   0.757   0.648
  231OM     OM1  231   6.886   0.715   0.540
  232OM     OM1  232   7.489   1.217   5.682
  233OM     OM1  233   7.334   1.246   5.473
  234OM     OM1  234   7.230   1.184   5.710
  235OM     OM1  235   6.350   0.439   0.966
  236OM     OM1  236   6.448   0.618   0.804
  237OM     OM1  237   6.218   0.506   0.764
  238OM     OM1  238   6.239   0.685   0.954
  239OM     OM1  239   3.460   8.257   1.191
  240OM     OM1  240   3.515   8.454   1.357
  241OM     OM1  241   3.699   8.305   1.255
  242OM     OM1  242   2.805   8.416   1.571
  243OM     OM1  243   2.576   8.447   1.454
  244OM     OM1  244   2.795   8.454   1.312
  245OM     OM1  245   9.522   1.457   1.010
  246OM     OM1  246   8.748   9.171   5.838
  247OM     OM1  247   8.506   9.138   5.953
  248OM     OM1  248   8.673   8.947   5.953
  249OM     OM1  249   8.727   9.156   6.096
  250OM     OM1  250   8.103   0.978   4.849
  251OM     OM1  251   8.139   1.023   5.174
  252OM     OM1  252   8.034   0.784   5.183
  253OM     OM1  253   8.241   0.844   5.035
  254OM     OM1  254   8.497   1.180   1.884
  255OM     OM1  255   8.442   1.226   1.632
  256OM     OM1  256   6.318   8.936   1.387
  257OM     OM1  257   6.251   9.131   1.549
  258OM     OM1  258   6.487   9.019   1.569
  259OM     OM1  259   6.265   8.882   1.627
  260OM     OM1  260   9.027   8.352   6.910
  261OM     OM1  261   9.212   8.545   6.856
  262OM     OM1  262   9.197   8.331   6.711
  263OM     OM1  263   9.274   8.319   6.966
  264OM     OM1  264   7.966   9.251   2.439
  265OM     OM1  265   8.083   9.147   2.641
  266OM     OM1  266   8.068   9.405   2.629
  267OM     OM1  267   7.854   9.260   2.681
  268OM     OM1  268   9.315   9.321   5.962
  269OM     OM1  269   9.338   9.194   6.186
  270OM     OM1  270   9.196   9.087   6.001
  271OM     OM1  271   9.113   9.308   6.131
  272OM     OM1  272   8.542   8.373   2.762
  273OM     OM1  273   8.608   8.538   2.559
  274OM     OM1  274   8.795   8.399   2.697
  275OM     OM1  275   5.282   0.706   3.521
  276OM     OM1  276   5.337   0.941   3.631
  277OM     OM1  277   5.302   0.729   3.781
  278OM     OM1  278   5.516   0.753   3.628
  279OM     OM1  279   7.720   9.196   1.105
  280OM     OM1  280   7.510   9.157   1.240
  281OM     OM1  281   7.661   8.941   1.165
  282OM     OM1  282   7.742   9.105   1.344
  283OM     OM1  283   6.948   1.229   3.590
  284OM     OM1  284   7.036   1.134   3.361
  285OM     OM1  285   7.193   1.255   3.533
  286OM     OM1  286   6.850   0.512   5.966
  287OM     OM1  287   6.841   0.679   6.152
  288OM     OM1  288   7.072   0.569   6.103
  289OM     OM1  289   6.895   0.413   6.204
  290OM     OM1  290   8.891   9.452   7.514
  291OM     OM1  291   8.816   9.199   7.476
  292OM     OM1  292   8.666   9.378   7.599
  293OM     OM1  293   8.842   0.046   7.344
  294OM     OM1  294   3.010   9.529   1.617
  295OM     OM1  295   3.034   0.181   1.546
  296OM     OM1  296   3.102   9.585   1.390
  297OM     OM1  297   3.156   9.355   1.285
  298OM     OM1  298   1.457   0.196   4.417
  299OM     OM1  299   1.677   0.304   4.320
  300OM     OM1  300   1.630   0.051   4.280
  301OM     OM1  301   1.501   0.227   4.152
  302OM     OM1  302   2.396   0.187   4.040
  303OM     OM1  303   2.217   0.287   3.891
  304OM     OM1  304   2.144   0.215   4.126
  305OM     OM1  305   2.312   0.409   4.118
  306OM     OM1  306   3.314   1.263   1.915
  307OM     OM1  307   3.355   1.057   1.737
  308OM     OM1  308   3.122   1.129   1.830
  309OM     OM1  309   3.253   1.282   1.661
  310OM     OM1  310   5.579   9.194   0.015
  311OM     OM1  311   5.637   9.443   0.035
  312OM     OM1  312   5.457   9.328   0.192
  313OM     OM1  313   5.718   9.288   0.221
  314OM     OM1  314   9.450   8.208   6.834
  315OM     OM1  315   9.508   8.423   6.981
  316OM     OM1  316   1.151   0.877   1.212
  317OM     OM1  317   1.169   0.716   1.410
  318OM     OM1  318   0.970   0.699   1.241
  319OM     OM1  319   0.976   0.906   1.402
  320OM     OM1  320   0.805   1.249   8.696
  321OM     OM1  321   6.755   0.198   6.188
  322OM     OM1  322   6.939   0.217   6.380
  323OM     OM1  323   7.014   0.206   6.129
  324OM     OM1  324   6.038   9.596   5.656
  325OM     OM1  325   5.942   9.467   5.461
  326OM     OM1  326   6.090   0.078   5.411
  327OM     OM1  327   5.838   0.088   5.500
  328OM     OM1  328   4.270   8.861   7.350
  329OM     OM1  329   4.196   9.102   7.276
  330OM     OM1  330   4.026   8.925   7.402
  331OM     OM1  331   4.114   8.887   7.159
  332OM     OM1  332   4.050   0.071   8.987
  333OM     OM1  333   4.081   0.283   8.835
  334OM     OM1  334   4.201   0.047   8.782
  335OM     OM1  335   4.277   0.194   8.985
  336OM     OM1  336   0.183   9.372   4.704
  337OM     OM1  337   0.029   9.554   4.798
  338OM     OM1  338   0.024   9.044   4.782
  339OM     OM1  339   0.080   9.346   4.950
  340OM     OM1  340   8.753   9.384   2.714
  341OM     OM1  341   8.912   9.280   2.897
  342OM     OM1  342   9.011   9.382   2.685
  343OM     OM1  343   8.883   9.162   2.651
  344OM     OM1  344   0.052   9.156   7.166
  345OM     OM1  345   0.072   8.919   7.054
  346OM     OM1  346   9.529   8.951   7.263
  347OM     OM1  347   0.189   8.960   7.281
  348OM     OM1  348   4.227   8.336   2.120
  349OM     OM1  349   4.280   8.519   1.944
  350OM     OM1  350   4.426   8.313   1.959
  351OM     OM1  351   4.664   8.424   1.967
  352OM     OM1  352   7.338   0.703   3.139
  353OM     OM1  353   7.206   0.582   3.336
  354OM     OM1  354   7.408   0.728   3.394
  355OM     OM1  355   7.449   0.506   3.255
  356OM     OM1  356   9.117   1.174   0.694
  357OM     OM1  357   9.370   1.265   0.648
  358OM     OM1  358   9.328   1.019   0.618
  359OM     OM1  359   9.202   1.183   0.462
  360OM     OM1  360   4.166   0.260   5.054
  361OM     OM1  361   4.417   0.271   5.143
  362OM     OM1  362   4.346   0.082   4.980
  363OM     OM1  363   4.259   0.091   5.229
  364OM     OM1  364   8.231   0.799   8.459
  365OM     OM1  365   8.412   0.934   8.582
  366OM     OM1  366   8.255   0.780   8.728
  367OM     OM1  367   8.421   0.668   8.578
  368OM     OM1  368   5.497   8.592   4.634
  369OM     OM1  369   5.572   8.492   4.408
  370OM     OM1  370   5.312   8.513   4.465
  371OM     OM1  371   8.915   8.571   7.695
  372OM     OM1  372   9.087   8.509   7.514
  373OM     OM1  373   9.154   8.685   7.685
  374OM     OM1  374   9.324   8.397   7.490
  375OM     OM1  375   4.600   8.755   8.953
  376OM     OM1  376   4.695   8.692   8.708
  377OM     OM1  377   4.318   8.518   8.889
  378OM     OM1  378   4.448   8.695   8.748
  379OM     OM1  379   1.308   0.119   6.287
  380OM     OM1  380   1.368   0.062   6.538
  381OM     OM1  381   1.297   0.312   6.441
  382OM     OM1  382   1.527   0.206   6.394
  383OM     OM1  383   9.034   1.146   2.996
  384OM     OM1  384   9.124   0.980   2.810
  385OM     OM1  385   9.020   0.885   3.024
  386OM     OM1  386   9.252   0.998   3.037
  387OM     OM1  387   8.043   0.105   7.722
  388OM     OM1  388   8.280   0.057   7.816
  389OM     OM1  389   8.086   0.055   7.987
  390OM     OM1  390   8.107   9.469   7.809
  391OM     OM1  391   0.539   9.428   9.503
  392OM     OM1  392   0.573   9.162   9.504
  393OM     OM1  393   0.337   9.269   9.439
  394OM     OM1  394   0.532   9.294   9.282
  395OM     OM1  395   7.506   1.253   2.344
  396OM     OM1  396   7.585   1.154   2.573
  397OM     OM1  397   3.855   9.019   8.862
  398OM     OM1  398   3.979   9.290   8.984
  399OM     OM1  399   4.102   8.997   8.829
  400OM     OM1  400   3.958   9.215   8.743
  401OM     OM1  401   8.653   0.112   0.894
  402OM     OM1  402   8.699   0.233   1.120
  403OM     OM1  403   8.894   0.249   0.946
  404OM     OM1  404   8.844   0.020   1.026
  405OM     OM1  405   9.594   0.142   4.316
  406OM     OM1  406   9.485   0.111   4.079
  407OM     OM1  407   0.377   0.192   4.066
  408OM     OM1  408   0.121   0.223   4.116
  409OM     OM1  409   6.371   0.065   9.075
  410OM     OM1  410   6.348   0.145   9.324
  411OM     OM1  411   6.253   9.522   9.246
  412OM     OM1  412   6.144   0.155   9.173
  413OM     OM1  413   6.672   8.636   4.479
  414OM     OM1  414   6.683   8.619   4.215
  415OM     OM1  415   6.899   8.586   4.348
  416OM     OM1  416   6.732   8.403   4.367
  417OM     OM1  417   0.241   1.188   0.114
  418OM     OM1  418   0.218   1.242   0.379
  419OM     OM1  419   0.449   1.185   0.254
  420OM     OM1  420   5.111   0.351   9.124
  421OM     OM1  421   5.196   0.177   9.290
  422OM     OM1  422   4.939   0.210   9.271
  423OM     OM1  423   5.059   0.101   9.067
  424OM     OM1  424   9.064   9.466   6.344
  425OM     OM1  425   8.984   9.536   6.108
  426OM     OM1  426   8.871   9.333   6.226
  427OM     OM1  427   2.040   9.300   0.158
  428OM     OM1  428   1.881   9.488   0.246
  429OM     OM1  429   1.859   9.404   0.003
  430OM     OM1  430   1.797   9.240   0.205
  431OM     OM1  431   5.093   8.931   4.113
  432OM     OM1  432   5.170   9.172   4.068
  433OM     OM1  433   5.134   9.101   4.310
  434OM     OM1  434   4.927   9.126   4.150
  435OM     OM1  435   8.476   8.577   7.817
  436OM     OM1  436   8.571   8.791   7.709
  437OM     OM1  437   8.745   8.853   7.524
  438OM     OM1  438   8.813   8.882   7.770
  439OM     OM1  439   5.272   1.231   8.416
  440OM     OM1  440   5.024   1.320   8.414
  441OM     OM1  441   1.530   8.265   6.691
  442OM     OM1  442   1.781   8.327   6.686
  443OM     OM1  443   1.595   8.497   6.579
  444OM     OM1  444   1.611   8.457   6.834
  445OM     OM1  445   9.038   9.374   1.891
  446OM     OM1  446   9.247   9.373   2.050
  447OM     OM1  447   9.273   9.428   1.789
  448OM     OM1  448   9.155   9.596   1.952
  449OM     OM1  449   8.203   8.307   2.455
  450OM     OM1  450   8.088   8.280   2.212
  451OM     OM1  451   7.243   0.422   5.350
  452OM     OM1  452   7.043   0.306   5.226
  453OM     OM1  453   6.991   0.435   5.439
  454OM     OM1  454   7.128   0.208   5.447
  455OM     OM1  455   2.227   0.938   8.066
  456OM     OM1  456   2.021   0.849   8.184
  457OM     OM1  457   2.211   0.945   8.332
  458OM     OM1  458   2.068   1.105   8.203
  459OM     OM1  459   8.117   1.282   4.362
  460OM     OM1  460   8.268   1.380   4.565
  461OM     OM1  461   4.856   9.202   3.289
  462OM     OM1  462   4.601   9.255   3.291
  463OM     OM1  463   4.725   9.188   3.071
  464OM     OM1  464   4.673   9.013   3.270
  465OM     OM1  465   5.763   0.386   5.910
  466OM     OM1  466   5.727   0.191   6.092
  467OM     OM1  467   5.686   0.454   6.132
  468OM     OM1  468   5.928   0.348   6.113
  469OM     OM1  469   8.911   8.493   6.664
  470OM     OM1  470   9.025   8.693   6.786
  471OM     OM1  471   8.803   8.578   6.890
  472OM     OM1  472   8.797   8.726   6.674
  473OM     OM1  473   2.313   8.383   3.862
  474OM     OM1  474   2.242   8.417   3.621
  475OM     OM1  475   0.525   9.516   3.438
  476OM     OM1  476   0.740   0.053   3.457
  477OM     OM1  477   0.663   9.575   3.224
  478OM     OM1  478   0.752   9.399   3.397
  479OM     OM1  479   7.765   1.007   1.383
  480OM     OM1  480   7.419   1.105   1.421
  481OM     OM1  481   7.639   1.038   0.999
  482OM     OM1  482   7.754   1.173   1.188
  483OM     OM1  483   2.015   0.090   5.361
  484OM     OM1  484   2.005   0.214   5.131
  485OM     OM1  485   1.795   0.089   5.209
  486OM     OM1  486   1.868   0.311   5.337
  487OM     OM1  487   5.137   9.190   7.479
  488OM     OM1  488   5.028   9.215   7.715
  489OM     OM1  489   5.289   9.244   7.688
  490OM     OM1  490   5.179   9.013   7.675
  491OM     OM1  491   6.658   8.311   3.791
  492OM     OM1  492   6.626   8.547   3.699
  493OM     OM1  493   6.666   8.513   3.966
  494OM     OM1  494   6.854   8.502   3.787
  495OM     OM1  495   0.458   8.979   1.220
  496OM     OM1  496   0.150   9.011   0.942
  497OM     OM1  497   0.408   8.965   0.968
  498OM     OM1  498   0.309   9.026   0.733
  499OM     OM1  499   8.129   1.136   1.214
  500OM     OM1  500   3.494   8.971   9.447
  501OM     OM1  501   3.533   9.222   9.514
  502OM     OM1  502   3.630   9.124   9.297
  503OM     OM1  503   3.726   9.054   9.543
  504OM     OM1  504   6.442   9.366   5.606
  505OM     OM1  505   6.394   9.114   5.622
  506OM     OM1  506   6.371   9.233   5.392
  507OM     OM1  507   6.207   9.287   5.607
  508OM     OM1  508   9.536   0.123   3.042
  509OM     OM1  509   9.466   0.306   2.864
  510OM     OM1  510   9.343   0.287   3.103
  511OM     OM1  511   9.311   0.102   2.924
  512OM     OM1  512   0.830   8.265   6.803
  513OM     OM1  513   0.776   8.533   6.816
  514OM     OM1  514   0.730   8.395   6.610
  515OM     OM1  515   3.148   1.081   5.116
  516OM     OM1  516   2.955   1.102   5.291
  517OM     OM1  517   2.915   1.140   5.029
  518OM     OM1  518   5.587   1.195   5.133
  519OM     OM1  519   5.731   1.369   5.009
  520OM     OM1  520   5.561   1.215   4.871
  521OM     OM1  521   6.458   1.233   7.678
  522OM     OM1  522   6.328   1.010   7.667
  523OM     OM1  523   6.611   1.308   7.865
  524OM     OM1  524   6.204   1.210   7.753
  525OM     OM1  525   7.460   0.554   8.519
  526OM     OM1  526   7.513   0.638   8.284
  527OM     OM1  527   7.571   0.388   8.341
  528OM     OM1  528   7.720   0.570   8.435
  529OM     OM1  529   1.184   9.305   4.233
  530OM     OM1  530   1.159   9.256   3.982
  531OM     OM1  531   0.968   9.401   4.102
  532OM     OM1  532   0.998   9.150   4.153
  533OM     OM1  533   3.933   9.201   9.577
  534OM     OM1  534   3.955   8.952   9.506
  535OM     OM1  535   3.906   8.989   0.141
  536OM     OM1  536   3.474   1.059   6.351
  537OM     OM1  537   3.505   1.030   6.612
  538OM     OM1  538   3.712   1.017   6.459
  539OM     OM1  539   1.575   8.858   8.690
  540OM     OM1  540   1.330   8.881   8.606
  541OM     OM1  541   1.459   9.086   8.707
  542OM     OM1  542   1.383   8.884   8.864
  543OM     OM1  543   5.557   0.180   3.463
  544OM     OM1  544   5.746   0.144   3.281
  545OM     OM1  545   5.804   0.246   3.510
  546OM     OM1  546   8.809   9.112   6.342
  547OM     OM1  547   8.619   9.286   6.289
  548OM     OM1  548   7.974   0.575   3.984
  549OM     OM1  549   7.945   0.712   4.206
  550OM     OM1  550   7.822   0.797   3.998
  551OM     OM1  551   7.747   0.585   4.126
  552OM     OM1  552   5.103   9.553   6.192
  553OM     OM1  553   4.944   9.572   6.402
  554OM     OM1  554   5.091   9.360   6.378
  555OM     OM1  555   4.868   0.176   6.561
  556OM     OM1  556   8.482   1.138   8.423
  557OM     OM1  557   8.440   1.143   8.169
  558OM     OM1  558   8.674   1.213   8.269
  559OM     OM1  559   6.797   8.484   1.297
  560OM     OM1  560   6.760   8.423   1.037
  561OM     OM1  561   6.968   8.563   1.122
  562OM     OM1  562   2.863   8.888   2.494
  563OM     OM1  563   2.696   8.722   2.409
  564OM     OM1  564   2.863   8.827   2.235
  565OM     OM1  565   2.675   8.977   2.333
  566OM     OM1  566   6.211   8.532   6.817
  567OM     OM1  567   6.343   8.711   6.953
  568OM     OM1  568   6.335   8.471   7.049
  569OM     OM1  569   6.467   8.513   6.829
  570OM     OM1  570   9.144   0.573   7.905
  571OM     OM1  571   9.391   0.568   7.996
  572OM     OM1  572   9.183   0.657   8.142
  573OM     OM1  573   9.226   0.400   8.082
  574OM     OM1  574   7.133   0.245   3.974
  575OM     OM1  575   7.367   0.181   4.061
  576OM     OM1  576   7.330   0.218   3.796
  577OM     OM1  577   7.342   0.415   3.949
  578OM     OM1  578   1.100   1.098   4.973
  579OM     OM1  579   1.087   1.213   5.202
  580OM     OM1  580   0.384   8.775   7.382
  581OM     OM1  581   0.159   8.711   7.311
  582OM     OM1  582   0.199   8.882   7.524
  583OM     OM1  583   6.072   8.363   9.107
  584OM     OM1  584   5.882   8.442   9.270
  585OM     OM1  585   8.055   9.222   5.841
  586OM     OM1  586   8.185   9.128   5.647
  587OM     OM1  587   8.257   9.064   5.892
  588OM     OM1  588   8.052   8.953   5.778
  589OM     OM1  589   1.715   0.006   9.357
  590OM     OM1  590   1.495   0.037   9.237
  591OM     OM1  591   1.552   0.173   9.463
  592OM     OM1  592   1.485   9.530   9.475
  593OM     OM1  593   2.275   9.167   5.611
  594OM     OM1  594   2.519   9.246   5.628
  595OM     OM1  595   2.432   9.065   5.797
  596OM     OM1  596   2.357   9.304   5.822
  597OM     OM1  597   9.042   1.049   5.126
  598OM     OM1  598   9.093   1.293   5.056
  599OM     OM1  599   9.228   1.098   4.950
  600OM     OM1  600   8.983   1.135   4.873
  601OM     OM1  601   3.508   1.343   0.286
  602OM     OM1  602   3.681   1.150   0.260
  603OM     OM1  603   3.738   1.366   0.388
  604OM     OM1  604   7.614   9.054   0.006
  605OM     OM1  605   7.639   9.115   0.270
  606OM     OM1  606   7.831   9.153   0.115
  607OM     OM1  607   7.609   9.298   0.080
  608OM     OM1  608   7.926   8.909   0.118
  609OM     OM1  609   8.077   9.115   0.051
  610OM     OM1  610   8.015   9.081   0.293
  611OM     OM1  611   6.188   0.789   3.234
  612OM     OM1  612   6.048   1.014   3.247
  613OM     OM1  613   5.966   0.815   3.391
  614OM     OM1  614   5.958   0.802   3.123
  615OM     OM1  615   1.646   9.311   2.426
  616OM     OM1  616   1.678   9.556   2.310
  617OM     OM1  617   1.511   9.522   2.509
  618OM     OM1  618   1.773   9.502   2.542
  619OM     OM1  619   6.797   1.260   1.334
  620OM     OM1  620   6.604   1.322   1.495
  621OM     OM1  621   6.775   1.131   1.564
  622OM     OM1  622   0.138   0.307   7.047
  623OM     OM1  623   9.522   0.170   6.975
  624OM     OM1  624   9.572   0.401   6.869
  625OM     OM1  625   0.117   0.189   6.815
  626OM     OM1  626   4.524   8.854   9.196
  627OM     OM1  627   4.654   8.989   9.029
  628OM     OM1  628   4.789   8.790   9.124
  629OM     OM1  629   8.476   9.523   7.716
  630OM     OM1  630   8.498   9.254   7.737
  631OM     OM1  631   8.406   9.363   7.529
  632OM     OM1  632   4.801   9.081   0.008
  633OM     OM1  633   4.855   9.074   0.274
  634OM     OM1  634   4.998   9.208   0.111
  635OM     OM1  635   4.756   9.289   0.157
  636OM     OM1  636   8.710   0.057   6.556
  637OM     OM1  637   8.890   0.086   6.745
  638OM     OM1  638   8.962   0.056   6.493
  639OM     OM1  639   8.849   0.280   6.578
  640OM     OM1  640   0.406   0.172   0.713
  641OM     OM1  641   0.512   0.192   0.477
  642OM     OM1  642   0.328   0.016   0.507
  643OM     OM1  643   0.561   9.584   0.625
  644OM     OM1  644   8.863   9.433   2.071
  645OM     OM1  645   8.883   9.190   1.989
  646OM     OM1  646   8.776   9.372   1.832
  647OM     OM1  647   7.809   0.402   7.710
  648OM     OM1  648   7.639   0.232   7.814
  649OM     OM1  649   7.578   0.456   7.673
  650OM     OM1  650   7.664   0.235   7.558
  651OM     OM1  651   9.454   8.514   0.749
  652OM     OM1  652   0.057   8.371   0.706
  653OM     OM1  653   0.081   8.596   0.838
  654OM     OM1  654   9.556   8.395   0.945
  655OM     OM1  655   8.437   0.159   7.631
  656OM     OM1  656   8.540   0.120   7.864
  657OM     OM1  657   8.519   0.138   1.612
  658OM     OM1  658   8.265   0.201   1.639
  659OM     OM1  659   8.346   0.050   1.442
  660OM     OM1  660   8.070   0.361   1.558
  661OM     OM1  661   0.312   0.740   8.846
  662OM     OM1  662   0.090   0.638   8.918
  663OM     OM1  663   0.081   0.570   9.164
  664OM     OM1  664   0.266   0.483   8.798
  665OM     OM1  665   9.581   0.351   1.253
  666OM     OM1  666   9.487   0.513   1.069
  667OM     OM1  667   0.126   0.478   1.429
  668OM     OM1  668   0.212   0.255   1.335
  669OM     OM1  669   0.424   8.488   5.300
  670OM     OM1  670   0.638   8.474   5.147
  671OM     OM1  671   5.621   9.153   4.250
  672OM     OM1  672   5.662   9.041   4.022
  673OM     OM1  673   5.828   9.321   4.234
  674OM     OM1  674   5.423   9.101   4.090
  675OM     OM1  675   0.515   1.287   4.238
  676OM     OM1  676   0.735   1.418   4.168
  677OM     OM1  677   0.570   1.315   3.994
  678OM     OM1  678   3.410   0.069   3.698
  679OM     OM1  679   3.318   0.015   3.461
  680OM     OM1  680   3.306   9.431   3.632
  681OM     OM1  681   3.383   0.146   3.938
  682OM     OM1  682   8.945   9.150   5.656
  683OM     OM1  683   9.138   8.882   5.841
  684OM     OM1  684   9.162   9.152   5.498
  685OM     OM1  685   9.063   8.930   5.595
  686OM     OM1  686   7.510   8.573   2.220
  687OM     OM1  687   7.351   8.592   2.015
  688OM     OM1  688   7.329   8.760   2.201
  689OM     OM1  689   7.550   8.771   2.060
  690OM     OM1  690   8.540   9.540   0.726
  691OM     OM1  691   8.422   0.327   0.836
  692OM     OM1  692   8.396   0.076   0.886
  693OM     OM1  693   0.443   8.777   4.189
  694OM     OM1  694   0.632   8.688   4.343
  695OM     OM1  695   0.383   8.603   4.382
  696OM     OM1  696   0.517   8.538   4.163
  697OM     OM1  697   2.827   8.694   6.880
  698OM     OM1  698   2.596   8.620   6.951
  699OM     OM1  699   2.722   8.822   7.072
  700OM     OM1  700   2.614   8.850   6.832
  701OM     OM1  701   5.881   0.705   0.412
  702OM     OM1  702   6.112   0.809   0.392
  703OM     OM1  703   6.051   0.591   0.248
  704OM     OM1  704   3.341   0.115   4.532
  705OM     OM1  705   3.408   0.377   4.530
  706OM     OM1  706   3.527   0.197   4.377
  707OM     OM1  707   3.281   0.282   4.336
  708OM     OM1  708   8.140   1.189   8.958
  709OM     OM1  709   8.211   0.936   8.927
  710OM     OM1  710   8.210   1.047   9.157
  711OM     OM1  711   7.984   0.993   9.037
  712OM     OM1  712   9.007   0.479   3.405
  713OM     OM1  713   8.979   0.222   3.365
  714OM     OM1  714   9.051   0.382   3.172
  715OM     OM1  715   8.824   0.442   3.086
  716OM     OM1  716   3.537   0.952   0.346
  717OM     OM1  717   3.706   1.048   0.503
  718OM     OM1  718   3.602   1.055   0.744
  719OM     OM1  719   3.662   8.498   0.669
  720OM     OM1  720   3.460   8.373   0.552
  721OM     OM1  721   3.707   8.332   0.475
  722OM     OM1  722   0.197   1.242   8.078
  723OM     OM1  723   9.556   1.076   8.479
  724OM     OM1  724   0.053   1.145   8.258
  725OM     OM1  725   3.345   0.746   6.708
  726OM     OM1  726   3.540   0.690   6.856
  727OM     OM1  727   3.455   0.938   6.852
  728OM     OM1  728   3.293   0.762   6.955
  729OM     OM1  729   2.681   8.633   3.603
  730OM     OM1  730   2.557   8.735   3.390
  731OM     OM1  731   2.527   8.832   3.630
  732OM     OM1  732   2.743   8.881   3.505
  733OM     OM1  733   2.155   8.920   5.967
  734OM     OM1  734   1.938   9.063   5.975
  735OM     OM1  735   2.039   8.976   5.747
  736OM     OM1  736   2.147   9.177   5.884
  737OM     OM1  737   4.058   9.502   3.643
  738OM     OM1  738   4.273   9.525   3.502
  739OM     OM1  739   4.294   9.555   3.758
  740OM     OM1  740   4.172   0.129   3.607
  741OM     OM1  741   9.274   8.474   8.884
  742OM     OM1  742   9.306   8.465   9.145
  743OM     OM1  743   9.444   8.639   9.005
  744OM     OM1  744   9.499   8.385   9.003
  745OM     OM1  745   5.153   0.473   1.032
  746OM     OM1  746   5.375   0.615   0.975
  747OM     OM1  747   5.212   0.527   0.788
  748OM     OM1  748   5.137   0.722   0.938
  749OM     OM1  749   3.285   0.617   9.297
  750OM     OM1  750   3.534   0.608   9.211
  751OM     OM1  751   3.488   0.782   9.394
  752OM     OM1  752   3.372   0.816   9.166
  753OM     OM1  753   7.113   9.348   8.039
  754OM     OM1  754   6.866   9.429   8.071
  755OM     OM1  755   7.061   9.589   8.103
  756OM     OM1  756   7.016   9.390   8.286
  757OM     OM1  757   8.978   9.131   5.168
  758OM     OM1  758   8.957   8.882   5.224
  759OM     OM1  759   8.746   9.021   5.226
  760OM     OM1  760   8.932   9.063   5.413
  761OM     OM1  761   3.460   9.380   5.500
  762OM     OM1  762   3.274   9.440   5.336
  763OM     OM1  763   3.444   9.243   5.283
  764OM     OM1  764   3.535   9.485   5.275
  765OM     OM1  765   1.706   9.603   7.766
  766OM     OM1  766   1.598   9.373   7.842
  767OM     OM1  767   1.467   9.552   7.701
  768OM     OM1  768   1.505   9.590   7.950
  769OM     OM1  769   0.147   8.688   4.452
  770OM     OM1  770   0.122   8.916   4.570
  771OM     OM1  771   9.517   8.814   4.484
  772OM     OM1  772   0.080   8.879   4.296
  773OM     OM1  773   1.079   8.573   3.158
  774OM     OM1  774   1.105   8.444   2.933
  775OM     OM1  775   0.958   8.344   3.121
  776OM     OM1  776   4.509   9.493   5.015
  777OM     OM1  777   4.339   9.483   4.812
  778OM     OM1  778   4.086   9.432   4.788
  779OM     OM1  779   1.760   1.254   1.211
  780OM     OM1  780   1.635   1.033   1.250
  781OM     OM1  781   1.889   1.042   1.279
  782OM     OM1  782   1.790   1.057   1.035
  783OM     OM1  783   3.609   8.375   9.426
  784OM     OM1  784   3.432   8.496   9.571
  785OM     OM1  785   3.382   8.442   9.310
  786OM     OM1  786   8.430   0.061   8.241
  787OM     OM1  787   8.224   9.573   8.363
  788OM     OM1  788   8.452   9.451   8.377
  789OM     OM1  789   8.320   9.441   8.152
  790OM     OM1  790   9.430   8.538   4.850
  791OM     OM1  791   9.415   8.478   4.605
  792OM     OM1  792   9.226   8.392   4.765
  793OM     OM1  793   6.554   1.222   3.861
  794OM     OM1  794   9.373   0.973   5.122
  795OM     OM1  795   9.429   0.943   4.871
  796OM     OM1  796   9.467   1.180   4.991
  797OM     OM1  797   6.412   1.071   5.113
  798OM     OM1  798   6.190   1.171   5.010
  799OM     OM1  799   6.424   1.230   4.911
  800OM     OM1  800   3.304   1.220   5.721
  801OM     OM1  801   3.087   1.363   5.703
  802OM     OM1  802   4.358   0.628   2.745
  803OM     OM1  803   4.149   0.780   2.746
  804OM     OM1  804   4.378   0.872   2.842
  805OM     OM1  805   4.248   0.705   2.975
  806OM     OM1  806   1.102   0.184   3.513
  807OM     OM1  807   1.294   0.057   3.420
  808OM     OM1  808   1.136   9.545   3.594
  809OM     OM1  809   1.275   0.200   3.710
  810OM     OM1  810   6.938   9.426   0.796
  811OM     OM1  811   6.746   9.414   0.609
  812OM     OM1  812   6.948   9.568   0.565
  813OM     OM1  813   6.792   0.025   0.746
  814OM     OM1  814   8.440   1.190   4.017
  815OM     OM1  815   8.510   1.167   4.252
  816OM     OM1  816   8.427   0.950   4.124
  817OM     OM1  817   8.254   1.132   4.199
  818OM     OM1  818   4.484   0.373   0.881
  819OM     OM1  819   4.562   0.612   0.798
  820OM     OM1  820   4.348   0.518   0.684
  821OM     OM1  821   4.578   0.406   0.644
  822OM     OM1  822   8.852   9.363   1.018
  823OM     OM1  823   9.031   9.524   1.158
  824OM     OM1  824   9.042   9.483   0.901
  825OM     OM1  825   9.440   0.831   1.915
  826OM     OM1  826   0.094   0.808   1.850
  827OM     OM1  827   9.290   1.033   1.977
  828OM     OM1  828   9.366   0.998   1.738
  829OM     OM1  829   7.114   0.064   1.940
  830OM     OM1  830   6.993   9.451   1.832
  831OM     OM1  831   7.179   9.567   1.712
  832OM     OM1  832   6.939   0.079   1.741
  833OM     OM1  833   0.960   8.763   8.333
  834OM     OM1  834   1.044   8.935   8.160
  835OM     OM1  835   1.185   8.885   8.381
  836OM     OM1  836   0.951   9.018   8.384
  837OM     OM1  837   1.097   1.280   1.499
  838OM     OM1  838   1.042   1.242   1.744
  839OM     OM1  839   0.904   1.108   1.552
  840OM     OM1  840   3.158   1.394   9.262
  841OM     OM1  841   6.310   0.045   0.610
  842OM     OM1  842   6.362   0.225   0.807
  843OM     OM1  843   6.550   0.102   0.701
  844OM     OM1  844   6.412   0.278   0.555
  845OM     OM1  845   2.488   8.261   8.534
  846OM     OM1  846   1.895   9.095   0.401
  847OM     OM1  847   1.737   8.976   0.232
  848OM     OM1  848   1.643   9.148   0.398
  849OM     OM1  849   3.588   0.246   3.791
  850OM     OM1  850   3.540   9.506   3.558
  851OM     OM1  851   3.581   9.599   3.874
  852OM     OM1  852   7.212   8.628   4.606
  853OM     OM1  853   7.290   8.450   4.434
  854OM     OM1  854   7.447   8.538   4.640
  855OM     OM1  855   7.413   8.681   4.436
  856OM     OM1  856   6.934   0.805   8.927
  857OM     OM1  857   6.967   1.044   9.043
  858OM     OM1  858   7.158   0.874   9.036
  859OM     OM1  859   6.948   0.826   9.184
  860OM     OM1  860   6.139   0.031   6.658
  861OM     OM1  861   5.886   0.056   6.665
  862OM     OM1  862   6.006   9.562   6.868
  863OM     OM1  863   5.988   9.423   6.638
  864OM     OM1  864   1.233   1.180   3.253
  865OM     OM1  865   1.111   1.022   3.087
  866OM     OM1  866   1.318   0.868   3.069
  867OM     OM1  867   1.275   1.209   3.011
  868OM     OM1  868   9.597   1.154   8.726
  869OM     OM1  869   0.177   1.172   8.554
  870OM     OM1  870   0.103   0.931   8.630
  871OM     OM1  871   7.273   0.772   9.247
  872OM     OM1  872   7.182   0.785   9.505
  873OM     OM1  873   7.436   0.743   9.445
  874OM     OM1  874   7.243   0.569   9.397
  875OM     OM1  875   4.853   0.236   8.540
  876OM     OM1  876   4.655   0.146   8.687
  877OM     OM1  877   4.602   0.257   8.461
  878OM     OM1  878   4.705   0.410   8.644
  879OM     OM1  879   2.378   0.140   0.905
  880OM     OM1  880   2.184   0.323   0.891
  881OM     OM1  881   2.415   0.379   0.794
  882OM     OM1  882   2.264   0.190   0.681
  883OM     OM1  883   2.137   8.837   8.702
  884OM     OM1  884   2.024   8.914   8.929
  885OM     OM1  885   2.165   8.688   8.896
  886OM     OM1  886   2.277   8.937   8.908
  887OM     OM1  887   7.054   1.211   8.030
  888OM     OM1  888   6.938   1.075   7.840
  889OM     OM1  889   6.812   1.261   8.004
  890OM     OM1  890   5.991   0.154   2.802
  891OM     OM1  891   6.039   9.529   2.689
  892OM     OM1  892   6.205   0.111   2.646
  893OM     OM1  893   5.975   0.137   2.540
  894OM     OM1  894   5.466   8.663   5.718
  895OM     OM1  895   5.308   8.400   5.503
  896OM     OM1  896   5.597   8.588   5.926
  897OM     OM1  897   5.508   8.498   5.354
  898OM     OM1  898   2.601   9.201   8.231
  899OM     OM1  899   2.427   8.996   8.179
  900OM     OM1  900   2.592   9.073   8.000
  901OM     OM1  901   2.394   9.226   8.080
  902OM     OM1  902   0.068   8.836   8.769
  903OM     OM1  903   0.175   8.611   8.739
  904OM     OM1  904   0.325   8.811   8.813
  905OM     OM1  905   0.238   8.823   8.572
  906OM     OM1  906   0.373   8.636   7.606
  907OM     OM1  907   0.661   8.909   7.906
  908OM     OM1  908   0.773   8.689   7.839
  909OM     OM1  909   0.519   8.690   7.804
  910OM     OM1  910   6.602   0.553   6.587
  911OM     OM1  911   6.728   0.608   6.801
  912OM     OM1  912   6.663   0.368   6.762
  913OM     OM1  913   6.470   0.562   6.808
  914OM     OM1  914   7.436   8.632   3.376
  915OM     OM1  915   7.491   8.871   3.471
  916OM     OM1  916   7.554   8.665   3.595
  917OM     OM1  917   7.284   8.718   3.560
  918OM     OM1  918   4.804   9.095   7.775
  919OM     OM1  919   4.910   9.229   7.965
  920OM     OM1  920   4.827   9.365   7.762
  921OM     OM1  921   2.696   9.374   0.114
  922OM     OM1  922   2.778   9.185   0.254
  923OM     OM1  923   2.848   9.193   9.595
  924OM     OM1  924   2.612   9.130   0.065
  925OM     OM1  925   2.342   0.497   5.785
  926OM     OM1  926   2.391   0.743   5.878
  927OM     OM1  927   2.553   0.545   5.941
  928OM     OM1  928   2.302   0.559   6.031
  929OM     OM1  929   6.182   0.136   1.761
  930OM     OM1  930   6.313   0.021   1.563
  931OM     OM1  931   6.255   0.263   1.540
  932OM     OM1  932   6.054   0.091   1.536
  933OM     OM1  933   2.263   8.982   7.977
  934OM     OM1  934   2.018   9.034   7.925
  935OM     OM1  935   2.136   8.815   7.822
  936OM     OM1  936   2.192   9.055   7.731
  937OM     OM1  937   3.218   1.158   1.159
  938OM     OM1  938   3.252   1.191   1.419
  939OM     OM1  939   3.421   1.041   1.294
  940OM     OM1  940   3.409   1.302   1.256
  941OM     OM1  941   6.171   8.664   6.344
  942OM     OM1  942   6.183   8.723   6.103
  943OM     OM1  943   6.187   8.462   6.178
  944OM     OM1  944   6.398   8.618   6.193
  945OM     OM1  945   0.264   0.654   6.276
  946OM     OM1  946   0.153   0.408   6.253
  947OM     OM1  947   0.087   0.578   6.441
  948OM     OM1  948   0.020   0.634   6.201
  949OM     OM1  949   4.779   8.563   6.897
  950OM     OM1  950   4.973   8.895   6.664
  951OM     OM1  951   4.953   8.763   6.899
  952OM     OM1  952   5.032   8.642   6.693
  953OM     OM1  953   8.020   8.523   3.565
  954OM     OM1  954   8.073   8.753   3.687
  955OM     OM1  955   7.943   8.740   3.458
  956OM     OM1  956   7.819   8.667   3.666
  957OM     OM1  957   7.507   9.027   5.876
  958OM     OM1  958   7.473   9.281   5.886
  959OM     OM1  959   7.705   8.897   5.769
  960OM     OM1  960   7.727   9.230   5.922
  961OM     OM1  961   2.332   0.263   5.654
  962OM     OM1  962   2.110   0.382   5.728
  963OM     OM1  963   2.268   0.483   5.539
  964OM     OM1  964   6.584   1.290   5.445
  965OM     OM1  965   6.402   1.268   5.619
  966OM     OM1  966   7.360   0.725   9.000
  967OM     OM1  967   7.567   0.752   8.845
  968OM     OM1  968   7.497   0.521   8.934
  969OM     OM1  969   7.360   0.644   8.744
  970OM     OM1  970   9.140   9.164   7.089
  971OM     OM1  971   9.115   9.394   7.187
  972OM     OM1  972   8.950   9.208   7.260
  973OM     OM1  973   8.931   9.296   7.017
  974OM     OM1  974   1.669   0.808   2.761
  975OM     OM1  975   1.844   1.018   2.703
  976OM     OM1  976   1.584   1.041   2.684
  977OM     OM1  977   1.704   1.013   2.917
  978OM     OM1  978   0.131   1.236   5.388
  979OM     OM1  979   0.040   1.072   5.562
  980OM     OM1  980   0.122   1.298   5.652
  981OM     OM1  981   2.359   0.270   7.720
  982OM     OM1  982   2.527   0.464   7.752
  983OM     OM1  983   2.407   0.148   7.490
  984OM     OM1  984   2.415   0.016   7.707
  985OM     OM1  985   1.876   8.383   2.187
  986OM     OM1  986   1.032   1.262   3.065
  987OM     OM1  987   1.099   0.785   2.967
  988OM     OM1  988   1.227   0.972   2.854
  989OM     OM1  989   8.631   8.739   5.360
  990OM     OM1  990   8.577   8.560   5.183
  991OM     OM1  991   8.794   8.530   5.331
  992OM     OM1  992   8.789   8.703   5.148
  993OM     OM1  993   4.156   8.724   6.959
  994OM     OM1  994   3.973   8.672   7.153
  995OM     OM1  995   4.223   8.663   7.204
  996OM     OM1  996   3.851   8.920   7.593
  997OM     OM1  997   3.696   9.108   7.697
  998OM     OM1  998   3.923   9.158   7.583
  999OM     OM1  999   3.718   9.095   7.434
 1000OM     OM1 1000   7.167   9.350   6.323
 1001OM     OM1 1001   7.413   9.353   6.229
 1002OM     OM1 1002   7.291   9.578   6.236
 1003OM     OM1 1003   7.364   9.449   6.457
 1004OM     OM1 1004   5.359   0.203   8.414
 1005OM     OM1 1005   5.125   0.276   8.513
 1006OM     OM1 1006   5.348   0.433   8.508
 1007OM     OM1 1007   5.327   0.224   8.670
 1008OM     OM1 1008   3.501   0.391   1.900
 1009OM     OM1 1009   3.248   0.500   1.873
 1010OM     OM1 1010   3.447   0.398   2.259
 1011OM     OM1 1011   3.303   0.325   2.051
 1012OM     OM1 1012   1.883   0.485   5.821
 1013OM     OM1 1013   1.803   0.444   6.076
 1014OM     OM1 1014   2.043   0.513   6.015
 1015OM     OM1 1015   1.847   0.686   5.990
 1016OM     OM1 1016   1.073   0.856   4.305
 1017OM     OM1 1017   1.044   1.105   4.382
 1018OM     OM1 1018   1.284   1.005   4.380
 1019OM     OM1 1019   1.097   0.916   4.550
 1020OM     OM1 1020   7.901   8.301   3.579
 1021OM     OM1 1021   8.008   8.364   3.345
 1022OM     OM1 1022   8.165   8.302   3.531
 1023OM     OM1 1023   5.942   0.091   8.854
 1024OM     OM1 1024   6.153   0.256   8.829
 1025OM     OM1 1025   5.905   0.343   8.781
 1026OM     OM1 1026   5.987   0.287   9.016
 1027OM     OM1 1027   6.550   1.227   6.540
 1028OM     OM1 1028   6.674   1.102   6.743
 1029OM     OM1 1029   6.411   1.072   6.682
 1030OM     OM1 1030   0.574   8.890   8.858
 1031OM     OM1 1031   0.782   9.035   8.802
 1032OM     OM1 1032   0.768   8.795   8.697
 1033OM     OM1 1033   0.807   8.816   8.947
 1034OM     OM1 1034   0.228   1.379   4.592
 1035OM     OM1 1035   0.413   1.270   4.737
 1036OM     OM1 1036   4.548   1.195   6.405
 1037OM     OM1 1037   4.799   1.141   6.404
 1038OM     OM1 1038   4.687   1.150   6.636
 1039OM     OM1 1039   4.637   0.955   6.467
 1040OM     OM1 1040   0.355   1.260   8.724
 1041OM     OM1 1041   0.416   1.075   8.562
 1042OM     OM1 1042   0.394   1.321   8.478
 1043OM     OM1 1043   0.615   1.281   8.351
 1044OM     OM1 1044   0.618   1.379   8.599
 1045OM     OM1 1045   3.328   9.367   4.235
 1046OM     OM1 1046   3.281   9.520   4.013
 1047OM     OM1 1047   3.320   9.259   4.000
 1048OM     OM1 1048   3.512   9.426   4.054
 1049OM     OM1 1049   4.235   9.249   8.970
 1050OM     OM1 1050   4.128   9.450   9.103
 1051OM     OM1 1051   4.138   9.199   9.195
 1052OM     OM1 1052   0.689   9.394   6.868
 1053OM     OM1 1053   0.487   9.277   6.973
 1054OM     OM1 1054   0.455   9.492   6.817
 1055OM     OM1 1055   0.513   9.267   6.708
 1056OM     OM1 1056   6.764   0.779   2.044
 1057OM     OM1 1057   6.827   0.630   1.837
 1058OM     OM1 1058   6.832   0.538   2.086
 1059OM     OM1 1059   7.013   0.713   2.009
 1060OM     OM1 1060   6.832   0.746   8.690
 1061OM     OM1 1061   6.999   0.580   8.791
 1062OM     OM1 1062   6.946   0.686   8.471
 1063OM     OM1 1063   5.000   8.928   7.523
 1064OM     OM1 1064   5.002   8.822   7.752
 1065OM     OM1 1065   5.205   8.773   7.585
 1066OM     OM1 1066   9.129   0.702   6.738
 1067OM     OM1 1067   9.218   0.789   6.530
 1068OM     OM1 1068   8.963   0.850   6.587
 1069OM     OM1 1069   9.152   0.967   6.714
 1070OM     OM1 1070   9.044   0.593   7.664
 1071OM     OM1 1071   8.907   0.472   7.862
 1072OM     OM1 1072   8.935   0.731   7.848
 1073OM     OM1 1073   4.521   1.140   6.145
 1074OM     OM1 1074   4.369   0.947   6.033
 1075OM     OM1 1075   4.322   1.193   5.993
 1076OM     OM1 1076   4.527   1.082   5.881
 1077OM     OM1 1077   5.615   1.033   7.386
 1078OM     OM1 1078   5.618   0.803   7.511
 1079OM     OM1 1079   5.387   0.923   7.459
 1080OM     OM1 1080   5.536   0.807   7.278
 1081OM     OM1 1081   1.802   8.581   6.949
 1082OM     OM1 1082   1.840   8.564   7.205
 1083OM     OM1 1083   2.020   8.462   7.058
 1084OM     OM1 1084   1.991   8.718   7.058
 1085OM     OM1 1085   0.943   8.975   7.304
 1086OM     OM1 1086   1.007   9.116   7.089
 1087OM     OM1 1087   0.764   9.123   7.197
 1088OM     OM1 1088   0.963   9.245   7.308
 1089OM     OM1 1089   0.763   9.494   5.111
 1090OM     OM1 1090   0.808   0.140   5.092
 1091OM     OM1 1091   1.022   9.593   5.123
 1092OM     OM1 1092   0.873   0.024   5.317
 1093OM     OM1 1093   8.102   9.274   9.451
 1094OM     OM1 1094   8.095   9.371   0.090
 1095OM     OM1 1095   8.303   9.251   0.015
 1096OM     OM1 1096   8.460   8.928   0.512
 1097OM     OM1 1097   8.319   8.838   0.313
 1098OM     OM1 1098   8.480   9.044   0.278
 1099OM     OM1 1099   8.255   9.063   0.413
 1100OM     OM1 1100   3.381   9.344   8.537
 1101OM     OM1 1101   3.583   9.464   8.650
 1102OM     OM1 1102   3.390   9.597   8.518
 1103OM     OM1 1103   3.563   9.447   8.386
 1104OM     OM1 1104   0.748   0.373   3.336
 1105OM     OM1 1105   0.799   0.179   3.158
 1106OM     OM1 1106   0.786   0.428   3.085
 1107OM     OM1 1107   4.600   8.940   7.692
 1108OM     OM1 1108   4.667   8.936   7.945
 1109OM     OM1 1109   4.569   9.148   7.846
 1110OM     OM1 1110   5.637   8.190   3.567
 1111OM     OM1 1111   5.441   8.343   3.501
 1112OM     OM1 1112   5.490   8.288   3.761
 1113OM     OM1 1113   8.892   0.661   0.032
 1114OM     OM1 1114   8.998   0.799   0.224
 1115OM     OM1 1115   8.940   0.411   0.013
 1116OM     OM1 1116   8.690   0.489   0.038
 1117OM     OM1 1117   0.215   1.063   1.053
 1118OM     OM1 1118   0.339   1.268   1.148
 1119OM     OM1 1119   0.350   1.233   0.889
 1120OM     OM1 1120   0.121   1.290   0.987
 1121OM     OM1 1121   8.419   8.557   0.100
 1122OM     OM1 1122   8.452   8.509   0.360
 1123OM     OM1 1123   8.598   8.392   0.165
 1124OM     OM1 1124   8.629   8.650   0.228
 1125OM     OM1 1125   3.736   0.362   2.039
 1126OM     OM1 1126   3.707   0.244   1.819
 1127OM     OM1 1127   3.726   0.503   1.821
 1128OM     OM1 1128   8.930   8.839   4.967
 1129OM     OM1 1129   9.041   8.658   5.116
 1130OM     OM1 1130   4.734   9.557   6.568
 1131OM     OM1 1131   4.891   9.390   6.222
 1132OM     OM1 1132   4.730   0.100   6.354
 1133OM     OM1 1133   3.080   9.529   3.395
 1134OM     OM1 1134   2.845   9.580   3.507
 1135OM     OM1 1135   2.855   9.463   3.276
 1136OM     OM1 1136   2.930   9.337   3.493
 1137OM     OM1 1137   3.480   8.424   7.576
 1138OM     OM1 1138   7.526   9.536   0.515
 1139OM     OM1 1139   7.286   9.599   0.507
 1140OM     OM1 1140   7.357   9.386   0.648
 1141OM     OM1 1141   7.393   0.011   0.743
 1142OM     OM1 1142   7.546   0.247   4.713
 1143OM     OM1 1143   7.681   0.062   4.863
 1144OM     OM1 1144   7.517   9.600   4.678
 1145OM     OM1 1145   7.751   0.119   4.620
 1146OM     OM1 1146   3.890   8.575   5.556
 1147OM     OM1 1147   4.089   8.698   5.663
 1148OM     OM1 1148   4.117   8.446   5.642
 1149OM     OM1 1149   3.932   8.532   5.809
 1150OM     OM1 1150   2.493   0.068   3.228
 1151OM     OM1 1151   2.653   0.199   3.066
 1152OM     OM1 1152   2.594   0.004   3.454
 1153OM     OM1 1153   5.228   0.922   4.923
 1154OM     OM1 1154   5.030   1.003   5.077
 1155OM     OM1 1155   5.273   1.018   5.171
 1156OM     OM1 1156   5.172   0.782   5.131
 1157OM     OM1 1157   5.956   8.640   6.497
 1158OM     OM1 1158   5.985   8.866   6.380
 1159OM     OM1 1159   6.149   8.802   6.563
 1160OM     OM1 1160   6.655   9.287   8.868
 1161OM     OM1 1161   6.997   9.240   8.526
 1162OM     OM1 1162   6.887   9.253   8.771
 1163OM     OM1 1163   6.847   9.463   8.913
 1164OM     OM1 1164   5.741   0.279   4.556
 1165OM     OM1 1165   5.949   0.126   4.625
 1166OM     OM1 1166   5.716   0.111   4.750
 1167OM     OM1 1167   5.735   0.036   4.496
 1168OM     OM1 1168   0.701   1.125   0.290
 1169OM     OM1 1169   0.858   0.958   0.426
 1170OM     OM1 1170   0.746   1.162   0.542
 1171OM     OM1 1171   0.947   1.185   0.351
 1172OM     OM1 1172   0.630   9.008   4.952
 1173OM     OM1 1173   0.824   9.065   5.112
 1174OM     OM1 1174   0.587   9.068   5.202
 1175OM     OM1 1175   0.655   9.263   5.038
 1176OM     OM1 1176   0.709   9.425   4.161
 1177OM     OM1 1177   0.795   9.446   3.917
 1178OM     OM1 1178   0.859   0.026   4.098
 1179OM     OM1 1179   7.237   8.372   1.138
 1180OM     OM1 1180   7.282   8.128   1.226
 1181OM     OM1 1181   1.927   0.190   7.135
 1182OM     OM1 1182   2.098   0.394   7.119
 1183OM     OM1 1183   1.893   0.366   6.946
 1184OM     OM1 1184   2.097   0.222   6.931
 1185OM     OM1 1185   8.815   0.735   8.394
 1186OM     OM1 1186   8.974   0.734   8.600
 1187OM     OM1 1187   8.958   0.527   8.444
 1188OM     OM1 1188   9.073   0.745   8.361
 1189OM     OM1 1189   8.367   9.374   6.965
 1190OM     OM1 1190   8.325   9.585   6.802
 1191OM     OM1 1191   8.483   9.380   6.743
 1192OM     OM1 1192   8.241   9.165   7.030
 1193OM     OM1 1193   2.675   8.959   0.305
 1194OM     OM1 1194   2.475   8.806   0.311
 1195OM     OM1 1195   2.643   8.794   0.104
 1196OM     OM1 1196   2.712   8.699   0.331
 1197OM     OM1 1197   7.556   9.559   5.059
 1198OM     OM1 1198   7.796   0.047   5.106
 1199OM     OM1 1199   0.653   0.533   9.540
 1200OM     OM1 1200   0.724   0.631   9.078
 1201OM     OM1 1201   0.807   0.556   9.334
 1202OM     OM1 1202   0.600   0.685   9.299
 1203OM     OM1 1203   7.274   9.107   5.950
 1204OM     OM1 1204   7.557   8.777   5.961
 1205OM     OM1 1205   7.454   8.820   5.737
 1206OM     OM1 1206   1.848   1.236   4.144
 1207OM     OM1 1207   2.027   1.349   4.301
 1208OM     OM1 1208   1.352   0.816   1.058
 1209OM     OM1 1209   1.372   1.011   1.236
 1210OM     OM1 1210   1.224   1.032   1.016
 1211OM     OM1 1211   8.902   9.089   7.902
 1212OM     OM1 1212   8.881   9.275   7.715
 1213OM     OM1 1213   8.759   9.304   7.939
 1214OM     OM1 1214   9.018   9.329   7.930
 1215OM     OM1 1215   7.752   0.984   2.058
 1216OM     OM1 1216   7.999   1.073   2.103
 1217OM     OM1 1217   7.959   0.825   2.037
 1218OM     OM1 1218   7.867   0.900   2.270
 1219OM     OM1 1219   5.446   8.796   5.934
 1220OM     OM1 1220   5.281   8.757   5.566
 1221OM     OM1 1221   5.339   8.556   5.924
 1222OM     OM1 1222   3.043   8.264   5.763
 1223OM     OM1 1223   3.169   8.280   5.989
 1224OM     OM1 1224   3.287   8.176   5.768
 1225OM     OM1 1225   4.531   0.498   6.466
 1226OM     OM1 1226   4.546   0.248   6.452
 1227OM     OM1 1227   4.441   0.368   6.675
 1228OM     OM1 1228   4.692   0.355   6.627
 1229OM     OM1 1229   0.428   8.649   1.586
 1230OM     OM1 1230   0.622   8.495   1.644
 1231OM     OM1 1231   0.381   8.409   1.688
 1232OM     OM1 1232   0.478   8.596   1.837
 1233OM     OM1 1233   4.964   0.194   2.686
 1234OM     OM1 1234   4.719   0.270   2.698
 1235OM     OM1 1235   4.790   0.018   2.773
 1236OM     OM1 1236   4.758   0.081   2.530
 1237OM     OM1 1237   9.228   8.463   4.008
 1238OM     OM1 1238   9.479   8.406   3.948
 1239OM     OM1 1239   9.299   8.451   3.766
 1240OM     OM1 1240   7.178   8.421   1.916
 1241OM     OM1 1241   7.089   8.642   2.015
 1242OM     OM1 1242   7.231   8.653   1.798
 1243OM     OM1 1243   8.053   9.211   7.867
 1244OM     OM1 1244   8.201   9.283   7.663
 1245OM     OM1 1245   8.282   9.323   7.918
 1246OM     OM1 1246   2.091   9.022   4.511
 1247OM     OM1 1247   2.105   9.237   4.374
 1248OM     OM1 1248   2.186   9.026   4.257
 1249OM     OM1 1249   2.320   9.140   4.465
 1250OM     OM1 1250   3.495   9.261   0.377
 1251OM     OM1 1251   3.564   9.452   0.548
 1252OM     OM1 1252   3.311   9.391   0.516
 1253OM     OM1 1253   3.479   9.230   0.632
 1254OM     OM1 1254   8.368   0.247   9.195
 1255OM     OM1 1255   8.396   0.508   9.158
 1256OM     OM1 1256   8.163   0.436   9.219
 1257OM     OM1 1257   8.329   0.406   9.402
 1258OM     OM1 1258   1.798   1.108   1.990
 1259OM     OM1 1259   1.415   1.284   6.837
 1260OM     OM1 1260   1.177   1.262   6.801
 1261OM     OM1 1261   1.324   1.192   6.587
 1262OM     OM1 1262   1.335   1.045   6.801
 1263OM     OM1 1263   4.904   8.609   3.105
 1264OM     OM1 1264   4.811   8.846   3.138
 1265OM     OM1 1265   4.765   8.716   2.916
 1266OM     OM1 1266   6.718   0.910   4.652
 1267OM     OM1 1267   6.503   0.963   4.510
 1268OM     OM1 1268   6.498   0.827   4.742
 1269OM     OM1 1269   6.548   1.089   4.732
 1270OM     OM1 1270   5.441   0.499   0.217
 1271OM     OM1 1271   5.571   0.653   0.054
 1272OM     OM1 1272   5.369   0.752   0.170
 1273OM     OM1 1273   5.330   0.560   9.599
 1274OM     OM1 1274   6.050   9.552   7.124
 1275OM     OM1 1275   6.247   9.548   7.293
 1276OM     OM1 1276   6.231   9.377   7.076
 1277OM     OM1 1277   6.078   9.342   7.272
 1278OM     OM1 1278   3.122   9.560   0.597
 1279OM     OM1 1279   2.948   0.138   0.654
 1280OM     OM1 1280   2.914   0.013   0.448
 1281OM     OM1 1281   3.130   0.172   0.455
 1282OM     OM1 1282   1.120   0.085   7.387
 1283OM     OM1 1283   1.064   0.042   7.645
 1284OM     OM1 1284   1.172   0.426   7.510
 1285OM     OM1 1285   1.261   0.185   7.580
 1286OM     OM1 1286   8.251   8.492   8.538
 1287OM     OM1 1287   8.187   8.659   8.355
 1288OM     OM1 1288   8.468   8.327   8.527
 1289OM     OM1 1289   4.618   8.742   6.975
 1290OM     OM1 1290   4.591   8.643   6.734
 1291OM     OM1 1291   4.521   8.504   6.951
 1292OM     OM1 1292   4.629   8.806   4.097
 1293OM     OM1 1293   4.726   8.743   4.326
 1294OM     OM1 1294   4.488   8.659   4.269
 1295OM     OM1 1295   4.688   8.554   4.142
 1296OM     OM1 1296   0.404   0.095   1.413
 1297OM     OM1 1297   0.455   0.270   1.223
 1298OM     OM1 1298   0.303   0.069   1.177
 1299OM     OM1 1299   1.669   8.900   2.992
 1300OM     OM1 1300   1.479   8.738   3.089
 1301OM     OM1 1301   1.508   8.986   3.163
 1302OM     OM1 1302   1.421   8.933   2.925
 1303OM     OM1 1303   0.614   0.508   8.607
 1304OM     OM1 1304   0.535   0.781   8.971
 1305OM     OM1 1305   0.701   0.663   8.814
 1306OM     OM1 1306   0.864   0.514   8.675
 1307OM     OM1 1307   3.524   9.102   4.042
 1308OM     OM1 1308   3.357   9.054   3.841
 1309OM     OM1 1309   3.292   9.017   4.094
 1310OM     OM1 1310   4.503   0.555   6.205
 1311OM     OM1 1311   4.401   0.706   6.391
 1312OM     OM1 1312   4.653   0.705   6.373
 1313OM     OM1 1313   9.336   0.756   9.467
 1314OM     OM1 1314   9.152   0.695   0.038
 1315OM     OM1 1315   9.229   0.522   9.463
 1316OM     OM1 1316   9.387   0.589   0.063
 1317OM     OM1 1317   4.148   0.731   6.796
 1318OM     OM1 1318   4.360   0.787   6.917
 1319OM     OM1 1319   4.321   0.541   6.828
 1320OM     OM1 1320   4.357   0.728   6.649
 1321OM     OM1 1321   5.639   0.324   0.203
 1322OM     OM1 1322   5.884   0.387   0.258
 1323OM     OM1 1323   5.842   0.162   0.144
 1324OM     OM1 1324   5.757   0.196   0.393
 1325OM     OM1 1325   9.456   8.496   2.113
 1326OM     OM1 1326   9.299   8.567   1.923
 1327OM     OM1 1327   9.425   8.338   1.912
 1328OM     OM1 1328   9.565   8.545   1.878
 1329OM     OM1 1329   8.225   8.306   4.025
 1330OM     OM1 1330   8.280   8.270   4.280
 1331OM     OM1 1331   8.021   8.377   3.883
 1332OM     OM1 1332   6.108   0.552   4.822
 1333OM     OM1 1333   6.194   0.751   4.671
 1334OM     OM1 1334   6.226   0.497   4.601
 1335OM     OM1 1335   6.366   0.604   4.790
 1336OM     OM1 1336   3.666   8.555   3.067
 1337OM     OM1 1337   3.926   8.508   2.993
 1338OM     OM1 1338   3.724   8.527   2.823
 1339OM     OM1 1339   3.819   8.733   2.937
 1340OM     OM1 1340   5.636   9.481   9.383
 1341OM     OM1 1341   5.840   9.365   9.490
 1342OM     OM1 1342   5.804   0.008   9.540
 1343OM     OM1 1343   7.920   8.275   7.319
 1344OM     OM1 1344   7.675   8.215   7.240
 1345OM     OM1 1345   8.124   0.367   8.679
 1346OM     OM1 1346   7.934   0.526   8.581
 1347OM     OM1 1347   7.873   0.305   8.701
 1348OM     OM1 1348   7.974   0.496   8.847
 1349OM     OM1 1349   0.213   0.709   4.437
 1350OM     OM1 1350   0.225   0.437   4.449
 1351OM     OM1 1351   0.425   0.592   4.368
 1352OM     OM1 1352   0.299   0.240   4.305
 1353OM     OM1 1353   7.137   0.302   2.811
 1354OM     OM1 1354   6.690   0.317   2.623
 1355OM     OM1 1355   6.904   0.338   2.919
 1356OM     OM1 1356   6.916   0.216   2.695
 1357OM     OM1 1357   2.160   8.886   5.169
 1358OM     OM1 1358   1.837   8.727   4.840
 1359OM     OM1 1359   1.967   9.062   5.169
 1360OM     OM1 1360   2.000   8.906   4.960
 1361OM     OM1 1361   1.851   9.033   7.737
 1362OM     OM1 1362   1.894   9.100   7.480
 1363OM     OM1 1363   1.711   8.925   7.553
 1364OM     OM1 1364   1.683   9.181   7.601
 1365OM     OM1 1365   5.581   0.475   2.426
 1366OM     OM1 1366   5.766   0.651   2.478
 1367OM     OM1 1367   5.498   0.710   2.437
 1368OM     OM1 1368   5.575   0.597   2.654
 1369OM     OM1 1369   4.427   8.390   3.631
 1370OM     OM1 1370   4.373   8.417   3.883
 1371OM     OM1 1371   4.563   8.569   3.765
 1372OM     OM1 1372   4.594   8.314   3.822
 1373OM     OM1 1373   3.928   0.702   3.210
 1374OM     OM1 1374   4.152   0.575   3.176
 1375OM     OM1 1375   3.952   0.460   3.307
 1376OM     OM1 1376   6.185   9.386   8.840
 1377OM     OM1 1377   6.415   9.286   8.758
 1378OM     OM1 1378   6.310   9.199   8.976
 1379OM     OM1 1379   6.408   9.445   8.957
 1380OM     OM1 1380   4.006   8.327   8.720
 1381OM     OM1 1381   4.159   8.321   8.934
 1382OM     OM1 1382   4.252   8.231   8.720
 1383OM     OM1 1383   1.616   8.722   2.023
 1384OM     OM1 1384   1.749   8.949   2.010
 1385OM     OM1 1385   1.872   8.727   1.978
 1386OM     OM1 1386   1.705   8.824   1.794
 1387OM     OM1 1387   2.600   1.082   0.734
 1388OM     OM1 1388   2.754   1.088   0.945
 1389OM     OM1 1389   2.846   0.986   0.718
 1390OM     OM1 1390   2.688   0.896   6.721
 1391OM     OM1 1391   2.618   0.632   6.703
 1392OM     OM1 1392   2.814   0.716   6.851
 1393OM     OM1 1393   2.823   0.721   6.582
 1394OM     OM1 1394   4.585   8.879   6.338
 1395OM     OM1 1395   4.576   9.088   6.494
 1396OM     OM1 1396   4.745   8.898   6.537
 1397OM     OM1 1397   4.497   8.850   6.589
 1398OM     OM1 1398   3.851   8.931   3.289
 1399OM     OM1 1399   3.737   8.998   3.522
 1400OM     OM1 1400   3.709   9.145   3.309
 1401OM     OM1 1401   3.587   8.916   3.327
 1402OM     OM1 1402   2.781   8.996   8.578
 1403OM     OM1 1403   2.475   9.347   8.403
 1404OM     OM1 1404   2.555   8.872   8.538
 1405OM     OM1 1405   2.588   9.125   8.469
 1406OM     OM1 1406   2.376   8.399   4.564
 1407OM     OM1 1407   2.562   8.281   4.407
 1408OM     OM1 1408   2.622   8.403   4.636
 1409OM     OM1 1409   3.274   9.131   6.161
 1410OM     OM1 1410   3.196   9.268   6.362
 1411OM     OM1 1411   3.117   9.494   6.269
 1412OM     OM1 1412   3.000   9.277   6.186
 1413OM     OM1 1413   8.914   8.359   2.136
 1414OM     OM1 1414   8.726   8.204   2.040
 1415OM     OM1 1415   7.863   0.711   2.464
 1416OM     OM1 1416   7.732   0.943   2.491
 1417OM     OM1 1417   7.648   0.758   2.329
 1418OM     OM1 1418   7.398   9.099   2.836
 1419OM     OM1 1419   7.316   9.232   2.617
 1420OM     OM1 1420   7.423   8.998   2.609
 1421OM     OM1 1421   7.180   9.034   2.729
 1422OM     OM1 1422   5.646   8.836   8.221
 1423OM     OM1 1423   5.770   8.753   8.426
 1424OM     OM1 1424   5.908   8.901   8.255
 1425OM     OM1 1425   5.733   9.012   8.402
 1426OM     OM1 1426   3.895   9.239   0.466
 1427OM     OM1 1427   4.152   9.249   0.476
 1428OM     OM1 1428   4.041   9.359   0.270
 1429OM     OM1 1429   4.012   9.473   0.497
 1430OM     OM1 1430   2.507   9.404   7.812
 1431OM     OM1 1431   2.385   9.576   7.961
 1432OM     OM1 1432   2.615   0.037   7.882
 1433OM     OM1 1433   0.066   9.153   5.138
 1434OM     OM1 1434   0.064   9.413   5.194
 1435OM     OM1 1435   9.464   9.294   5.098
 1436OM     OM1 1436   0.042   0.178   8.943
 1437OM     OM1 1437   9.476   0.255   9.131
 1438OM     OM1 1438   9.403   0.086   8.947
 1439OM     OM1 1439   9.429   0.339   8.892
 1440OM     OM1 1440   3.120   0.178   3.432
 1441OM     OM1 1441   3.294   0.358   3.358
 1442OM     OM1 1442   3.180   0.371   3.591
 1443OM     OM1 1443   4.427   8.405   4.282
 1444OM     OM1 1444   4.279   8.229   4.386
 1445OM     OM1 1445   3.496   9.183   2.522
 1446OM     OM1 1446   3.355   9.359   2.636
 1447OM     OM1 1447   3.497   9.418   2.421
 1448OM     OM1 1448   3.630   9.378   2.639
 1449OM     OM1 1449   7.065   8.350   7.865
 1450OM     OM1 1450   7.166   8.247   7.653
 1451OM     OM1 1451   5.260   9.165   4.762
 1452OM     OM1 1452   5.136   8.956   4.874
 1453OM     OM1 1453   5.121   9.187   4.988
 1454OM     OM1 1454   4.220   8.410   2.626
 1455OM     OM1 1455   3.997   8.299   2.713
 1456OM     OM1 1456   4.147   8.438   2.877
 1457OM     OM1 1457   7.926   0.368   9.187
 1458OM     OM1 1458   7.979   0.552   9.370
 1459OM     OM1 1459   7.992   0.597   9.101
 1460OM     OM1 1460   8.465   0.643   2.378
 1461OM     OM1 1461   8.277   0.901   2.676
 1462OM     OM1 1462   8.501   0.778   2.627
 1463OM     OM1 1463   8.225   0.382   2.615
 1464OM     OM1 1464   6.504   9.369   9.582
 1465OM     OM1 1465   6.530   0.022   9.575
 1466OM     OM1 1466   6.288   9.517   0.031
 1467OM     OM1 1467   6.494   9.517   0.191
 1468OM     OM1 1468   5.969   8.491   6.704
 1469OM     OM1 1469   5.949   8.504   7.062
 1470OM     OM1 1470   6.086   8.325   6.884
 1471OM     OM1 1471   5.909   8.253   7.058
 1472OM     OM1 1472   9.242   0.504   8.984
 1473OM     OM1 1473   9.195   0.597   9.213
 1474OM     OM1 1474   9.017   0.644   9.015
 1475OM     OM1 1475   9.237   0.762   9.018
 1476OM     OM1 1476   2.043   1.445   6.976
 1477OM     OM1 1477   1.847   1.283   7.021
 1478OM     OM1 1478   7.726   0.989   3.000
 1479OM     OM1 1479   7.515   0.886   3.096
 1480OM     OM1 1480   7.727   0.935   3.254
 1481OM     OM1 1481   7.581   1.134   3.172
 1482OM     OM1 1482   4.254   9.459   6.625
 1483OM     OM1 1483   4.502   9.506   6.698
 1484OM     OM1 1484   4.283   0.057   6.773
 1485OM     OM1 1485   4.317   9.423   6.869
 1486OM     OM1 1486   2.543   0.560   3.877
 1487OM     OM1 1487   2.753   0.638   3.753
 1488OM     OM1 1488   2.717   0.373   3.795
 1489OM     OM1 1489   2.578   0.509   3.619
 1490OM     OM1 1490   5.367   0.604   8.077
 1491OM     OM1 1491   5.319   0.832   8.178
 1492OM     OM1 1492   5.153   0.632   8.222
 1493OM     OM1 1493   5.390   0.630   8.339
 1494OM     OM1 1494   5.749   8.633   1.953
 1495OM     OM1 1495   5.811   8.413   1.823
 1496OM     OM1 1496   5.571   8.437   1.908
 1497OM     OM1 1497   5.642   8.603   1.724
 1498OM     OM1 1498   8.587   0.381   3.490
 1499OM     OM1 1499   8.241   0.104   3.453
 1500OM     OM1 1500   8.406   0.258   3.328
 1501OM     OM1 1501   8.605   0.131   3.434
 1502OM     OM1 1502   6.939   0.599   8.146
 1503OM     OM1 1503   7.128   0.705   8.280
 1504OM     OM1 1504   7.188   0.614   8.031
 1505OM     OM1 1505   7.130   0.453   8.228
 1506OM     OM1 1506   5.011   0.495   7.213
 1507OM     OM1 1507   5.084   0.734   7.219
 1508OM     OM1 1508   5.026   0.618   7.452
 1509OM     OM1 1509   5.243   0.555   7.319
 1510OM     OM1 1510   0.110   0.848   0.931
 1511OM     OM1 1511   0.082   0.600   0.907
 1512OM     OM1 1512   0.330   0.746   0.875
 1513OM     OM1 1513   0.151   0.730   0.698
 1514OM     OM1 1514   4.471   0.872   8.250
 1515OM     OM1 1515   4.410   0.666   8.415
 1516OM     OM1 1516   4.449   0.637   8.159
 1517OM     OM1 1517   4.237   0.771   8.267
 1518OM     OM1 1518   7.214   0.778   5.279
 1519OM     OM1 1519   7.002   0.631   5.280
 1520OM     OM1 1520   6.995   0.878   5.202
 1521OM     OM1 1521   7.114   0.690   5.050
 1522OM     OM1 1522   2.967   8.997   3.899
 1523OM     OM1 1523   2.895   9.249   3.954
 1524OM     OM1 1524   2.975   9.187   3.711
 1525OM     OM1 1525   2.750   9.102   3.800
 1526OM     OM1 1526   8.857   1.239   6.298
 1527OM     OM1 1527   8.832   1.002   6.423
 1528OM     OM1 1528   8.825   1.017   6.165
 1529OM     OM1 1529   9.055   1.066   6.295
 1530OM     OM1 1530   7.450   9.021   1.725
 1531OM     OM1 1531   7.332   9.118   1.522
 1532OM     OM1 1532   7.493   8.906   1.487
 1533OM     OM1 1533   7.594   9.131   1.548
 1534OM     OM1 1534   0.147   9.048   8.475
 1535OM     OM1 1535   0.083   9.084   8.224
 1536OM     OM1 1536   0.015   8.870   8.359
 1537OM     OM1 1537   9.501   9.107   8.408
 1538OM     OM1 1538   3.397   9.183   3.617
 1539OM     OM1 1539   3.532   8.965   3.675
 1540OM     OM1 1540   3.276   8.960   3.603
 1541OM     OM1 1541   2.088   8.426   4.172
 1542OM     OM1 1542   1.836   8.409   4.109
 1543OM     OM1 1543   4.019   9.321   5.256
 1544OM     OM1 1544   4.182   9.494   5.374
 1545OM     OM1 1545   4.064   9.299   5.510
 1546OM     OM1 1546   4.256   9.251   5.338
 1547OM     OM1 1547   2.217   0.168   0.421
 1548OM     OM1 1548   2.462   0.187   0.332
 1549OM     OM1 1549   2.283   0.301   0.193
 1550OM     OM1 1550   2.282   0.048   0.192
 1551OM     OM1 1551   4.814   9.429   2.324
 1552OM     OM1 1552   4.676   9.414   2.112
 1553OM     OM1 1553   4.807   0.030   2.141
 1554OM     OM1 1554   4.629   9.597   2.314
 1555OM     OM1 1555   0.560   0.390   0.303
 1556OM     OM1 1556   0.795   0.304   0.341
 1557OM     OM1 1557   0.772   0.538   0.236
 1558OM     OM1 1558   0.695   0.340   0.091
 1559OM     OM1 1559   8.120   9.491   4.296
 1560OM     OM1 1560   8.013   9.533   4.075
 1561OM     OM1 1561   8.056   0.135   4.221
 1562OM     OM1 1562   8.263   0.019   4.120
 1563OM     OM1 1563   7.815   1.100   7.892
 1564OM     OM1 1564   7.816   0.849   7.991
 1565OM     OM1 1565   8.034   0.959   7.915
 1566OM     OM1 1566   7.915   1.058   8.127
 1567OM     OM1 1567   5.343   9.064   2.073
 1568OM     OM1 1568   5.599   8.767   2.222
 1569OM     OM1 1569   5.365   8.850   2.219
 1570OM     OM1 1570   5.422   9.073   2.330
 1571OM     OM1 1571   4.969   0.629   1.275
 1572OM     OM1 1572   4.970   0.726   1.507
 1573OM     OM1 1573   5.091   0.489   1.458
 1574OM     OM1 1574   5.201   0.705   1.379
 1575OM     OM1 1575   8.554   0.704   0.070
 1576OM     OM1 1576   8.407   0.904   0.149
 1577OM     OM1 1577   8.420   0.493   0.024
 1578OM     OM1 1578   8.554   0.521   0.253
 1579OM     OM1 1579   6.556   0.562   5.446
 1580OM     OM1 1580   6.307   0.625   5.486
 1581OM     OM1 1581   6.506   0.793   5.564
 1582OM     OM1 1582   6.456   0.572   5.685
 1583OM     OM1 1583   2.825   1.076   2.592
 1584OM     OM1 1584   2.718   0.846   2.665
 1585OM     OM1 1585   2.731   1.032   2.843
 1586OM     OM1 1586   0.907   9.333   7.007
 1587OM     OM1 1587   0.866   9.575   6.940
 1588OM     OM1 1588   0.979   9.603   6.713
 1589OM     OM1 1589   5.320   0.593   5.888
 1590OM     OM1 1590   5.194   0.416   6.049
 1591OM     OM1 1591   5.118   0.456   5.800
 1592OM     OM1 1592   5.082   0.633   5.994
 1593OM     OM1 1593   6.318   8.833   5.918
 1594OM     OM1 1594   6.465   8.883   5.713
 1595OM     OM1 1595   6.332   8.653   5.719
 1596OM     OM1 1596   6.284   0.369   3.449
 1597OM     OM1 1597   6.037   0.298   3.410
 1598OM     OM1 1598   6.209   0.379   3.200
 1599OM     OM1 1599   0.146   0.201   6.098
 1600OM     OM1 1600   0.113   0.160   6.349
 1601OM     OM1 1601   0.352   0.243   6.269
 1602OM     OM1 1602   0.087   9.013   0.348
 1603OM     OM1 1603   0.168   9.233   0.254
 1604OM     OM1 1604   9.571   9.222   0.441
 1605OM     OM1 1605   2.596   9.605   6.586
 1606OM     OM1 1606   2.409   9.508   6.725
 1607OM     OM1 1607   2.642   9.480   6.821
 1608OM     OM1 1608   2.555   0.120   6.811
 1609OM     OM1 1609   8.945   8.916   0.392
 1610OM     OM1 1610   8.720   8.946   0.534
 1611OM     OM1 1611   8.959   8.996   0.642
 1612OM     OM1 1612   9.012   8.975   0.146
 1613OM     OM1 1613   9.180   0.434   8.519
 1614OM     OM1 1614   8.992   0.268   8.427
 1615OM     OM1 1615   8.978   0.386   8.666
 1616OM     OM1 1616   0.038   8.891   6.795
 1617OM     OM1 1617   9.586   8.692   6.961
 1618OM     OM1 1618   0.226   8.761   6.908
 1619OM     OM1 1619   8.698   9.572   1.687
 1620OM     OM1 1620   8.758   0.216   1.716
 1621OM     OM1 1621   8.956   0.215   1.546
 1622OM     OM1 1622   8.981   0.119   1.797
 1623OM     OM1 1623   3.725   1.226   5.436
 1624OM     OM1 1624   3.625   0.978   5.444
 1625OM     OM1 1625   3.632   1.119   5.229
 1626OM     OM1 1626   4.662   9.365   5.473
 1627OM     OM1 1627   4.686   9.139   5.585
 1628OM     OM1 1628   4.503   9.165   5.400
 1629OM     OM1 1629   4.760   9.172   5.337
 1630OM     OM1 1630   1.456   0.234   1.970
 1631OM     OM1 1631   1.515   0.461   1.882
 1632OM     OM1 1632   1.347   0.456   2.076
 1633OM     OM1 1633   1.497   0.420   1.635
 1634OM     OM1 1634   2.817   1.292   3.244
 1635OM     OM1 1635   2.929   1.190   3.037
 1636OM     OM1 1636   2.682   1.137   3.074
 1637OM     OM1 1637   7.238   0.785   7.565
 1638OM     OM1 1638   7.319   0.737   7.810
 1639OM     OM1 1639   7.480   0.705   7.617
 1640OM     OM1 1640   7.376   0.964   7.661
 1641OM     OM1 1641   3.331   8.511   4.216
 1642OM     OM1 1642   3.530   8.390   4.314
 1643OM     OM1 1643   3.505   8.402   4.052
 1644OM     OM1 1644   7.247   8.314   3.972
 1645OM     OM1 1645   7.360   8.399   4.185
 1646OM     OM1 1646   7.501   8.434   3.968
 1647OM     OM1 1647   4.435   9.087   7.566
 1648OM     OM1 1648   4.654   8.906   7.191
 1649OM     OM1 1649   4.543   8.899   7.436
 1650OM     OM1 1650   6.965   1.141   2.182
 1651OM     OM1 1651   6.771   1.277   2.272
 1652OM     OM1 1652   6.846   8.318   7.036
 1653OM     OM1 1653   7.010   8.467   7.173
 1654OM     OM1 1654   6.791   8.386   7.276
 1655OM     OM1 1655   6.670   8.357   6.842
 1656OM     OM1 1656   1.011   0.589   3.894
 1657OM     OM1 1657   0.990   0.842   3.916
 1658OM     OM1 1658   1.219   0.752   3.854
 1659OM     OM1 1659   1.023   0.743   3.678
 1660OM     OM1 1660   4.493   0.756   5.654
 1661OM     OM1 1661   4.298   0.812   5.821
 1662OM     OM1 1662   4.244   0.731   5.579
 1663OM     OM1 1663   4.342   0.972   5.621
 1664OM     OM1 1664   0.561   9.233   5.573
 1665OM     OM1 1665   0.397   9.354   5.414
 1666OM     OM1 1666   0.429   9.089   5.405
 1667OM     OM1 1667   0.302   9.192   5.606
 1668OM     OM1 1668   5.170   0.054   3.768
 1669OM     OM1 1669   5.195   9.548   4.001
 1670OM     OM1 1670   5.146   9.394   3.805
 1671OM     OM1 1671   4.956   9.557   3.880
 1672OM     OM1 1672   8.754   9.325   1.582
 1673OM     OM1 1673   8.536   9.381   1.709
 1674OM     OM1 1674   3.136   0.210   2.514
 1675OM     OM1 1675   3.060   0.041   2.320
 1676OM     OM1 1676   3.276   0.203   2.288
 1677OM     OM1 1677   3.033   0.293   2.296
 1678OM     OM1 1678   7.343   0.227   1.443
 1679OM     OM1 1679   7.420   0.014   1.313
 1680OM     OM1 1680   7.387   9.602   1.565
 1681OM     OM1 1681   7.630   8.432   7.104
 1682OM     OM1 1682   7.461   8.354   7.283
 1683OM     OM1 1683   7.465   8.249   7.057
 1684OM     OM1 1684   4.476   8.354   7.165
 1685OM     OM1 1685   4.060   8.244   6.935
 1686OM     OM1 1686   9.074   1.161   0.236
 1687OM     OM1 1687   9.315   1.095   0.253
 1688OM     OM1 1688   9.282   1.169   0.002
 1689OM     OM1 1689   1.355   8.357   0.576
 1690OM     OM1 1690   1.523   8.504   0.699
 1691OM     OM1 1691   1.317   8.445   0.823
 1692OM     OM1 1692   9.071   0.709   4.826
 1693OM     OM1 1693   9.030   0.509   4.658
 1694OM     OM1 1694   9.112   0.745   4.577
 1695OM     OM1 1695   8.861   0.710   4.656
 1696OM     OM1 1696   1.219   8.552   9.511
 1697OM     OM1 1697   1.463   8.480   9.477
 1698OM     OM1 1698   1.507   8.571   9.235
 1699OM     OM1 1699   1.526   8.316   9.290
 1700OM     OM1 1700   8.187   8.595   5.465
 1701OM     OM1 1701   8.176   8.336   5.426
 1702OM     OM1 1702   8.145   8.498   5.230
 1703OM     OM1 1703   7.955   8.466   5.415
 1704OM     OM1 1704   1.743   8.900   4.104
 1705OM     OM1 1705   1.955   8.745   4.046
 1706OM     OM1 1706   1.830   8.718   4.263
 1707OM     OM1 1707   1.718   8.637   4.049
 1708OM     OM1 1708   6.829   9.312   0.384
 1709OM     OM1 1709   6.674   9.515   0.378
 1710OM     OM1 1710   6.577   9.292   0.438
 1711OM     OM1 1711   8.022   1.199   4.782
 1712OM     OM1 1712   8.112   1.240   5.034
 1713OM     OM1 1713   7.965   1.005   4.610
 1714OM     OM1 1714   8.207   1.057   4.636
 1715OM     OM1 1715   6.768   8.424   0.777
 1716OM     OM1 1716   6.593   8.578   0.912
 1717OM     OM1 1717   6.553   8.329   0.888
 1718OM     OM1 1718   9.523   8.370   7.661
 1719OM     OM1 1719   0.369   8.977   8.379
 1720OM     OM1 1720   0.712   8.732   8.269
 1721OM     OM1 1721   0.449   8.688   8.269
 1722OM     OM1 1722   0.537   8.910   8.196
 1723OM     OM1 1723   2.719   0.325   8.516
 1724OM     OM1 1724   2.560   0.136   8.615
 1725OM     OM1 1725   2.750   0.244   8.762
 1726OM     OM1 1726   2.524   0.367   8.698
 1727OM     OM1 1727   4.339   1.266   6.280
 1728OM     OM1 1728   8.778   9.210   6.824
 1729OM     OM1 1729   9.022   9.313   6.775
 1730OM     OM1 1730   8.834   9.467   6.854
 1731OM     OM1 1731   7.622   8.985   2.191
 1732OM     OM1 1732   7.811   9.133   2.278
 1733OM     OM1 1733   7.551   9.222   2.273
 1734OM     OM1 1734   7.628   9.037   2.444
 1735OM     OM1 1735   1.936   1.117   8.534
 1736OM     OM1 1736   2.101   1.234   8.691
 1737OM     OM1 1737   1.848   1.270   8.731
 1738OM     OM1 1738   3.865   9.150   5.965
 1739OM     OM1 1739   3.752   9.215   5.751
 1740OM     OM1 1740   4.054   9.315   6.017
 1741OM     OM1 1741   3.746   9.436   5.894
 1742OM     OM1 1742   4.889   1.322   7.878
 1743OM     OM1 1743   6.911   9.419   4.004
 1744OM     OM1 1744   7.060   9.339   4.206
 1745OM     OM1 1745   6.806   9.296   4.204
 1746OM     OM1 1746   6.948   9.158   4.044
 1747OM     OM1 1747   8.230   0.193   0.717
 1748OM     OM1 1748   8.221   0.246   0.978
 1749OM     OM1 1749   8.545   9.499   0.993
 1750OM     OM1 1750   9.030   1.152   2.331
 1751OM     OM1 1751   0.333   8.321   9.555
 1752OM     OM1 1752   0.099   8.365   9.424
 1753OM     OM1 1753   0.316   8.397   9.303
 1754OM     OM1 1754   5.410   0.946   1.757
 1755OM     OM1 1755   5.376   1.166   1.896
 1756OM     OM1 1756   5.465   1.170   1.641
 1757OM     OM1 1757   5.610   1.092   1.843
 1758OM     OM1 1758   0.590   8.382   8.895
 1759OM     OM1 1759   0.394   8.423   9.063
 1760OM     OM1 1760   0.640   8.383   9.154
 1761OM     OM1 1761   1.877   8.745   2.966
 1762OM     OM1 1762   1.870   8.950   2.815
 1763OM     OM1 1763   1.682   8.770   2.780
 1764OM     OM1 1764   4.686   9.546   3.862
 1765OM     OM1 1765   4.593   0.177   3.915
 1766OM     OM1 1766   4.694   0.028   4.100
 1767OM     OM1 1767   4.449   9.579   3.975
 1768OM     OM1 1768   9.259   0.156   5.935
 1769OM     OM1 1769   9.398   9.558   6.023
 1770OM     OM1 1770   9.296   0.119   6.196
 1771OM     OM1 1771   9.493   0.196   6.052
 1772OM     OM1 1772   5.078   8.296   1.986
 1773OM     OM1 1773   5.129   8.520   2.116
 1774OM     OM1 1774   4.957   8.336   2.204
 1775OM     OM1 1775   4.906   8.492   1.987
 1776OM     OM1 1776   1.878   1.101   2.237
 1777OM     OM1 1777   2.058   1.156   2.071
 1778OM     OM1 1778   0.545   0.201   6.444
 1779OM     OM1 1779   0.481   0.448   6.365
 1780OM     OM1 1780   0.614   0.292   6.215
 1781OM     OM1 1781   7.141   8.519   6.093
 1782OM     OM1 1782   7.336   8.697   6.088
 1783OM     OM1 1783   7.249   8.597   6.310
 1784OM     OM1 1784   7.092   8.762   6.160
 1785OM     OM1 1785   0.457   0.414   0.785
 1786OM     OM1 1786   0.472   0.232   0.965
 1787OM     OM1 1787   0.234   0.297   0.862
 1788OM     OM1 1788   5.057   8.767   0.827
 1789OM     OM1 1789   4.960   8.995   0.792
 1790OM     OM1 1790   5.180   8.983   0.929
 1791OM     OM1 1791   4.954   8.895   1.037
 1792OM     OM1 1792   6.513   0.745   2.088
 1793OM     OM1 1793   6.610   0.971   1.992
 1794OM     OM1 1794   6.657   0.908   2.246
 1795OM     OM1 1795   5.591   0.528   1.094
 1796OM     OM1 1796   5.579   0.266   1.122
 1797OM     OM1 1797   5.514   0.417   1.320
 1798OM     OM1 1798   5.764   0.398   1.247
 1799OM     OM1 1799   2.979   8.950   1.251
 1800OM     OM1 1800   2.948   9.045   1.503
 1801OM     OM1 1801   3.077   8.817   1.452
 1802OM     OM1 1802   3.175   9.043   1.387
 1803OM     OM1 1803   5.803   0.461   9.418
 1804OM     OM1 1804   5.918   0.523   0.038
 1805OM     OM1 1805   5.774   0.706   9.516
 1806OM     OM1 1806   6.005   0.632   9.428
 1807OM     OM1 1807   4.698   1.206   3.224
 1808OM     OM1 1808   4.480   1.154   3.351
 1809OM     OM1 1809   7.275   0.164   0.921
 1810OM     OM1 1810   7.537   0.197   0.809
 1811OM     OM1 1811   7.313   0.250   0.683
 1812OM     OM1 1812   5.298   8.947   1.848
 1813OM     OM1 1813   5.454   9.163   1.855
 1814OM     OM1 1814   5.194   9.181   1.906
 1815OM     OM1 1815   9.569   8.860   6.548
 1816OM     OM1 1816   0.100   8.649   6.519
 1817OM     OM1 1817   0.007   8.781   6.309
 1818OM     OM1 1818   9.437   8.657   6.459
 1819OM     OM1 1819   4.124   0.346   1.198
 1820OM     OM1 1820   4.030   0.269   1.425
 1821OM     OM1 1821   4.216   0.123   1.309
 1822OM     OM1 1822   3.862   9.158   2.337
 1823OM     OM1 1823   3.901   9.341   2.144
 1824OM     OM1 1824   3.665   9.305   2.264
 1825OM     OM1 1825   6.028   8.983   1.016
 1826OM     OM1 1826   5.973   8.745   1.091
 1827OM     OM1 1827   6.197   8.838   1.173
 1828OM     OM1 1828   6.160   8.779   0.917
 1829OM     OM1 1829   8.776   1.297   2.667
 1830OM     OM1 1830   8.846   1.319   2.925
 1831OM     OM1 1831   8.622   1.209   2.861
 1832OM     OM1 1832   5.779   9.314   8.243
 1833OM     OM1 1833   5.794   9.515   8.414
 1834OM     OM1 1834   5.999   9.361   8.366
 1835OM     OM1 1835   5.787   9.257   8.490
 1836OM     OM1 1836   9.401   8.980   9.599
 1837OM     OM1 1837   9.336   9.104   9.378
 1838OM     OM1 1838   9.186   9.112   9.600
 1839OM     OM1 1839   7.465   0.569   3.586
 1840OM     OM1 1840   7.517   0.317   3.637
 1841OM     OM1 1841   7.555   0.496   3.815
 1842OM     OM1 1842   7.715   0.491   3.593
 1843OM     OM1 1843   6.653   0.625   4.171
 1844OM     OM1 1844   6.809   0.636   4.385
 1845OM     OM1 1845   6.595   0.499   4.398
 1846OM     OM1 1846   6.577   0.763   4.371
 1847OM     OM1 1847   8.196   0.334   6.066
 1848OM     OM1 1848   8.169   0.401   6.311
 1849OM     OM1 1849   8.102   0.156   6.241
 1850OM     OM1 1850   8.360   0.240   6.235
 1851OM     OM1 1851   5.361   9.469   7.138
 1852OM     OM1 1852   5.265   0.086   7.224
 1853OM     OM1 1853   5.315   0.067   6.974
 1854OM     OM1 1854   5.108   9.553   7.072
 1855OM     OM1 1855   5.495   8.716   5.218
 1856OM     OM1 1856   5.296   8.759   5.060
 1857OM     OM1 1857   5.255   8.754   5.317
 1858OM     OM1 1858   6.345   1.387   2.300
 1859OM     OM1 1859   0.553   0.795   7.503
 1860OM     OM1 1860   0.682   0.978   7.637
 1861OM     OM1 1861   0.729   0.955   7.387
 1862OM     OM1 1862   0.804   0.754   7.532
 1863OM     OM1 1863   5.829   8.368   0.722
 1864OM     OM1 1864   5.780   8.264   0.941
 1865OM     OM1 1865   6.032   8.293   0.865
 1866OM     OM1 1866   3.021   1.122   7.720
 1867OM     OM1 1867   3.227   1.212   7.601
 1868OM     OM1 1868   6.896   9.283   1.998
 1869OM     OM1 1869   6.681   9.378   2.117
 1870OM     OM1 1870   6.882   9.285   2.256
 1871OM     OM1 1871   6.897   9.512   2.128
 1872OM     OM1 1872   3.876   0.454   7.923
 1873OM     OM1 1873   3.915   0.514   7.671
 1874OM     OM1 1874   3.917   0.706   7.856
 1875OM     OM1 1875   3.699   0.590   7.797
 1876OM     OM1 1876   2.596   1.125   5.993
 1877OM     OM1 1877   2.702   1.308   5.847
 1878OM     OM1 1878   2.851   1.124   5.978
 1879OM     OM1 1879   8.137   0.749   3.545
 1880OM     OM1 1880   8.110   0.667   3.787
 1881OM     OM1 1881   8.187   0.918   3.729
 1882OM     OM1 1882   8.351   0.721   3.710
 1883OM     OM1 1883   5.398   9.439   5.340
 1884OM     OM1 1884   5.253   9.221   5.438
 1885OM     OM1 1885   5.509   9.228   5.429
 1886OM     OM1 1886   1.924   9.382   4.265
 1887OM     OM1 1887   1.898   9.314   4.510
 1888OM     OM1 1888   2.091   9.485   4.442
 1889OM     OM1 1889   5.484   1.267   7.551
 1890OM     OM1 1890   5.268   1.114   7.578
 1891OM     OM1 1891   5.425   1.149   7.777
 1892OM     OM1 1892   1.039   0.258   0.342
 1893OM     OM1 1893   1.271   0.353   0.300
 1894OM     OM1 1894   0.912   0.316   0.573
 1895OM     OM1 1895   1.065   0.509   0.373
 1896OM     OM1 1896   8.156   8.258   8.201
 1897OM     OM1 1897   8.286   8.479   8.200
 1898OM     OM1 1898   8.329   9.411   4.725
 1899OM     OM1 1899   8.256   9.342   4.966
 1900OM     OM1 1900   8.297   9.155   4.787
 1901OM     OM1 1901   8.498   9.278   4.875
 1902OM     OM1 1902   7.910   0.547   1.630
 1903OM     OM1 1903   7.522   0.649   1.412
 1904OM     OM1 1904   7.840   0.745   1.325
 1905OM     OM1 1905   7.675   0.648   1.625
 1906OM     OM1 1906   6.250   0.109   8.484
 1907OM     OM1 1907   6.051   0.269   8.488
 1908OM     OM1 1908   6.273   0.327   8.620
 1909OM     OM1 1909   6.275   0.353   8.370
 1910OM     OM1 1910   8.150   0.428   0.299
 1911OM     OM1 1911   8.351   0.276   0.238
 1912OM     OM1 1912   8.438   0.050   0.296
 1913OM     OM1 1913   8.104   0.188   0.216
 1914OM     OM1 1914   5.836   0.072   7.040
 1915OM     OM1 1915   5.898   0.232   7.232
 1916OM     OM1 1916   5.725   0.296   7.023
 1917OM     OM1 1917   5.664   0.145   7.233
 1918OM     OM1 1918   7.687   0.971   2.744
 1919OM     OM1 1919   7.495   0.912   2.581
 1920OM     OM1 1920   1.153   1.178   4.035
 1921OM     OM1 1921   0.929   1.307   4.037
 1922OM     OM1 1922   1.003   1.167   3.828
 1923OM     OM1 1923   0.920   1.049   4.048
 1924OM     OM1 1924   0.947   8.746   8.010
 1925OM     OM1 1925   1.013   8.548   7.865
 1926OM     OM1 1926   1.251   8.484   7.967
 1927OM     OM1 1927   1.498   8.526   7.994
 1928OM     OM1 1928   4.437   0.927   9.162
 1929OM     OM1 1929   4.260   1.185   8.915
 1930OM     OM1 1930   4.247   0.600   8.892
 1931OM     OM1 1931   4.229   1.069   9.149
 1932OM     OM1 1932   7.234   0.008   7.133
 1933OM     OM1 1933   7.462   0.118   7.226
 1934OM     OM1 1934   7.313   9.587   7.387
 1935OM     OM1 1935   7.225   0.206   7.305
 1936OM     OM1 1936   1.450   9.334   7.574
 1937OM     OM1 1937   1.450   9.083   7.615
 1938OM     OM1 1938   1.540   9.197   7.387
 1939OM     OM1 1939   3.113   8.191   8.233
 1940OM     OM1 1940   2.642   8.940   9.500
 1941OM     OM1 1941   2.407   9.011   9.563
 1942OM     OM1 1942   2.548   9.185   9.431
 1943OM     OM1 1943   2.319   1.114   2.088
 1944OM     OM1 1944   2.481   1.322   2.067
 1945OM     OM1 1945   2.494   1.140   1.891
 1946OM     OM1 1946   4.231   8.762   8.861
 1947OM     OM1 1947   4.564   8.927   8.763
 1948OM     OM1 1948   4.226   8.592   8.657
 1949OM     OM1 1949   0.862   8.437   3.676
 1950OM     OM1 1950   1.005   8.604   3.797
 1951OM     OM1 1951   0.846   8.467   3.946
 1952OM     OM1 1952   4.346   0.234   1.811
 1953OM     OM1 1953   4.295   9.593   1.733
 1954OM     OM1 1954   4.113   0.137   1.861
 1955OM     OM1 1955   4.165   0.179   1.622
 1956OM     OM1 1956   5.982   8.655   8.856
 1957OM     OM1 1957   5.801   8.662   8.674
 1958OM     OM1 1958   5.759   8.499   8.876
 1959OM     OM1 1959   5.745   8.749   8.918
 1960OM     OM1 1960   7.940   8.416   0.266
 1961OM     OM1 1961   7.753   8.574   0.354
 1962OM     OM1 1962   7.743   8.452   0.108
 1963OM     OM1 1963   7.888   8.651   0.147
 1964OM     OM1 1964   1.343   9.153   1.328
 1965OM     OM1 1965   1.501   9.337   1.249
 1966OM     OM1 1966   1.459   9.319   1.499
 1967OM     OM1 1967   1.601   9.133   1.395
 1968OM     OM1 1968   0.537   1.067   3.924
 1969OM     OM1 1969   0.331   1.246   3.936
 1970OM     OM1 1970   0.508   1.246   3.744
 1971OM     OM1 1971   0.429   1.161   7.147
 1972OM     OM1 1972   0.180   1.172   7.067
 1973OM     OM1 1973   0.253   0.989   7.243
 1974OM     OM1 1974   0.191   0.770   7.130
 1975OM     OM1 1975   6.763   9.109   4.379
 1976OM     OM1 1976   6.690   9.155   4.749
 1977OM     OM1 1977   6.883   9.053   4.598
 1978OM     OM1 1978   6.922   9.272   4.732
 1979OM     OM1 1979   8.706   1.023   1.917
 1980OM     OM1 1980   8.943   1.143   1.890
 1981OM     OM1 1981   8.931   0.884   1.882
 1982OM     OM1 1982   8.884   0.999   2.106
 1983OM     OM1 1983   6.823   1.040   7.359
 1984OM     OM1 1984   6.790   1.248   7.203
 1985OM     OM1 1985   6.583   1.111   7.312
 1986OM     OM1 1986   6.737   1.282   7.450
 1987OM     OM1 1987   5.586   8.445   0.994
 1988OM     OM1 1988   5.541   8.639   0.815
 1989OM     OM1 1989   5.723   8.692   1.148
 1990OM     OM1 1990   5.476   8.669   1.060
 1991OM     OM1 1991   8.810   1.119   8.465
 1992OM     OM1 1992   8.615   1.096   8.637
 1993OM     OM1 1993   8.851   1.206   8.711
 1994OM     OM1 1994   8.843   0.954   8.662
 1995OM     OM1 1995   6.440   9.235   6.982
 1996OM     OM1 1996   6.579   9.394   7.114
 1997OM     OM1 1997   6.693   9.270   6.905
 1998OM     OM1 1998   6.650   9.140   7.121
 1999OM     OM1 1999   6.444   9.081   3.060
 2000OM     OM1 2000   6.287   8.936   2.909
 2001OM     OM1 2001   6.523   9.009   2.832
 2002OM     OM1 2002   6.506   8.829   3.024
 2003OM     OM1 2003   3.320   9.243   0.063
 2004OM     OM1 2004   3.532   9.399   0.098
 2005OM     OM1 2005   3.527   9.140   0.154
 2006OM     OM1 2006   4.158   0.512   7.709
 2007OM     OM1 2007   4.047   0.286   7.622
 2008OM     OM1 2008   4.094   0.488   7.463
 2009OM     OM1 2009   0.255   8.308   7.989
 2010OM     OM1 2010   2.017   0.878   8.627
 2011OM     OM1 2011   1.938   0.633   8.706
 2012OM     OM1 2012   1.910   0.840   8.856
 2013OM     OM1 2013   2.142   0.747   8.823
 2014OM     OM1 2014   1.235   8.403   3.689
 2015OM     OM1 2015   1.472   8.492   3.749
 2016OM     OM1 2016   1.350   8.595   3.541
 2017OM     OM1 2017   1.255   8.651   3.765
 2018OM     OM1 2018   1.960   1.184   1.738
 2019OM     OM1 2019   2.188   1.297   1.680
 2020OM     OM1 2020   7.921   8.506   7.429
 2021OM     OM1 2021   7.952   8.298   7.583
 2022OM     OM1 2022   8.144   8.371   7.410
 2023OM     OM1 2023   6.258   8.632   0.279
 2024OM     OM1 2024   5.999   8.659   0.269
 2025OM     OM1 2025   6.122   8.504   0.093
 2026OM     OM1 2026   6.107   8.422   0.332
 2027OM     OM1 2027   8.542   1.353   1.423
 2028OM     OM1 2028   8.416   1.129   1.388
 2029OM     OM1 2029   5.639   8.541   7.517
 2030OM     OM1 2030   5.877   8.606   7.433
 2031OM     OM1 2031   5.829   8.366   7.507
 2032OM     OM1 2032   5.825   8.569   7.687
 2033OM     OM1 2033   1.636   8.761   4.497
 2034OM     OM1 2034   1.841   8.591   4.483
 2035OM     OM1 2035   1.685   8.581   4.684
 2036OM     OM1 2036   1.597   8.522   4.432
 2037OM     OM1 2037   1.268   0.166   0.704
 2038OM     OM1 2038   1.391   0.377   0.778
 2039OM     OM1 2039   1.400   0.306   0.521
 2040OM     OM1 2040   1.530   0.167   0.697
 2041OM     OM1 2041   4.717   8.302   4.047
 2042OM     OM1 2042   4.835   8.246   3.820
 2043OM     OM1 2043   9.310   8.316   2.676
 2044OM     OM1 2044   9.499   8.487   2.725
 2045OM     OM1 2045   9.567   8.267   2.610
 2046OM     OM1 2046   1.652   8.260   6.351
 2047OM     OM1 2047   1.466   8.290   6.185
 2048OM     OM1 2048   1.437   8.404   6.412
 2049OM     OM1 2049   6.681   8.762   5.175
 2050OM     OM1 2050   6.575   8.996   5.132
 2051OM     OM1 2051   6.832   8.965   5.092
 2052OM     OM1 2052   6.744   8.971   5.331
 2053OM     OM1 2053   9.086   9.546   7.388
 2054OM     OM1 2054   8.976   0.097   7.560
 2055OM     OM1 2055   0.015   0.590   0.184
 2056OM     OM1 2056   0.167   0.390   0.161
 2057OM     OM1 2057   0.270   0.597   0.271
 2058OM     OM1 2058   0.229   0.617   0.027
 2059OM     OM1 2059   0.142   9.271   9.594
 2060OM     OM1 2060   0.164   9.087   9.393
 2061OM     OM1 2061   0.099   9.342   9.347
 2062OM     OM1 2062   0.526   0.866   2.326
 2063OM     OM1 2063   0.308   0.992   2.276
 2064OM     OM1 2064   0.411   0.999   2.526
 2065OM     OM1 2065   0.297   0.788   2.440
 2066OM     OM1 2066   6.613   1.431   7.624
 2067OM     OM1 2067   5.632   9.096   1.681
 2068OM     OM1 2068   5.713   9.189   1.910
 2069OM     OM1 2069   5.599   9.352   1.740
 2070OM     OM1 2070   9.326   9.514   7.309
 2071OM     OM1 2071   9.216   9.308   7.408
 2072OM     OM1 2072   1.060   0.338   3.710
 2073OM     OM1 2073   1.245   0.404   3.545
 2074OM     OM1 2074   1.058   9.572   3.347
 2075OM     OM1 2075   4.197   9.091   2.980
 2076OM     OM1 2076   4.379   9.226   2.857
 2077OM     OM1 2077   4.303   8.986   2.775
 2078OM     OM1 2078   4.460   9.007   2.973
 2079OM     OM1 2079   1.826   0.683   8.225
 2080OM     OM1 2080   1.895   0.879   8.401
 2081OM     OM1 2081   2.049   0.672   8.371
 2082OM     OM1 2082   8.510   1.032   2.095
 2083OM     OM1 2083   8.471   0.923   1.859
 2084OM     OM1 2084   4.663   8.743   5.627
 2085OM     OM1 2085   4.826   8.543   5.585
 2086OM     OM1 2086   4.776   8.704   5.397
 2087OM     OM1 2087   4.593   8.540   5.461
 2088OM     OM1 2088   2.524   8.770   1.672
 2089OM     OM1 2089   2.493   9.013   1.608
 2090OM     OM1 2090   2.323   8.838   1.523
 2091OM     OM1 2091   2.333   8.911   1.783
 2092OM     OM1 2092   3.358   8.447   7.342
 2093OM     OM1 2093   3.424   8.635   7.170
 2094OM     OM1 2094   3.187   8.535   7.177
 2095OM     OM1 2095   3.375   8.396   7.070
 2096OM     OM1 2096   9.021   8.435   8.796
 2097OM     OM1 2097   9.225   8.373   8.644
 2098OM     OM1 2098   7.681   8.450   4.712
 2099OM     OM1 2099   7.868   8.292   4.601
 2100OM     OM1 2100   7.511   8.518   4.894
 2101OM     OM1 2101   4.969   9.490   6.865
 2102OM     OM1 2102   4.876   0.072   7.017
 2103OM     OM1 2103   4.885   9.439   7.113
 2104OM     OM1 2104   1.028   0.603   4.263
 2105OM     OM1 2105   0.882   0.805   4.144
 2106OM     OM1 2106   0.852   0.752   4.396
 2107OM     OM1 2107   6.114   1.220   0.436
 2108OM     OM1 2108   5.940   1.139   0.602
 2109OM     OM1 2109   3.367   8.483   3.606
 2110OM     OM1 2110   3.154   8.493   3.748
 2111OM     OM1 2111   3.235   8.709   3.615
 2112OM     OM1 2112   3.131   8.511   3.490
 2113OM     OM1 2113   4.273   8.654   6.206
 2114OM     OM1 2114   4.351   8.624   5.950
 2115OM     OM1 2115   4.244   8.845   6.032
 2116OM     OM1 2116   4.484   8.768   6.122
 2117OM     OM1 2117   6.170   9.578   7.962
 2118OM     OM1 2118   6.048   9.560   7.749
 2119OM     OM1 2119   5.827   9.562   7.913
 2120OM     OM1 2120   5.864   0.126   7.722
 2121OM     OM1 2121   8.060   9.457   1.412
 2122OM     OM1 2122   7.885   9.352   1.232
 2123OM     OM1 2123   8.132   9.331   1.189
 2124OM     OM1 2124   8.045   9.203   1.391
 2125OM     OM1 2125   7.880   0.762   8.470
 2126OM     OM1 2126   7.968   0.566   8.318
 2127OM     OM1 2127   6.953   0.151   7.933
 2128OM     OM1 2128   6.745   0.002   7.922
 2129OM     OM1 2129   6.728   0.251   7.838
 2130OM     OM1 2130   6.870   0.055   7.705
 2131OM     OM1 2131   2.809   8.749   9.509
 2132OM     OM1 2132   2.554   8.698   9.476
 2133OM     OM1 2133   5.048   8.514   6.205
 2134OM     OM1 2134   5.054   8.755   6.304
 2135OM     OM1 2135   5.277   8.619   6.295
 2136OM     OM1 2136   5.104   8.549   6.465
 2137OM     OM1 2137   1.818   8.582   2.364
 2138OM     OM1 2138   1.984   8.617   2.184
 2139OM     OM1 2139   2.054   8.445   2.364
 2140OM     OM1 2140   3.557   0.728   8.436
 2141OM     OM1 2141   3.798   0.648   8.399
 2142OM     OM1 2142   3.690   0.652   8.643
 2143OM     OM1 2143   3.635   0.467   8.469
 2144OM     OM1 2144   1.195   8.758   9.364
 2145OM     OM1 2145   1.309   8.981   9.453
 2146OM     OM1 2146   1.186   8.972   9.216
 2147OM     OM1 2147   1.053   8.963   9.436
 2148OM     OM1 2148   1.715   1.416   6.481
 2149OM     OM1 2149   3.839   0.972   5.167
 2150OM     OM1 2150   3.682   1.069   4.976
 2151OM     OM1 2151   3.606   0.880   5.140
 2152OM     OM1 2152   8.135   0.119   5.715
 2153OM     OM1 2153   8.137   9.466   5.761
 2154OM     OM1 2154   8.306   9.603   5.889
 2155OM     OM1 2155   8.325   9.570   5.621
 2156OM     OM1 2156   2.802   0.454   5.951
 2157OM     OM1 2157   2.632   0.436   6.153
 2158OM     OM1 2158   2.736   0.669   6.081
 2159OM     OM1 2159   7.697   1.064   8.248
 2160OM     OM1 2160   7.901   1.159   8.383
 2161OM     OM1 2161   4.774   8.449   8.644
 2162OM     OM1 2162   4.825   8.367   8.881
 2163OM     OM1 2163   5.126   8.351   8.522
 2164OM     OM1 2164   4.942   8.250   8.671
 2165OM     OM1 2165   3.345   8.245   8.326
 2166OM     OM1 2166   3.394   8.313   8.589
 2167OM     OM1 2167   9.238   9.057   2.738
 2168OM     OM1 2168   9.189   8.796   2.780
 2169OM     OM1 2169   9.266   8.888   2.551
 2170OM     OM1 2170   9.027   8.946   2.632
 2171OM     OM1 2171   6.464   9.550   5.037
 2172OM     OM1 2172   6.409   9.448   5.261
 2173OM     OM1 2173   6.508   0.089   5.249
 2174OM     OM1 2174   6.259   0.043   5.197
 2175OM     OM1 2175   5.760   1.024   4.472
 2176OM     OM1 2176   5.363   1.248   4.700
 2177OM     OM1 2177   5.831   1.222   4.624
 2178OM     OM1 2178   5.582   1.139   4.625
 2179OM     OM1 2179   8.728   9.560   7.935
 2180OM     OM1 2180   8.640   0.117   8.101
 2181OM     OM1 2181   5.026   9.352   6.635
 2182OM     OM1 2182   5.171   9.330   6.844
 2183OM     OM1 2183   4.919   9.239   6.833
 2184OM     OM1 2184   4.346   0.920   7.472
 2185OM     OM1 2185   4.269   0.683   7.459
 2186OM     OM1 2186   4.473   0.735   7.623
 2187OM     OM1 2187   4.503   0.742   7.363
 2188OM     OM1 2188   7.694   0.126   5.935
 2189OM     OM1 2189   7.479   0.032   6.054
 2190OM     OM1 2190   7.648   9.471   5.940
 2191OM     OM1 2191   7.512   0.014   5.790
 2192OM     OM1 2192   5.594   8.567   3.069
 2193OM     OM1 2193   5.614   8.802   3.186
 2194OM     OM1 2194   5.331   8.581   2.938
 2195OM     OM1 2195   5.498   8.768   2.938
 2196OM     OM1 2196   8.214   0.547   5.609
 2197OM     OM1 2197   8.453   0.447   5.565
 2198OM     OM1 2198   8.387   0.679   5.460
 2199OM     OM1 2199   8.282   0.462   5.372
 2200OM     OM1 2200   8.310   8.308   0.988
 2201OM     OM1 2201   8.524   8.311   1.123
 2202OM     OM1 2202   7.962   9.538   6.206
 2203OM     OM1 2203   7.867   9.295   6.135
 2204OM     OM1 2204   8.003   9.432   5.976
 2205OM     OM1 2205   8.123   9.334   6.192
 2206OM     OM1 2206   5.512   8.829   0.635
 2207OM     OM1 2207   5.636   8.892   0.845
 2208OM     OM1 2208   5.752   8.737   0.679
 2209OM     OM1 2209   1.541   8.597   8.970
 2210OM     OM1 2210   1.576   8.797   9.136
 2211OM     OM1 2211   1.340   8.717   9.067
 2212OM     OM1 2212   8.906   0.661   5.561
 2213OM     OM1 2213   8.939   0.421   5.445
 2214OM     OM1 2214   9.094   0.504   5.645
 2215OM     OM1 2215   9.098   0.610   5.398
 2216OM     OM1 2216   8.094   8.420   2.000
 2217OM     OM1 2217   7.883   8.261   2.035
 2218OM     OM1 2218   3.549   0.584   2.456
 2219OM     OM1 2219   3.489   0.786   2.614
 2220OM     OM1 2220   3.741   0.706   2.570
 2221OM     OM1 2221   3.581   0.582   2.729
 2222OM     OM1 2222   4.510   0.113   0.889
 2223OM     OM1 2223   4.338   9.528   0.951
 2224OM     OM1 2224   4.273   0.109   0.787
 2225OM     OM1 2225   4.442   9.532   0.708
 2226OM     OM1 2226   6.670   0.245   8.730
 2227OM     OM1 2227   6.842   0.194   8.525
 2228OM     OM1 2228   6.921   0.336   8.728
 2229OM     OM1 2229   6.860   0.083   8.764
 2230OM     OM1 2230   5.899   8.802   0.464
 2231OM     OM1 2231   6.018   8.754   0.700
 2232OM     OM1 2232   5.906   8.567   0.567
 2233OM     OM1 2233   8.764   8.356   4.493
 2234OM     OM1 2234   9.016   8.300   4.446
 2235OM     OM1 2235   0.268   0.119   0.114
 2236OM     OM1 2236   0.289   0.196   9.475
 2237OM     OM1 2237   0.452   0.322   0.023
 2238OM     OM1 2238   0.489   0.063   0.001
 2239OM     OM1 2239   6.538   8.432   7.219
 2240OM     OM1 2240   6.619   8.324   7.450
 2241OM     OM1 2241   6.651   8.572   7.406
 2242OM     OM1 2242   7.290   0.703   4.319
 2243OM     OM1 2243   7.495   0.851   4.299
 2244OM     OM1 2244   7.459   0.701   4.525
 2245OM     OM1 2245   7.537   0.598   4.306
 2246OM     OM1 2246   6.335   8.390   5.305
 2247OM     OM1 2247   6.247   8.640   5.280
 2248OM     OM1 2248   6.495   8.582   5.224
 2249OM     OM1 2249   6.395   8.562   5.480
 2250OM     OM1 2250   8.825   0.007   3.414
 2251OM     OM1 2251   8.603   9.525   3.305
 2252OM     OM1 2252   8.631   9.496   3.565
 2253OM     OM1 2253   8.327   1.071   6.576
 2254OM     OM1 2254   8.308   0.815   6.584
 2255OM     OM1 2255   8.398   0.936   6.365
 2256OM     OM1 2256   8.151   0.963   6.420
 2257OM     OM1 2257   7.192   9.090   7.363
 2258OM     OM1 2258   7.419   9.027   7.231
 2259OM     OM1 2259   7.285   8.844   7.361
 2260OM     OM1 2260   7.415   9.037   7.485
 2261OM     OM1 2261   1.896   1.009   5.218
 2262OM     OM1 2262   1.968   0.791   5.338
 2263OM     OM1 2263   1.732   0.795   5.237
 2264OM     OM1 2264   1.938   0.794   5.078
 2265OM     OM1 2265   2.011   0.470   9.124
 2266OM     OM1 2266   2.092   0.723   9.166
 2267OM     OM1 2267   2.258   0.536   9.089
 2268OM     OM1 2268   2.168   0.526   9.328
 2269OM     OM1 2269   1.596   0.145   1.600
 2270OM     OM1 2270   1.551   0.196   1.351
 2271OM     OM1 2271   1.557   0.428   1.235
 2272OM     OM1 2272   1.689   0.207   1.137
 2273OM     OM1 2273   9.505   0.032   7.187
 2274OM     OM1 2274   9.560   9.515   7.417
 2275OM     OM1 2275   9.434   0.131   7.419
 2276OM     OM1 2276   0.763   9.281   3.718
 2277OM     OM1 2277   0.718   9.109   3.908
 2278OM     OM1 2278   0.628   9.060   3.670
 2279OM     OM1 2279   0.889   9.051   3.725
 2280OM     OM1 2280   1.406   8.762   7.185
 2281OM     OM1 2281   1.556   8.874   7.354
 2282OM     OM1 2282   1.462   9.015   7.152
 2283OM     OM1 2283   1.302   8.921   7.358
 2284OM     OM1 2284   1.298   1.009   0.767
 2285OM     OM1 2285   1.315   1.097   0.527
 2286OM     OM1 2286   1.535   0.994   0.615
 2287OM     OM1 2287   1.341   0.839   0.576
 2288OM     OM1 2288   5.848   9.044   6.238
 2289OM     OM1 2289   5.753   8.802   6.299
 2290OM     OM1 2290   5.761   9.004   6.471
 2291OM     OM1 2291   0.766   9.027   2.741
 2292OM     OM1 2292   0.925   8.982   2.928
 2293OM     OM1 2293   0.911   9.226   2.828
 2294OM     OM1 2294   0.717   9.131   2.977
 2295OM     OM1 2295   4.270   8.438   9.136
 2296OM     OM1 2296   5.069   1.197   1.603
 2297OM     OM1 2297   5.022   1.284   1.347
 2298OM     OM1 2298   4.842   1.288   1.532
 2299OM     OM1 2299   2.252   8.328   8.584
 2300OM     OM1 2300   3.808   0.064   6.605
 2301OM     OM1 2301   3.786   0.144   6.858
 2302OM     OM1 2302   4.023   0.122   6.740
 2303OM     OM1 2303   3.859   0.312   6.678
 2304OM     OM1 2304   0.336   8.598   3.989
 2305OM     OM1 2305   7.875   0.844   5.594
 2306OM     OM1 2306   7.958   0.859   5.830
 2307OM     OM1 2307   7.749   0.707   5.776
 2308OM     OM1 2308   7.984   0.626   5.703
 2309OM     OM1 2309   0.202   0.438   7.539
 2310OM     OM1 2310   0.221   0.415   7.271
 2311OM     OM1 2311   0.022   0.307   7.410
 2312OM     OM1 2312   0.043   0.568   7.387
 2313OM     OM1 2313   0.146   1.091   5.167
 2314OM     OM1 2314   0.304   0.933   5.293
 2315OM     OM1 2315   0.141   0.831   5.117
 2316OM     OM1 2316   0.354   0.979   5.046
 2317OM     OM1 2317   7.001   0.050   5.929
 2318OM     OM1 2318   6.805   9.482   5.984
 2319OM     OM1 2319   6.972   9.433   5.795
 2320OM     OM1 2320   6.793   0.018   5.770
 2321OM     OM1 2321   2.673   0.110   0.467
 2322OM     OM1 2322   2.585   0.358   0.488
 2323OM     OM1 2323   2.701   0.290   0.274
 2324OM     OM1 2324   3.588   1.426   8.330
 2325OM     OM1 2325   3.702   1.241   8.463
 2326OM     OM1 2326   2.840   0.865   8.895
 2327OM     OM1 2327   2.672   1.058   8.975
 2328OM     OM1 2328   2.859   1.116   8.809
 2329OM     OM1 2329   2.925   1.047   9.051
 2330OM     OM1 2330   0.219   8.459   7.358
 2331OM     OM1 2331   0.318   8.571   7.154
 2332OM     OM1 2332   0.420   8.343   7.470
 2333OM     OM1 2333   2.557   0.279   7.031
 2334OM     OM1 2334   2.522   0.248   7.282
 2335OM     OM1 2335   2.364   0.409   7.146
 2336OM     OM1 2336   2.611   0.481   7.194
 2337OM     OM1 2337   8.532   0.496   1.961
 2338OM     OM1 2338   8.970   0.373   1.752
 2339OM     OM1 2339   8.603   0.705   1.832
 2340OM     OM1 2340   8.779   0.514   1.831
 2341OM     OM1 2341   8.927   8.997   4.758
 2342OM     OM1 2342   8.828   8.595   4.554
 2343OM     OM1 2343   8.973   8.742   4.726
 2344OM     OM1 2344   1.255   9.354   4.479
 2345OM     OM1 2345   1.126   9.583   4.502
 2346OM     OM1 2346   1.111   9.426   4.699
 2347OM     OM1 2347   1.337   9.525   4.655
 2348OM     OM1 2348   4.940   8.656   6.030
 2349OM     OM1 2349   5.103   8.454   5.959
 2350OM     OM1 2350   4.229   0.816   9.048
 2351OM     OM1 2351   4.009   0.671   9.002
 2352OM     OM1 2352   4.208   0.862   9.298
 2353OM     OM1 2353   4.209   0.579   9.143
 2354OM     OM1 2354   6.927   0.729   3.623
 2355OM     OM1 2355   7.110   0.631   3.769
 2356OM     OM1 2356   6.880   0.498   3.746
 2357OM     OM1 2357   7.054   0.516   3.545
 2358OM     OM1 2358   9.593   9.281   3.278
 2359OM     OM1 2359   0.136   9.185   3.486
 2360OM     OM1 2360   9.521   9.070   3.410
 2361OM     OM1 2361   9.505   9.295   3.530
 2362OM     OM1 2362   0.548   0.937   5.386
 2363OM     OM1 2363   0.774   0.959   5.251
 2364OM     OM1 2364   0.722   0.752   5.418
 2365OM     OM1 2365   0.776   0.994   5.504
 2366OM     OM1 2366   0.240   0.585   5.557
 2367OM     OM1 2367   0.097   0.814   5.560
 2368OM     OM1 2368   0.255   0.750   5.755
 2369OM     OM1 2369   0.352   0.819   5.520
 2370OM     OM1 2370   1.233   9.543   0.834
 2371OM     OM1 2371   1.371   9.462   1.054
 2372OM     OM1 2372   1.113   9.445   1.049
 2373OM     OM1 2373   1.238   0.076   1.044
 2374OM     OM1 2374   4.219   0.415   0.485
 2375OM     OM1 2375   4.358   0.201   0.440
 2376OM     OM1 2376   4.121   0.218   0.324
 2377OM     OM1 2377   4.138   0.200   0.585
 2378OM     OM1 2378   4.382   0.019   5.794
 2379OM     OM1 2379   4.292   9.416   5.945
 2380OM     OM1 2380   4.417   0.005   6.049
 2381OM     OM1 2381   4.547   9.446   5.888
 2382OM     OM1 2382   0.564   1.055   8.232
 2383OM     OM1 2383   0.303   1.051   8.234
 2384OM     OM1 2384   0.437   0.904   8.066
 2385OM     OM1 2385   0.440   0.840   8.316
 2386OM     OM1 2386   1.226   8.923   5.976
 2387OM     OM1 2387   1.061   9.018   6.165
 2388OM     OM1 2388   1.133   8.765   6.157
 2389OM     OM1 2389   0.975   8.863   5.972
 2390OM     OM1 2390   0.802   0.212   0.780
 2391OM     OM1 2391   0.842   0.055   0.976
 2392OM     OM1 2392   0.802   9.564   0.726
 2393OM     OM1 2393   1.026   0.085   0.793
 2394OM     OM1 2394   4.574   0.162   5.875
 2395OM     OM1 2395   4.529   0.145   5.615
 2396OM     OM1 2396   4.375   0.285   5.777
 2397OM     OM1 2397   4.554   0.217   5.358
 2398OM     OM1 2398   1.096   0.503   8.792
 2399OM     OM1 2399   0.932   0.379   8.937
 2400OM     OM1 2400   1.168   0.414   9.035
 2401OM     OM1 2401   1.072   0.389   8.564
 2402OM     OM1 2402   4.055   9.359   7.675
 2403OM     OM1 2403   4.009   0.017   7.649
 2404OM     OM1 2404   3.974   9.499   7.874
 2405OM     OM1 2405   3.812   9.444   7.675
 2406OM     OM1 2406   2.978   0.813   1.274
 2407OM     OM1 2407   3.053   0.784   1.518
 2408OM     OM1 2408   2.811   0.825   1.461
 2409OM     OM1 2409   2.996   1.025   1.417
 2410OM     OM1 2410   4.996   9.065   7.306
 2411OM     OM1 2411   4.967   9.326   7.332
 2412OM     OM1 2412   5.184   9.218   7.224
 2413OM     OM1 2413   6.529   0.108   3.014
 2414OM     OM1 2414   6.766   0.147   3.093
 2415OM     OM1 2415   6.711   0.146   2.825
 2416OM     OM1 2416   6.705   9.531   2.964
 2417OM     OM1 2417   3.093   0.938   6.976
 2418OM     OM1 2418   3.009   1.136   6.816
 2419OM     OM1 2419   3.187   1.180   7.003
 2420OM     OM1 2420   2.941   1.147   7.063
 2421OM     OM1 2421   4.346   1.112   3.997
 2422OM     OM1 2422   4.100   1.042   4.019
 2423OM     OM1 2423   4.268   0.870   3.914
 2424OM     OM1 2424   4.290   0.927   4.169
 2425OM     OM1 2425   0.594   9.003   0.439
 2426OM     OM1 2426   0.851   8.959   0.428
 2427OM     OM1 2427   0.684   8.855   0.257
 2428OM     OM1 2428   0.686   8.762   0.500
 2429OM     OM1 2429   8.244   8.271   3.766
 2430OM     OM1 2430   8.428   8.280   3.583
 2431OM     OM1 2431   8.808   8.240   7.014
 2432OM     OM1 2432   9.140   8.301   7.353
 2433OM     OM1 2433   9.044   8.221   7.131
 2434OM     OM1 2434   2.564   0.051   5.895
 2435OM     OM1 2435   2.501   0.216   6.101
 2436OM     OM1 2436   2.599   9.588   6.145
 2437OM     OM1 2437   2.364   9.597   6.050
 2438OM     OM1 2438   4.093   9.496   3.115
 2439OM     OM1 2439   4.118   0.137   3.025
 2440OM     OM1 2440   3.891   0.028   2.990
 2441OM     OM1 2441   4.117   9.557   2.864
 2442OM     OM1 2442   2.329   1.116   2.731
 2443OM     OM1 2443   2.178   1.212   2.925
 2444OM     OM1 2444   2.158   0.957   2.827
 2445OM     OM1 2445   2.067   1.161   2.699
 2446OM     OM1 2446   2.586   0.888   5.462
 2447OM     OM1 2447   2.624   0.723   5.667
 2448OM     OM1 2448   2.422   0.690   5.511
 2449OM     OM1 2449   2.429   0.894   5.673
 2450OM     OM1 2450   1.720   1.119   3.170
 2451OM     OM1 2451   1.506   1.225   3.280
 2452OM     OM1 2452   1.726   1.187   3.429
 2453OM     OM1 2453   8.218   1.064   0.197
 2454OM     OM1 2454   8.312   0.916   0.401
 2455OM     OM1 2455   8.454   1.112   0.309
 2456OM     OM1 2456   0.630   8.289   0.892
 2457OM     OM1 2457   0.672   8.277   0.636
 2458OM     OM1 2458   4.035   8.915   4.514
 2459OM     OM1 2459   4.170   9.000   4.728
 2460OM     OM1 2460   4.239   8.783   4.598
 2461OM     OM1 2461   4.274   9.016   4.487
 2462OM     OM1 2462   3.850   1.300   3.655
 2463OM     OM1 2463   3.662   1.307   3.479
 2464OM     OM1 2464   0.175   0.726   6.868
 2465OM     OM1 2465   0.158   0.913   6.683
 2466OM     OM1 2466   0.012   0.708   6.661
 2467OM     OM1 2467   9.576   0.880   6.865
 2468OM     OM1 2468   6.723   8.704   5.784
 2469OM     OM1 2469   6.731   8.466   5.858
 2470OM     OM1 2470   6.777   8.538   5.600
 2471OM     OM1 2471   6.540   8.518   5.693
 2472OM     OM1 2472   4.437   8.766   2.349
 2473OM     OM1 2473   4.253   8.611   2.458
 2474OM     OM1 2474   4.393   8.793   2.600
 2475OM     OM1 2475   4.494   8.568   2.513
 2476OM     OM1 2476   9.458   0.355   0.529
 2477OM     OM1 2477   9.224   0.444   0.481
 2478OM     OM1 2478   9.252   0.205   0.594
 2479OM     OM1 2479   9.339   0.653   0.574
 2480OM     OM1 2480   7.333   9.173   1.062
 2481OM     OM1 2481   7.279   9.256   1.317
 2482OM     OM1 2482   7.413   9.399   1.168
 2483OM     OM1 2483   5.175   1.149   2.770
 2484OM     OM1 2484   5.061   1.155   3.000
 2485OM     OM1 2485   4.922   1.085   2.789
 2486OM     OM1 2486   0.062   9.338   8.752
 2487OM     OM1 2487   0.172   9.222   8.958
 2488OM     OM1 2488   0.014   9.080   8.818
 2489OM     OM1 2489   9.506   9.267   8.948
 2490OM     OM1 2490   3.297   0.853   3.396
 2491OM     OM1 2491   3.469   0.635   2.961
 2492OM     OM1 2492   3.401   0.708   3.199
 2493OM     OM1 2493   0.910   8.408   5.799
 2494OM     OM1 2494   1.037   8.188   5.831
 2495OM     OM1 2495   1.014   8.352   6.036
 2496OM     OM1 2496   6.341   8.611   2.765
 2497OM     OM1 2497   6.483   8.530   2.966
 2498OM     OM1 2498   6.247   8.403   2.905
 2499OM     OM1 2499   6.471   8.385   2.766
 2500OM     OM1 2500   6.031   1.377   8.430
 2501OM     OM1 2501   5.825   1.232   8.489
 2502OM     OM1 2502   5.755   9.596   0.570
 2503OM     OM1 2503   5.879   0.212   0.621
 2504OM     OM1 2504   5.959   0.051   0.420
 2505OM     OM1 2505   6.602   1.054   8.572
 2506OM     OM1 2506   6.369   1.151   8.671
 2507OM     OM1 2507   6.666   1.042   8.324
 2508OM     OM1 2508   6.298   9.223   6.596
 2509OM     OM1 2509   6.303   9.173   6.331
 2510OM     OM1 2510   6.338   9.417   6.436
 2511OM     OM1 2511   6.105   9.298   6.445
 2512OM     OM1 2512   9.417   0.799   8.282
 2513OM     OM1 2513   9.332   0.881   8.511
 2514OM     OM1 2514   9.358   0.625   8.487
 2515OM     OM1 2515   9.574   0.766   8.488
 2516OM     OM1 2516   1.377   8.584   1.825
 2517OM     OM1 2517   1.211   8.377   1.828
 2518OM     OM1 2518   1.442   8.354   1.932
 2519OM     OM1 2519   1.261   8.498   2.053
 2520OM     OM1 2520   8.623   8.938   3.189
 2521OM     OM1 2521   8.497   9.167   3.212
 2522OM     OM1 2522   8.632   9.069   3.414
 2523OM     OM1 2523   8.757   9.168   3.221
 2524OM     OM1 2524   8.944   0.669   1.449
 2525OM     OM1 2525   8.955   0.403   1.366
 2526OM     OM1 2526   9.055   0.615   1.233
 2527OM     OM1 2527   9.164   0.530   1.453
 2528OM     OM1 2528   0.501   0.364   8.409
 2529OM     OM1 2529   0.308   0.350   8.576
 2530OM     OM1 2530   0.397   0.135   8.468
 2531OM     OM1 2531   0.247   0.301   8.331
 2532OM     OM1 2532   3.426   0.324   8.477
 2533OM     OM1 2533   3.191   0.436   8.429
 2534OM     OM1 2534   3.247   0.318   8.660
 2535OM     OM1 2535   3.220   0.175   8.439
 2536OM     OM1 2536   6.909   8.762   5.965
 2537OM     OM1 2537   6.973   8.751   5.720
 2538OM     OM1 2538   6.821   8.946   5.796
 2539OM     OM1 2539   2.869   1.048   8.563
 2540OM     OM1 2540   2.812   1.289   8.607
 2541OM     OM1 2541   3.058   1.200   8.670
 2542OM     OM1 2542   7.217   0.693   0.889
 2543OM     OM1 2543   7.013   0.845   0.864
 2544OM     OM1 2544   7.259   0.926   0.779
 2545OM     OM1 2545   6.571   9.036   2.568
 2546OM     OM1 2546   6.724   9.132   2.389
 2547OM     OM1 2547   6.558   8.941   2.329
 2548OM     OM1 2548   6.459   9.171   2.359
 2549OM     OM1 2549   2.028   0.459   3.307
 2550OM     OM1 2550   1.856   0.601   3.417
 2551OM     OM1 2551   2.113   0.647   3.465
 2552OM     OM1 2552   1.995   0.724   3.242
 2553OM     OM1 2553   2.282   0.874   7.096
 2554OM     OM1 2554   2.480   1.043   7.188
 2555OM     OM1 2555   2.237   1.077   7.253
 2556OM     OM1 2556   2.362   0.871   7.344
 2557OM     OM1 2557   2.101   8.281   6.077
 2558OM     OM1 2558   2.285   8.470   5.766
 2559OM     OM1 2559   2.503   8.343   5.840
 2560OM     OM1 2560   2.263   8.236   5.874
 2561OM     OM1 2561   1.182   8.976   1.231
 2562OM     OM1 2562   1.320   9.130   1.077
 2563OM     OM1 2563   1.120   9.237   1.207
 2564OM     OM1 2564   8.540   9.302   0.642
 2565OM     OM1 2565   8.675   9.488   0.506
 2566OM     OM1 2566   8.417   9.486   0.492
 2567OM     OM1 2567   3.425   1.000   8.993
 2568OM     OM1 2568   3.482   1.252   8.953
 2569OM     OM1 2569   3.564   1.128   9.172
 2570OM     OM1 2570   3.669   1.072   8.939
 2571OM     OM1 2571   1.106   0.321   9.266
 2572OM     OM1 2572   1.224   0.168   9.087
 2573OM     OM1 2573   1.174   0.019   8.871
 2574OM     OM1 2574   4.540   0.030   4.800
 2575OM     OM1 2575   4.746   0.120   4.674
 2576OM     OM1 2576   4.680   9.468   4.652
 2577OM     OM1 2577   4.541   0.049   4.538
 2578OM     OM1 2578   8.155   9.445   4.542
 2579OM     OM1 2579   8.411   9.488   4.494
 2580OM     OM1 2580   8.288   0.052   4.645
 2581OM     OM1 2581   9.289   8.471   2.309
 2582OM     OM1 2582   9.551   8.428   2.338
 2583OM     OM1 2583   7.972   0.954   3.179
 2584OM     OM1 2584   7.808   1.239   3.562
 2585OM     OM1 2585   7.901   1.051   3.414
 2586OM     OM1 2586   7.985   1.070   3.668
 2587OM     OM1 2587   1.725   8.275   2.693
 2588OM     OM1 2588   1.914   8.448   2.632
 2589OM     OM1 2589   4.825   1.203   4.073
 2590OM     OM1 2590   4.632   1.122   4.239
 2591OM     OM1 2591   4.570   1.251   4.027
 2592OM     OM1 2592   1.761   8.787   0.405
 2593OM     OM1 2593   1.773   8.734   0.143
 2594OM     OM1 2594   1.546   8.791   0.245
 2595OM     OM1 2595   4.899   8.566   9.048
 2596OM     OM1 2596   5.026   8.716   9.222
 2597OM     OM1 2597   5.020   8.783   8.973
 2598OM     OM1 2598   5.233   0.126   4.749
 2599OM     OM1 2599   5.058   0.078   4.933
 2600OM     OM1 2600   4.982   0.209   4.726
 2601OM     OM1 2601   5.034   9.560   4.699
 2602OM     OM1 2602   5.269   8.363   5.771
 2603OM     OM1 2603   5.072   8.426   5.615
 2604OM     OM1 2604   7.073   8.322   1.566
 2605OM     OM1 2605   6.852   8.210   1.655
 2606OM     OM1 2606   3.088   0.878   7.838
 2607OM     OM1 2607   3.002   0.889   7.601
 2608OM     OM1 2608   3.302   0.744   7.820
 2609OM     OM1 2609   3.109   0.637   7.966
 2610OM     OM1 2610   7.397   0.467   5.794
 2611OM     OM1 2611   7.202   0.380   5.669
 2612OM     OM1 2612   7.406   0.219   5.686
 2613OM     OM1 2613   0.156   9.467   1.217
 2614OM     OM1 2614   0.394   9.440   1.107
 2615OM     OM1 2615   0.186   9.558   0.976
 2616OM     OM1 2616   9.366   0.866   9.217
 2617OM     OM1 2617   9.285   1.007   9.414
 2618OM     OM1 2618   9.536   0.905   9.404
 2619OM     OM1 2619   8.544   0.911   7.391
 2620OM     OM1 2620   8.459   1.154   7.444
 2621OM     OM1 2621   8.470   0.973   7.628
 2622OM     OM1 2622   8.694   1.075   7.538
 2623OM     OM1 2623   6.161   8.328   6.643
 2624OM     OM1 2624   6.030   8.204   6.464
 2625OM     OM1 2625   0.393   0.308   9.274
 2626OM     OM1 2626   0.765   0.210   9.022
 2627OM     OM1 2627   0.612   0.173   9.221
 2628OM     OM1 2628   0.806   0.000   9.171
 2629OM     OM1 2629   6.118   8.579   2.656
 2630OM     OM1 2630   6.295   8.710   2.515
 2631OM     OM1 2631   6.183   8.822   2.710
 2632OM     OM1 2632   4.802   0.911   1.424
 2633OM     OM1 2633   4.871   1.103   1.251
 2634OM     OM1 2634   4.627   1.085   1.327
 2635OM     OM1 2635   4.731   0.889   1.181
 2636OM     OM1 2636   7.068   0.600   1.206
 2637OM     OM1 2637   6.813   0.544   1.249
 2638OM     OM1 2638   6.884   0.735   1.077
 2639OM     OM1 2639   6.914   0.761   1.342
 2640OM     OM1 2640   3.310   0.878   0.469
 2641OM     OM1 2641   3.062   0.950   0.560
 2642OM     OM1 2642   3.166   0.732   0.633
 2643OM     OM1 2643   3.271   0.961   0.714
 2644OM     OM1 2644   0.108   0.062   5.133
 2645OM     OM1 2645   0.056   0.002   5.375
 2646OM     OM1 2646   0.286   9.529   5.261
 2647OM     OM1 2647   3.981   8.736   5.084
 2648OM     OM1 2648   3.895   8.636   5.305
 2649OM     OM1 2649   3.868   8.824   5.480
 2650OM     OM1 2650   4.151   8.646   5.263
 2651OM     OM1 2651   5.665   8.131   3.317
 2652OM     OM1 2652   5.438   8.173   3.197
 2653OM     OM1 2653   5.651   8.321   3.147
 2654OM     OM1 2654   4.350   0.291   7.839
 2655OM     OM1 2655   4.504   0.215   7.644
 2656OM     OM1 2656   4.248   0.127   7.672
 2657OM     OM1 2657   4.447   0.050   7.831
 2658OM     OM1 2658   4.971   0.180   8.322
 2659OM     OM1 2659   5.014   0.044   8.555
 2660OM     OM1 2660   7.011   0.256   9.153
 2661OM     OM1 2661   6.986   0.061   8.988
 2662OM     OM1 2662   7.081   0.008   9.226
 2663OM     OM1 2663   6.831   0.057   9.186
 2664OM     OM1 2664   7.169   9.194   8.333
 2665OM     OM1 2665   7.186   9.402   8.486
 2666OM     OM1 2666   0.244   8.496   4.590
 2667OM     OM1 2667   0.171   8.456   4.339
 2668OM     OM1 2668   6.385   9.029   6.741
 2669OM     OM1 2669   6.645   9.083   6.746
 2670OM     OM1 2670   6.529   9.032   6.527
 2671OM     OM1 2671   6.589   8.842   6.703
 2672OM     OM1 2672   0.372   0.578   1.432
 2673OM     OM1 2673   0.595   0.688   1.528
 2674OM     OM1 2674   0.596   0.573   1.297
 2675OM     OM1 2675   0.561   0.430   1.524
 2676OM     OM1 2676   2.694   9.088   3.351
 2677OM     OM1 2677   2.443   9.167   3.361
 2678OM     OM1 2678   2.561   9.123   3.127
 2679OM     OM1 2679   2.633   9.329   3.263
 2680OM     OM1 2680   7.910   9.310   0.971
 2681OM     OM1 2681   7.939   9.452   0.759
 2682OM     OM1 2682   7.896   9.192   0.735
 2683OM     OM1 2683   7.784   9.147   0.496
 2684OM     OM1 2684   5.127   1.155   5.663
 2685OM     OM1 2685   4.907   1.011   5.592
 2686OM     OM1 2686   5.033   1.008   5.837
 2687OM     OM1 2687   5.129   0.892   5.625
 2688OM     OM1 2688   5.881   8.577   3.420
 2689OM     OM1 2689   5.630   8.588   3.453
 2690OM     OM1 2690   5.762   8.350   3.412
 2691OM     OM1 2691   5.771   8.462   3.634
 2692OM     OM1 2692   4.449   0.686   5.179
 2693OM     OM1 2693   4.530   0.748   4.942
 2694OM     OM1 2694   4.316   0.864   5.041
 2695OM     OM1 2695   4.305   0.619   4.965
 2696OM     OM1 2696   0.826   1.024   2.632
 2697OM     OM1 2697   0.576   1.116   2.689
 2698OM     OM1 2698   0.685   1.145   2.463
 2699OM     OM1 2699   8.120   1.054   2.984
 2700OM     OM1 2700   8.174   1.097   3.236
 2701OM     OM1 2701   8.205   0.853   3.139
 2702OM     OM1 2702   0.260   0.121   5.789
 2703OM     OM1 2703   0.415   0.131   5.590
 2704OM     OM1 2704   0.245   0.329   5.628
 2705OM     OM1 2705   0.452   0.315   5.773
 2706OM     OM1 2706   0.596   8.635   0.711
 2707OM     OM1 2707   0.447   8.668   0.493
 2708OM     OM1 2708   0.642   8.495   0.504
 2709OM     OM1 2709   7.998   9.592   8.468
 2710OM     OM1 2710   8.087   9.336   8.525
 2711OM     OM1 2711   7.866   9.411   8.607
 2712OM     OM1 2712   7.896   9.397   8.348
 2713OM     OM1 2713   8.549   8.648   4.156
 2714OM     OM1 2714   8.477   8.572   3.906
 2715OM     OM1 2715   8.691   8.486   4.025
 2716OM     OM1 2716   8.440   8.422   4.119
 2717OM     OM1 2717   6.826   9.327   5.138
 2718OM     OM1 2718   6.613   9.294   5.300
 2719OM     OM1 2719   6.849   9.206   5.362
 2720OM     OM1 2720   6.796   9.471   5.347
 2721OM     OM1 2721   8.767   8.988   2.100
 2722OM     OM1 2722   8.534   9.002   2.223
 2723OM     OM1 2723   8.537   8.977   1.963
 2724OM     OM1 2724   8.621   8.776   2.117
 2725OM     OM1 2725   9.104   0.133   5.444
 2726OM     OM1 2726   9.281   0.318   5.404
 2727OM     OM1 2727   9.062   0.304   5.253
 2728OM     OM1 2728   9.262   0.130   5.236
 2729OM     OM1 2729   7.476   8.366   3.361
 2730OM     OM1 2730   7.415   8.167   3.506
 2731OM     OM1 2731   7.660   8.246   3.504
 2732OM     OM1 2732   9.252   1.179   1.592
 2733OM     OM1 2733   9.516   1.144   1.578
 2734OM     OM1 2734   9.350   0.962   1.484
 2735OM     OM1 2735   2.643   0.690   7.723
 2736OM     OM1 2736   2.776   0.472   7.815
 2737OM     OM1 2737   2.712   0.505   7.566
 2738OM     OM1 2738   3.270   8.692   0.016
 2739OM     OM1 2739   3.166   8.768   0.241
 2740OM     OM1 2740   3.024   8.792   0.036
 2741OM     OM1 2741   3.078   8.548   0.116
 2742OM     OM1 2742   0.999   8.810   1.658
 2743OM     OM1 2743   1.163   8.987   1.723
 2744OM     OM1 2744   1.258   8.745   1.659
 2745OM     OM1 2745   1.162   8.887   1.472
 2746OM     OM1 2746   6.893   1.085   5.100
 2747OM     OM1 2747   7.152   1.070   5.122
 2748OM     OM1 2748   7.017   1.106   5.340
 2749OM     OM1 2749   6.388   9.488   0.935
 2750OM     OM1 2750   6.134   9.422   0.994
 2751OM     OM1 2751   6.293   9.256   0.884
 2752OM     OM1 2752   6.218   9.454   0.740
 2753OM     OM1 2753   8.319   8.667   7.036
 2754OM     OM1 2754   8.117   8.519   6.819
 2755OM     OM1 2755   8.369   8.794   6.813
 2756OM     OM1 2756   8.369   8.540   6.816
 2757OM     OM1 2757   9.226   9.506   7.916
 2758OM     OM1 2758   9.176   0.073   7.730
 2759OM     OM1 2759   9.416   0.085   7.824
 2760OM     OM1 2760   9.221   0.152   7.975
 2761OM     OM1 2761   4.083   0.572   1.051
 2762OM     OM1 2762   3.948   0.524   1.265
 2763OM     OM1 2763   4.218   0.568   1.276
 2764OM     OM1 2764   4.476   8.886   5.035
 2765OM     OM1 2765   4.734   8.819   5.053
 2766OM     OM1 2766   4.611   8.785   4.828
 2767OM     OM1 2767   4.655   9.025   4.917
 2768OM     OM1 2768   0.741   0.854   2.173
 2769OM     OM1 2769   0.873   1.013   1.991
 2770OM     OM1 2770   0.616   0.997   2.004
 2771OM     OM1 2771   0.556   0.905   3.723
 2772OM     OM1 2772   0.537   0.938   3.329
 2773OM     OM1 2773   0.376   0.953   3.523
 2774OM     OM1 2774   0.485   0.722   3.549
 2775OM     OM1 2775   3.895   8.402   3.259
 2776OM     OM1 2776   4.119   8.400   3.133
 2777OM     OM1 2777   1.801   9.246   6.107
 2778OM     OM1 2778   1.688   9.018   6.046
 2779OM     OM1 2779   1.756   9.188   5.852
 2780OM     OM1 2780   9.510   1.091   3.602
 2781OM     OM1 2781   0.051   0.881   3.662
 2782OM     OM1 2782   9.461   0.856   3.492
 2783OM     OM1 2783   9.405   0.883   3.742
 2784OM     OM1 2784   9.039   0.529   4.329
 2785OM     OM1 2785   8.822   0.666   4.411
 2786OM     OM1 2786   8.851   0.569   4.166
 2787OM     OM1 2787   8.820   0.407   4.374
 2788OM     OM1 2788   6.954   0.731   6.876
 2789OM     OM1 2789   6.936   0.474   6.887
 2790OM     OM1 2790   6.945   0.598   6.660
 2791OM     OM1 2791   1.628   0.404   4.024
 2792OM     OM1 2792   1.452   0.255   3.897
 2793OM     OM1 2793   1.464   0.594   4.084
 2794OM     OM1 2794   3.576   9.530   2.191
 2795OM     OM1 2795   3.615   0.129   2.347
 2796OM     OM1 2796   3.486   0.167   2.135
 2797OM     OM1 2797   3.520   0.095   2.579
 2798OM     OM1 2798   6.872   0.274   6.625
 2799OM     OM1 2799   7.046   0.413   6.509
 2800OM     OM1 2800   2.770   8.821   7.336
 2801OM     OM1 2801   2.569   8.949   7.234
 2802OM     OM1 2802   2.549   8.725   7.418
 2803OM     OM1 2803   0.123   0.565   9.412
 2804OM     OM1 2804   0.373   0.655   9.415
 2805OM     OM1 2805   0.182   0.815   9.457
 2806OM     OM1 2806   3.676   0.200   4.936
 2807OM     OM1 2807   3.526   0.207   5.148
 2808OM     OM1 2808   3.692   0.023   5.132
 2809OM     OM1 2809   3.494   0.014   4.958
 2810OM     OM1 2810   5.179   8.782   3.371
 2811OM     OM1 2811   5.135   8.797   3.627
 2812OM     OM1 2812   4.935   8.777   3.462
 2813OM     OM1 2813   5.068   9.003   3.484
 2814OM     OM1 2814   8.307   8.738   7.714
 2815OM     OM1 2815   8.372   9.038   7.666
 2816OM     OM1 2816   8.467   8.606   7.558
 2817OM     OM1 2817   8.628   9.036   7.682
 2818OM     OM1 2818   7.649   9.353   5.705
 2819OM     OM1 2819   7.768   9.529   5.545
 2820OM     OM1 2820   7.895   9.396   5.728
 2821OM     OM1 2821   7.808   9.272   5.511
 2822OM     OM1 2822   5.842   8.559   2.172
 2823OM     OM1 2823   6.003   8.673   1.988
 2824OM     OM1 2824   5.835   8.809   2.135
 2825OM     OM1 2825   2.693   0.324   1.559
 2826OM     OM1 2826   2.527   0.266   1.753
 2827OM     OM1 2827   2.468   0.197   1.507
 2828OM     OM1 2828   2.656   0.073   1.642
 2829OM     OM1 2829   5.955   0.311   9.271
 2830OM     OM1 2830   5.901   0.241   9.510
 2831OM     OM1 2831   5.711   0.226   9.327
 2832OM     OM1 2832   9.100   0.956   8.616
 2833OM     OM1 2833   8.999   0.836   8.834
 2834OM     OM1 2834   4.538   9.426   0.145
 2835OM     OM1 2835   4.770   9.499   0.016
 2836OM     OM1 2836   4.733   9.520   0.278
 2837OM     OM1 2837   6.544   1.167   6.261
 2838OM     OM1 2838   6.650   1.018   6.445
 2839OM     OM1 2839   6.746   1.254   6.377
 2840OM     OM1 2840   8.261   0.496   0.523
 2841OM     OM1 2841   8.526   0.470   0.502
 2842OM     OM1 2842   8.423   0.555   0.723
 2843OM     OM1 2843   8.418   0.705   0.511
 2844OM     OM1 2844   4.572   0.371   7.443
 2845OM     OM1 2845   4.493   0.338   7.190
 2846OM     OM1 2846   4.333   0.463   7.357
 2847OM     OM1 2847   4.381   0.218   7.391
 2848OM     OM1 2848   1.526   9.559   4.062
 2849OM     OM1 2849   1.587   9.398   4.251
 2850OM     OM1 2850   1.773   9.508   4.109
 2851OM     OM1 2851   1.441   8.794   2.650
 2852OM     OM1 2852   1.525   8.565   2.719
 2853OM     OM1 2853   1.655   8.700   2.533
 2854OM     OM1 2854   0.295   0.713   1.980
 2855OM     OM1 2855   0.143   0.553   2.128
 2856OM     OM1 2856   0.219   0.492   1.891
 2857OM     OM1 2857   8.259   1.070   2.152
 2858OM     OM1 2858   6.469   0.628   2.866
 2859OM     OM1 2859   6.243   0.665   2.731
 2860OM     OM1 2860   6.387   0.869   2.797
 2861OM     OM1 2861   6.483   0.420   2.730
 2862OM     OM1 2862   9.255   8.822   6.828
 2863OM     OM1 2863   9.240   8.668   6.633
 2864OM     OM1 2864   1.614   0.690   3.420
 2865OM     OM1 2865   1.637   0.447   3.362
 2866OM     OM1 2866   1.650   0.299   3.147
 2867OM     OM1 2867   4.598   8.844   2.154
 2868OM     OM1 2868   4.835   8.749   2.220
 2869OM     OM1 2869   4.733   8.688   1.998
 2870OM     OM1 2870   4.813   8.945   2.041
 2871OM     OM1 2871   7.311   0.295   4.800
 2872OM     OM1 2872   7.424   0.482   4.668
 2873OM     OM1 2873   7.351   0.263   4.538
 2874OM     OM1 2874   1.983   1.020   4.139
 2875OM     OM1 2875   1.726   1.016   4.197
 2876OM     OM1 2876   1.800   1.073   3.948
 2877OM     OM1 2877   1.703   0.317   0.809
 2878OM     OM1 2878   1.645   0.082   0.918
 2879OM     OM1 2879   1.793   0.097   0.706
 2880OM     OM1 2880   1.789   0.635   0.324
 2881OM     OM1 2881   1.983   0.492   0.408
 2882OM     OM1 2882   1.867   0.409   0.191
 2883OM     OM1 2883   2.011   0.635   0.198
 2884OM     OM1 2884   2.652   8.263   5.651
 2885OM     OM1 2885   2.738   8.452   5.802
 2886OM     OM1 2886   1.225   8.968   7.603
 2887OM     OM1 2887   1.270   9.148   7.789
 2888OM     OM1 2888   1.379   8.923   7.812
 2889OM     OM1 2889   9.048   8.361   1.571
 2890OM     OM1 2890   9.291   8.420   1.629
 2891OM     OM1 2891   9.095   8.501   1.788
 2892OM     OM1 2892   3.707   0.965   7.253
 2893OM     OM1 2893   3.718   1.149   7.078
 2894OM     OM1 2894   3.697   0.961   6.773
 2895OM     OM1 2895   3.765   0.897   7.009
 2896OM     OM1 2896   6.590   8.631   4.970
 2897OM     OM1 2897   6.646   8.736   4.722
 2898OM     OM1 2898   6.493   8.534   4.746
 2899OM     OM1 2899   6.748   8.513   4.794
 2900OM     OM1 2900   7.717   0.091   0.955
 2901OM     OM1 2901   7.769   0.059   0.713
 2902OM     OM1 2902   7.767   0.304   0.806
 2903OM     OM1 2903   9.225   0.113   4.100
 2904OM     OM1 2904   8.968   0.118   4.059
 2905OM     OM1 2905   9.079   0.288   4.231
 2906OM     OM1 2906   0.548   8.561   7.440
 2907OM     OM1 2907   0.819   8.877   7.502
 2908OM     OM1 2908   0.573   8.803   7.544
 2909OM     OM1 2909   4.297   9.402   8.783
 2910OM     OM1 2910   4.160   9.482   8.581
 2911OM     OM1 2911   4.041   9.451   8.804
 2912OM     OM1 2912   0.404   1.130   2.081
 2913OM     OM1 2913   0.632   1.172   2.197
 2914OM     OM1 2914   0.589   1.252   1.945
 2915OM     OM1 2915   6.633   9.541   8.414
 2916OM     OM1 2916   6.757   0.126   8.286
 2917OM     OM1 2917   6.651   9.531   8.153
 2918OM     OM1 2918   4.371   9.224   0.115
 2919OM     OM1 2919   4.390   9.415   9.548
 2920OM     OM1 2920   4.274   9.453   0.184
 2921OM     OM1 2921   6.233   1.356   8.581
 2922OM     OM1 2922   6.137   1.205   8.769
 2923OM     OM1 2923   4.931   8.864   8.349
 2924OM     OM1 2924   4.984   8.824   8.095
 2925OM     OM1 2925   4.741   8.867   8.179
 2926OM     OM1 2926   4.919   9.060   8.168
 2927OM     OM1 2927   1.763   8.642   6.175
 2928OM     OM1 2928   1.942   8.493   6.066
 2929OM     OM1 2929   1.774   8.628   5.914
 2930OM     OM1 2930   1.973   8.744   6.037
 2931OM     OM1 2931   3.113   9.256   0.210
 2932OM     OM1 2932   3.099   9.138   9.582
 2933OM     OM1 2933   3.213   9.021   0.180
 2934OM     OM1 2934   4.562   9.532   8.577
 2935OM     OM1 2935   4.802   9.545   8.670
 2936OM     OM1 2936   4.601   9.538   8.840
 2937OM     OM1 2937   8.617   0.132   7.440
 2938OM     OM1 2938   8.382   0.216   7.385
 2939OM     OM1 2939   8.557   0.367   7.526
 2940OM     OM1 2940   4.861   0.817   6.834
 2941OM     OM1 2941   4.650   0.695   6.876
 2942OM     OM1 2942   4.707   0.774   6.627
 2943OM     OM1 2943   4.842   0.576   7.023
 2944OM     OM1 2944   8.721   8.463   3.208
 2945OM     OM1 2945   8.468   8.403   3.189
 2946OM     OM1 2946   8.579   8.415   3.424
 2947OM     OM1 2947   7.648   0.513   6.963
 2948OM     OM1 2948   7.851   0.392   6.865
 2949OM     OM1 2949   7.709   0.563   6.712
 2950OM     OM1 2950   7.859   0.657   6.890
 2951OM     OM1 2951   3.448   8.760   5.127
 2952OM     OM1 2952   3.594   8.526   5.140
 2953OM     OM1 2953   3.346   8.533   5.074
 2954OM     OM1 2954   3.511   8.651   4.911
 2955OM     OM1 2955   1.748   0.029   1.769
 2956OM     OM1 2956   1.688   0.298   1.775
 2957OM     OM1 2957   1.854   0.206   1.605
 2958OM     OM1 2958   2.863   9.231   5.959
 2959OM     OM1 2959   2.654   9.080   5.917
 2960OM     OM1 2960   2.750   9.226   5.726
 2961OM     OM1 2961   2.888   9.022   5.791
 2962OM     OM1 2962   2.225   0.975   8.915
 2963OM     OM1 2963   2.186   1.234   9.009
 2964OM     OM1 2964   2.415   1.103   9.023
 2965OM     OM1 2965   2.323   1.179   8.796
 2966OM     OM1 2966   7.827   9.015   6.569
 2967OM     OM1 2967   7.637   8.999   6.768
 2968OM     OM1 2968   7.670   9.206   6.607
 2969OM     OM1 2969   7.567   8.986   6.519
 2970OM     OM1 2970   5.045   0.884   9.478
 2971OM     OM1 2971   5.173   0.844   9.241
 2972OM     OM1 2972   5.178   0.848   8.978
 2973OM     OM1 2973   5.301   0.903   9.460
 2974OM     OM1 2974   7.299   0.169   3.282
 2975OM     OM1 2975   7.297   0.251   3.533
 2976OM     OM1 2976   7.122   0.345   3.360
 2977OM     OM1 2977   7.108   0.101   3.447
 2978OM     OM1 2978   2.500   0.009   8.963
 2979OM     OM1 2979   2.350   0.161   9.125
 2980OM     OM1 2980   2.246   0.008   8.945
 2981OM     OM1 2981   2.388   0.232   8.878
 2982OM     OM1 2982   6.745   0.131   4.843
 2983OM     OM1 2983   6.713   0.058   4.589
 2984OM     OM1 2984   6.556   9.576   4.787
 2985OM     OM1 2985   6.811   9.502   4.767
 2986OM     OM1 2986   3.918   8.292   3.702
 2987OM     OM1 2987   4.024   8.490   3.569
 2988OM     OM1 2988   4.149   8.374   3.764
 2989OM     OM1 2989   7.120   8.515   1.402
 2990OM     OM1 2990   7.274   8.301   1.415
 2991OM     OM1 2991   7.089   8.206   1.785
 2992OM     OM1 2992   2.389   8.825   2.306
 2993OM     OM1 2993   2.494   8.592   2.352
 2994OM     OM1 2994   2.394   8.658   2.106
 2995OM     OM1 2995   2.248   8.607   2.326
 2996OM     OM1 2996   2.989   1.142   2.391
 2997OM     OM1 2997   2.734   1.178   2.366
 2998OM     OM1 2998   4.098   8.862   2.545
 2999OM     OM1 2999   4.058   9.109   2.573
 3000OM     OM1 3000   4.303   9.019   2.526
 3001OM     OM1 3001   4.141   9.012   2.329
 3002OM     OM1 3002   9.428   8.931   8.730
 3003OM     OM1 3003   9.507   8.888   8.971
 3004OM     OM1 3004   3.899   0.939   3.320
 3005OM     OM1 3005   3.859   0.888   3.049
 3006OM     OM1 3006   4.096   0.891   3.161
 3007OM     OM1 3007   5.646   0.584   3.940
 3008OM     OM1 3008   6.074   0.515   3.786
 3009OM     OM1 3009   5.640   0.532   3.683
 3010OM     OM1 3010   5.829   0.428   3.828
 3011OM     OM1 3011   1.667   1.173   2.363
 3012OM     OM1 3012   1.453   1.026   2.328
 3013OM     OM1 3013   1.454   1.289   2.266
 3014OM     OM1 3014   1.460   1.200   2.514
 3015OM     OM1 3015   6.127   9.485   0.493
 3016OM     OM1 3016   5.911   9.408   0.357
 3017OM     OM1 3017   6.112   9.539   0.236
 3018OM     OM1 3018   2.685   8.739   0.933
 3019OM     OM1 3019   2.545   8.839   0.743
 3020OM     OM1 3020   2.786   8.715   0.698
 3021OM     OM1 3021   2.572   8.577   0.748
 3022OM     OM1 3022   5.996   0.162   8.061
 3023OM     OM1 3023   6.237   0.121   8.161
 3024OM     OM1 3024   6.052   9.545   8.189
 3025OM     OM1 3025   5.575   0.341   6.368
 3026OM     OM1 3026   5.398   0.497   6.462
 3027OM     OM1 3027   5.633   0.488   6.569
 3028OM     OM1 3028   5.597   0.597   6.324
 3029OM     OM1 3029   7.039   8.668   3.877
 3030OM     OM1 3030   6.928   8.897   3.969
 3031OM     OM1 3031   6.989   8.682   4.121
 3032OM     OM1 3032   7.168   8.851   4.031
 3033OM     OM1 3033   6.154   1.174   6.267
 3034OM     OM1 3034   5.944   1.333   6.231
 3035OM     OM1 3035   6.081   1.343   6.444
 3036OM     OM1 3036   5.118   8.991   8.853
 3037OM     OM1 3037   5.175   8.763   8.756
 3038OM     OM1 3038   5.275   8.833   8.996
 3039OM     OM1 3039   0.063   1.255   3.937
 3040OM     OM1 3040   0.125   1.129   4.145
 3041OM     OM1 3041   9.529   1.300   4.160
 3042OM     OM1 3042   8.670   1.210   1.251
 3043OM     OM1 3043   1.194   9.121   2.398
 3044OM     OM1 3044   1.203   8.929   2.222
 3045OM     OM1 3045   1.020   8.926   2.405
 3046OM     OM1 3046   1.311   9.342   2.333
 3047OM     OM1 3047   2.332   1.242   3.811
 3048OM     OM1 3048   2.366   1.284   4.057
 3049OM     OM1 3049   3.489   0.318   5.383
 3050OM     OM1 3050   3.233   0.333   5.356
 3051OM     OM1 3051   3.328   0.289   5.595
 3052OM     OM1 3052   3.371   0.525   5.471
 3053OM     OM1 3053   2.237   0.040   3.793
 3054OM     OM1 3054   2.314   0.250   3.653
 3055OM     OM1 3055   2.066   0.198   3.692
 3056OM     OM1 3056   4.430   8.649   7.373
 3057OM     OM1 3057   4.362   8.848   7.639
 3058OM     OM1 3058   7.393   0.884   5.450
 3059OM     OM1 3059   7.501   1.097   5.351
 3060OM     OM1 3060   7.527   0.867   5.237
 3061OM     OM1 3061   9.021   0.008   6.962
 3062OM     OM1 3062   8.766   0.080   6.975
 3063OM     OM1 3063   9.164   8.749   9.323
 3064OM     OM1 3064   8.956   8.757   9.474
 3065OM     OM1 3065   9.206   8.810   9.567
 3066OM     OM1 3066   9.131   8.568   9.523
 3067OM     OM1 3067   3.970   9.388   9.393
 3068OM     OM1 3068   4.158   9.205   9.446
 3069OM     OM1 3069   4.093   9.397   0.017
 3070OM     OM1 3070   8.990   8.656   6.205
 3071OM     OM1 3071   9.140   8.444   6.223
 3072OM     OM1 3072   8.962   8.496   6.413
 3073OM     OM1 3073   9.177   8.647   6.381
 3074OM     OM1 3074   5.456   0.140   7.391
 3075OM     OM1 3075   5.663   0.016   7.466
 3076OM     OM1 3076   5.655   0.288   7.452
 3077OM     OM1 3077   0.778   0.299   1.561
 3078OM     OM1 3078   0.639   0.365   1.770
 3079OM     OM1 3079   0.550   0.177   1.607
 3080OM     OM1 3080   9.454   0.781   0.218
 3081OM     OM1 3081   9.393   0.559   0.328
 3082OM     OM1 3082   4.129   0.163   6.965
 3083OM     OM1 3083   4.211   0.304   6.773
 3084OM     OM1 3084   9.482   8.786   9.220
 3085OM     OM1 3085   0.274   8.872   9.262
 3086OM     OM1 3086   0.056   8.848   9.395
 3087OM     OM1 3087   6.214   8.787   8.844
 3088OM     OM1 3088   6.056   8.805   9.048
 3089OM     OM1 3089   6.179   8.576   9.002
 3090OM     OM1 3090   1.838   0.353   7.817
 3091OM     OM1 3091   2.038   0.474   7.928
 3092OM     OM1 3092   1.803   0.500   8.036
 3093OM     OM1 3093   1.914   0.271   8.053
 3094OM     OM1 3094   2.850   0.239   0.877
 3095OM     OM1 3095   3.108   0.202   0.836
 3096OM     OM1 3096   2.964   9.605   0.889
 3097OM     OM1 3097   5.138   0.554   3.888
 3098OM     OM1 3098   5.314   0.659   4.037
 3099OM     OM1 3099   5.121   0.806   3.959
 3100OM     OM1 3100   1.480   8.298   1.687
 3101OM     OM1 3101   1.431   8.316   1.425
 3102OM     OM1 3102   1.592   9.568   1.144
 3103OM     OM1 3103   1.842   0.006   1.071
 3104OM     OM1 3104   1.918   8.373   9.489
 3105OM     OM1 3105   1.813   8.331   0.124
 3106OM     OM1 3106   2.045   8.238   0.071
 3107OM     OM1 3107   4.780   1.053   8.467
 3108OM     OM1 3108   4.968   1.056   8.276
 3109OM     OM1 3109   4.792   1.372   8.295
 3110OM     OM1 3110   5.808   0.826   2.645
 3111OM     OM1 3111   6.022   0.689   2.571
 3112OM     OM1 3112   5.917   0.845   2.396
 3113OM     OM1 3113   6.482   0.152   3.777
 3114OM     OM1 3114   6.639   0.150   3.572
 3115OM     OM1 3115   6.693   0.313   3.774
 3116OM     OM1 3116   6.486   0.356   3.620
 3117OM     OM1 3117   5.012   9.596   8.814
 3118OM     OM1 3118   5.009   9.397   8.634
 3119OM     OM1 3119   3.823   8.265   9.325
 3120OM     OM1 3120   3.801   8.405   9.108
 3121OM     OM1 3121   4.032   8.358   9.213
 3122OM     OM1 3122   0.413   9.472   8.118
 3123OM     OM1 3123   0.642   9.353   8.122
 3124OM     OM1 3124   0.624   0.009   8.078
 3125OM     OM1 3125   0.537   9.448   7.890
 3126OM     OM1 3126   8.769   0.778   7.053
 3127OM     OM1 3127   8.630   0.940   6.885
 3128OM     OM1 3128   8.546   0.878   7.129
 3129OM     OM1 3129   8.554   0.696   6.940
 3130OM     OM1 3130   6.533   0.427   8.379
 3131OM     OM1 3131   6.370   0.566   8.242
 3132OM     OM1 3132   6.416   0.315   8.171
 3133OM     OM1 3133   3.424   8.422   0.984
 3134OM     OM1 3134   3.323   8.656   1.019
 3135OM     OM1 3135   3.513   8.620   0.835
 3136OM     OM1 3136   3.423   8.869   1.124
 3137OM     OM1 3137   2.675   8.925   7.804
 3138OM     OM1 3138   2.532   9.147   7.759
 3139OM     OM1 3139   2.773   9.165   7.841
 3140OM     OM1 3140   9.241   9.115   3.072
 3141OM     OM1 3141   9.344   9.244   2.884
 3142OM     OM1 3142   9.379   9.332   3.131
 3143OM     OM1 3143   9.136   9.352   3.012
 3144OM     OM1 3144   0.500   9.090   3.118
 3145OM     OM1 3145   0.538   9.315   2.986
 3146OM     OM1 3146   0.681   9.253   3.203
 3147OM     OM1 3147   0.062   8.235   3.898
 3148OM     OM1 3148   9.037   8.397   5.726
 3149OM     OM1 3149   9.238   8.483   5.591
 3150OM     OM1 3150   2.030   0.401   1.614
 3151OM     OM1 3151   1.892   0.593   1.517
 3152OM     OM1 3152   1.990   0.639   1.757
 3153OM     OM1 3153   2.147   0.635   1.572
 3154OM     OM1 3154   4.177   0.411   5.868
 3155OM     OM1 3155   4.429   0.471   5.958
 3156OM     OM1 3156   4.329   0.249   6.026
 3157OM     OM1 3157   0.882   0.047   1.965
 3158OM     OM1 3158   0.651   9.599   2.081
 3159OM     OM1 3159   0.758   9.418   1.919
 3160OM     OM1 3160   0.866   9.469   2.147
 3161OM     OM1 3161   4.666   1.275   8.096
 3162OM     OM1 3162   4.041   0.069   8.058
 3163OM     OM1 3163   3.785   9.601   8.012
 3164OM     OM1 3164   3.958   9.446   8.133
 3165OM     OM1 3165   8.347   9.094   4.224
 3166OM     OM1 3166   8.516   9.252   4.106
 3167OM     OM1 3167   8.389   9.054   3.975
 3168OM     OM1 3168   8.577   9.005   4.165
 3169OM     OM1 3169   6.608   8.885   8.156
 3170OM     OM1 3170   6.669   8.728   8.354
 3171OM     OM1 3171   6.579   8.622   8.129
 3172OM     OM1 3172   6.421   8.757   8.283
 3173OM     OM1 3173   9.189   8.984   6.629
 3174OM     OM1 3174   9.192   9.237   6.594
 3175OM     OM1 3175   9.316   9.091   6.422
 3176OM     OM1 3176   9.055   9.085   6.427
 3177OM     OM1 3177   5.716   9.022   4.678
 3178OM     OM1 3178   5.567   8.920   4.486
 3179OM     OM1 3179   5.581   8.807   4.728
 3180OM     OM1 3180   5.780   8.796   4.574
 3181OM     OM1 3181   1.751   9.184   8.293
 3182OM     OM1 3182   1.608   9.121   8.499
 3183OM     OM1 3183   1.732   8.936   8.367
 3184OM     OM1 3184   3.785   1.293   6.674
 3185OM     OM1 3185   2.111   9.005   5.498
 3186OM     OM1 3186   2.366   9.000   5.436
 3187OM     OM1 3187   2.212   9.210   5.365
 3188OM     OM1 3188   6.132   8.377   8.849
 3189OM     OM1 3189   6.302   8.301   8.670
 3190OM     OM1 3190   0.775   0.863   8.978
 3191OM     OM1 3191   0.658   1.024   9.140
 3192OM     OM1 3192   0.740   1.097   8.892
 3193OM     OM1 3193   0.908   1.060   9.094
 3194OM     OM1 3194   6.640   0.911   6.907
 3195OM     OM1 3195   6.774   1.114   6.990
 3196OM     OM1 3196   6.593   0.724   7.088
 3197OM     OM1 3197   6.893   0.970   6.827
 3198OM     OM1 3198   3.208   9.415   2.032
 3199OM     OM1 3199   3.404   9.268   1.946
 3200OM     OM1 3200   3.232   9.162   2.111
 3201OM     OM1 3201   3.402   9.339   2.193
 3202OM     OM1 3202   3.043   9.324   7.484
 3203OM     OM1 3203   2.898   9.346   7.697
 3204OM     OM1 3204   2.848   9.512   7.501
 3205OM     OM1 3205   3.063   9.536   7.641
 3206OM     OM1 3206   8.395   8.442   7.363
 3207OM     OM1 3207   8.248   8.324   7.172
 3208OM     OM1 3208   8.198   8.564   7.243
 3209OM     OM1 3209   5.591   9.045   2.792
 3210OM     OM1 3210   5.480   9.063   3.029
 3211OM     OM1 3211   5.500   9.273   2.895
 3212OM     OM1 3212   5.323   9.101   2.819
 3213OM     OM1 3213   1.654   0.855   0.411
 3214OM     OM1 3214   1.509   0.442   0.319
 3215OM     OM1 3215   1.567   0.693   0.228
 3216OM     OM1 3216   0.221   8.871   0.178
 3217OM     OM1 3217   0.225   8.792   0.426
 3218OM     OM1 3218   0.346   9.011   0.356
 3219OM     OM1 3219   0.282   8.284   0.315
 3220OM     OM1 3220   0.101   8.434   0.193
 3221OM     OM1 3221   0.073   8.357   0.443
 3222OM     OM1 3222   0.252   8.533   0.389
 3223OM     OM1 3223   4.275   8.185   0.789
 3224OM     OM1 3224   4.488   8.315   0.708
 3225OM     OM1 3225   1.122   9.044   3.606
 3226OM     OM1 3226   1.143   9.130   3.359
 3227OM     OM1 3227   1.112   9.294   3.548
 3228OM     OM1 3228   1.343   9.182   3.521
 3229OM     OM1 3229   8.447   0.998   3.302
 3230OM     OM1 3230   8.378   0.744   3.289
 3231OM     OM1 3231   8.623   0.814   3.315
 3232OM     OM1 3232   8.463   0.838   3.518
 3233OM     OM1 3233   2.180   9.095   5.020
 3234OM     OM1 3234   2.085   8.762   4.761
 3235OM     OM1 3235   1.920   8.940   4.707
 3236OM     OM1 3236   3.551   9.472   8.909
 3237OM     OM1 3237   3.550   9.310   9.114
 3238OM     OM1 3238   3.325   9.348   8.987
 3239OM     OM1 3239   3.420   9.543   9.123
 3240OM     OM1 3240   9.015   0.648   5.066
 3241OM     OM1 3241   8.829   0.510   4.950
 3242OM     OM1 3242   8.751   0.704   5.109
 3243OM     OM1 3243   1.917   0.191   8.303
 3244OM     OM1 3244   1.698   0.166   8.173
 3245OM     OM1 3245   1.887   0.013   8.110
 3246OM     OM1 3246   6.230   8.610   8.392
 3247OM     OM1 3247   6.219   8.764   8.594
 3248OM     OM1 3248   6.158   8.507   8.624
 3249OM     OM1 3249   5.996   8.661   8.503
 3250OM     OM1 3250   4.978   0.770   8.093
 3251OM     OM1 3251   4.897   0.630   8.293
 3252OM     OM1 3252   4.957   0.516   8.073
 3253OM     OM1 3253   1.570   1.154   5.503
 3254OM     OM1 3254   1.350   1.002   5.457
 3255OM     OM1 3255   1.572   0.961   5.346
 3256OM     OM1 3256   2.343   9.426   6.246
 3257OM     OM1 3257   2.392   9.374   6.498
 3258OM     OM1 3258   2.412   9.185   6.310
 3259OM     OM1 3259   2.585   9.389   6.312
 3260OM     OM1 3260   8.021   0.625   2.950
 3261OM     OM1 3261   8.082   0.402   3.080
 3262OM     OM1 3262   8.249   0.602   3.087
 3263OM     OM1 3263   8.203   0.470   2.863
 3264OM     OM1 3264   0.227   8.640   0.631
 3265OM     OM1 3265   9.507   9.518   3.281
 3266OM     OM1 3266   9.534   0.058   3.507
 3267OM     OM1 3267   9.305   9.552   3.426
 3268OM     OM1 3268   9.406   0.155   3.314
 3269OM     OM1 3269   2.865   0.151   8.983
 3270OM     OM1 3270   3.071   0.194   9.148
 3271OM     OM1 3271   2.828   0.242   9.230
 3272OM     OM1 3272   2.933   0.390   9.051
 3273OM     OM1 3273   3.465   9.053   1.814
 3274OM     OM1 3274   3.357   9.088   1.571
 3275OM     OM1 3275   3.403   8.849   1.664
 3276OM     OM1 3276   3.600   9.007   1.596
 3277OM     OM1 3277   2.396   0.016   7.265
 3278OM     OM1 3278   2.622   0.030   7.393
 3279OM     OM1 3279   1.730   9.079   3.272
 3280OM     OM1 3280   1.619   9.205   3.071
 3281OM     OM1 3281   1.504   9.192   3.315
 3282OM     OM1 3282   6.470   8.501   1.947
 3283OM     OM1 3283   6.237   8.602   1.905
 3284OM     OM1 3284   4.553   1.131   4.482
 3285OM     OM1 3285   4.453   1.274   4.674
 3286OM     OM1 3286   4.829   0.062   3.686
 3287OM     OM1 3287   4.842   9.405   3.704
 3288OM     OM1 3288   3.233   9.232   5.921
 3289OM     OM1 3289   3.414   9.331   6.083
 3290OM     OM1 3290   3.443   9.084   5.981
 3291OM     OM1 3291   3.717   9.258   6.771
 3292OM     OM1 3292   3.758   8.937   6.728
 3293OM     OM1 3293   3.761   9.086   6.954
 3294OM     OM1 3294   3.975   9.016   6.833
 3295OM     OM1 3295   8.224   8.956   3.782
 3296OM     OM1 3296   8.167   8.929   4.034
 3297OM     OM1 3297   8.158   9.163   3.929
 3298OM     OM1 3298   4.946   0.803   2.144
 3299OM     OM1 3299   4.947   1.111   1.832
 3300OM     OM1 3300   4.894   1.054   2.091
 3301OM     OM1 3301   4.722   1.192   1.941
 3302OM     OM1 3302   2.001   8.320   5.005
 3303OM     OM1 3303   1.920   8.266   4.764
 3304OM     OM1 3304   1.814   8.469   4.887
 3305OM     OM1 3305   7.516   9.162   3.057
 3306OM     OM1 3306   7.477   9.282   3.290
 3307OM     OM1 3307   7.531   9.421   3.080
 3308OM     OM1 3308   7.302   9.309   3.098
 3309OM     OM1 3309   8.126   9.263   0.826
 3310OM     OM1 3310   8.224   9.137   1.025
 3311OM     OM1 3311   8.207   9.010   0.799
 3312OM     OM1 3312   8.391   9.199   0.829
 3313OM     OM1 3313   8.536   0.899   1.374
 3314OM     OM1 3314   8.621   0.658   1.434
 3315OM     OM1 3315   8.769   0.856   1.503
 3316OM     OM1 3316   8.531   0.826   1.620
 3317OM     OM1 3317   3.902   0.462   8.905
 3318OM     OM1 3318   4.001   0.458   8.659
 3319OM     OM1 3319   3.842   0.268   8.739
 3320OM     OM1 3320   2.046   0.758   1.974
 3321OM     OM1 3321   1.801   0.766   1.870
 3322OM     OM1 3322   1.978   0.912   1.762
 3323OM     OM1 3323   8.710   9.112   7.250
 3324OM     OM1 3324   8.897   8.968   7.362
 3325OM     OM1 3325   0.740   9.568   9.595
 3326OM     OM1 3326   0.886   9.368   0.100
 3327OM     OM1 3327   0.999   9.584   0.021
 3328OM     OM1 3328   0.971   9.141   0.013
 3329OM     OM1 3329   1.817   1.093   4.421
 3330OM     OM1 3330   2.023   0.926   4.497
 3331OM     OM1 3331   1.874   1.058   4.667
 3332OM     OM1 3332   2.043   1.184   4.503
 3333OM     OM1 3333   4.317   1.233   8.380
 3334OM     OM1 3334   4.071   1.173   8.356
 3335OM     OM1 3335   4.220   1.133   8.151
 3336OM     OM1 3336   9.179   1.253   1.915
 3337OM     OM1 3337   9.042   1.293   1.696
 3338OM     OM1 3338   2.826   1.421   5.656
 3339OM     OM1 3339   2.942   1.261   5.502
 3340OM     OM1 3340   1.935   8.815   6.463
 3341OM     OM1 3341   1.807   9.046   6.476
 3342OM     OM1 3342   1.702   8.833   6.586
 3343OM     OM1 3343   1.711   8.841   6.331
 3344OM     OM1 3344   3.507   1.148   2.801
 3345OM     OM1 3345   3.677   1.193   2.605
 3346OM     OM1 3346   3.478   1.039   2.564
 3347OM     OM1 3347   3.435   1.291   2.596
 3348OM     OM1 3348   6.853   0.818   8.240
 3349OM     OM1 3349   6.703   0.598   8.264
 3350OM     OM1 3350   6.759   0.726   8.027
 3351OM     OM1 3351   4.824   8.552   1.085
 3352OM     OM1 3352   5.013   8.554   1.259
 3353OM     OM1 3353   5.083   8.475   1.019
 3354OM     OM1 3354   4.512   9.506   9.330
 3355OM     OM1 3355   4.266   9.558   9.381
 3356OM     OM1 3356   4.343   9.306   9.315
 3357OM     OM1 3357   5.550   0.857   9.505
 3358OM     OM1 3358   5.590   1.211   9.180
 3359OM     OM1 3359   5.486   1.026   9.324
 3360OM     OM1 3360   5.647   0.960   9.122
 3361OM     OM1 3361   5.361   8.911   9.236
 3362OM     OM1 3362   5.404   8.667   9.148
 3363OM     OM1 3363   5.534   8.859   9.045
 3364OM     OM1 3364   2.190   8.553   4.649
 3365OM     OM1 3365   2.152   8.286   4.655
 3366OM     OM1 3366   2.060   8.626   4.337
 3367OM     OM1 3367   2.158   8.412   4.429
 3368OM     OM1 3368   5.340   0.926   1.386
 3369OM     OM1 3369   5.454   0.713   1.481
 3370OM     OM1 3370   5.255   0.806   1.605
 3371OM     OM1 3371   0.119   8.269   6.876
 3372OM     OM1 3372   9.411   1.199   8.892
 3373OM     OM1 3373   9.409   0.946   8.966
 3374OM     OM1 3374   9.316   1.025   8.728
 3375OM     OM1 3375   9.190   1.087   8.952
 3376OM     OM1 3376   3.965   1.194   1.811
 3377OM     OM1 3377   4.057   1.014   1.994
 3378OM     OM1 3378   4.216   1.175   1.876
 3379OM     OM1 3379   8.676   1.318   3.653
 3380OM     OM1 3380   8.902   1.426   3.659
 3381OM     OM1 3381   3.685   0.412   9.303
 3382OM     OM1 3382   3.676   0.452   9.566
 3383OM     OM1 3383   3.688   0.205   9.465
 3384OM     OM1 3384   3.891   0.363   9.482
 3385OM     OM1 3385   2.155   8.446   1.752
 3386OM     OM1 3386   2.374   8.543   1.850
 3387OM     OM1 3387   2.372   8.423   1.611
 3388OM     OM1 3388   2.507   9.030   1.162
 3389OM     OM1 3389   2.474   8.821   1.314
 3390OM     OM1 3390   2.692   8.858   1.170
 3391OM     OM1 3391   2.633   9.007   1.391
 3392OM     OM1 3392   8.704   9.596   5.727
 3393OM     OM1 3393   8.827   9.376   5.689
 3394OM     OM1 3394   8.940   9.602   5.605
 3395OM     OM1 3395   8.729   9.499   5.484
 3396OM     OM1 3396   0.713   8.703   6.622
 3397OM     OM1 3397   0.924   8.739   6.761
 3398OM     OM1 3398   0.681   8.768   6.871
 3399OM     OM1 3399   8.153   8.826   5.571
 3400OM     OM1 3400   7.906   8.788   5.644
 3401OM     OM1 3401   8.117   8.701   5.794
 3402OM     OM1 3402   2.097   9.545   2.312
 3403OM     OM1 3403   2.262   9.539   2.519
 3404OM     OM1 3404   2.173   0.163   2.414
 3405OM     OM1 3405   2.012   9.604   2.548
 3406OM     OM1 3406   1.794   1.002   0.578
 3407OM     OM1 3407   6.030   0.894   7.507
 3408OM     OM1 3408   6.015   1.032   7.731
 3409OM     OM1 3409   6.095   1.112   7.970
 3410OM     OM1 3410   5.655   0.503   5.289
 3411OM     OM1 3411   5.430   0.638   5.298
 3412OM     OM1 3412   5.658   0.759   5.336
 3413OM     OM1 3413   5.591   0.672   5.096
 3414OM     OM1 3414   1.023   0.632   7.434
 3415OM     OM1 3415   0.777   0.542   7.388
 3416OM     OM1 3416   1.287   0.612   7.386
 3417OM     OM1 3417   0.154   8.386   1.491
 3418OM     OM1 3418   0.364   8.242   1.495
 3419OM     OM1 3419   0.289   8.351   1.270
 3420OM     OM1 3420   7.898   9.099   1.904
 3421OM     OM1 3421   7.798   8.884   2.028
 3422OM     OM1 3422   8.055   8.900   1.964
 3423OM     OM1 3423   7.872   8.870   1.780
 3424OM     OM1 3424   5.323   1.205   3.610
 3425OM     OM1 3425   5.189   1.333   3.424
 3426OM     OM1 3426   7.177   0.392   8.702
 3427OM     OM1 3427   7.215   0.145   8.768
 3428OM     OM1 3428   7.358   0.250   8.580
 3429OM     OM1 3429   7.402   0.310   8.832
 3430OM     OM1 3430   1.048   8.363   2.687
 3431OM     OM1 3431   0.825   8.375   2.543
 3432OM     OM1 3432   6.491   0.090   8.255
 3433OM     OM1 3433   6.428   0.133   7.995
 3434OM     OM1 3434   0.930   1.192   5.435
 3435OM     OM1 3435   7.317   0.258   7.753
 3436OM     OM1 3436   7.195   0.074   7.891
 3437OM     OM1 3437   7.310   0.022   7.653
 3438OM     OM1 3438   7.455   0.064   7.866
 3439OM     OM1 3439   8.694   9.170   5.590
 3440OM     OM1 3440   8.566   9.132   5.358
 3441OM     OM1 3441   8.581   8.935   5.524
 3442OM     OM1 3442   8.432   9.138   5.575
 3443OM     OM1 3443   9.253   1.136   8.496
 3444OM     OM1 3444   7.368   0.388   0.285
 3445OM     OM1 3445   7.334   0.639   0.353
 3446OM     OM1 3446   7.568   0.534   0.382
 3447OM     OM1 3447   7.363   0.459   0.536
 3448OM     OM1 3448   1.688   1.047   0.060
 3449OM     OM1 3449   1.953   0.991   0.037
 3450OM     OM1 3450   1.780   0.849   0.182
 3451OM     OM1 3451   1.775   0.842   9.526
 3452OM     OM1 3452   6.764   8.794   6.894
 3453OM     OM1 3453   6.691   8.600   6.736
 3454OM     OM1 3454   4.742   0.508   1.319
 3455OM     OM1 3455   4.930   0.412   1.153
 3456OM     OM1 3456   4.786   0.639   1.099
 3457OM     OM1 3457   9.175   0.323   8.823
 3458OM     OM1 3458   9.546   0.158   8.573
 3459OM     OM1 3459   9.300   0.528   8.734
 3460OM     OM1 3460   3.045   8.553   8.973
 3461OM     OM1 3461   2.927   8.568   9.190
 3462OM     OM1 3462   3.164   8.669   9.183
 3463OM     OM1 3463   3.155   8.418   9.173
 3464OM     OM1 3464   3.692   0.828   0.630
 3465OM     OM1 3465   3.659   0.660   0.427
 3466OM     OM1 3466   3.853   0.626   0.616
 3467OM     OM1 3467   3.609   0.574   0.661
 3468OM     OM1 3468   4.320   8.581   4.451
 3469OM     OM1 3469   4.483   8.688   4.622
 3470OM     OM1 3470   4.283   8.549   4.711
 3471OM     OM1 3471   5.439   0.224   0.647
 3472OM     OM1 3472   5.487   0.171   0.898
 3473OM     OM1 3473   5.556   9.605   0.731
 3474OM     OM1 3474   5.295   0.037   0.759
 3475OM     OM1 3475   0.992   1.033   5.637
 3476OM     OM1 3476   0.789   1.189   5.670
 3477OM     OM1 3477   4.621   8.502   2.904
 3478OM     OM1 3478   4.824   8.351   2.831
 3479OM     OM1 3479   4.718   8.307   3.059
 3480OM     OM1 3480   4.520   8.983   6.988
 3481OM     OM1 3481   4.426   9.193   6.861
 3482OM     OM1 3482   4.589   9.224   7.057
 3483OM     OM1 3483   4.681   9.117   6.832
 3484OM     OM1 3484   3.507   8.725   9.505
 3485OM     OM1 3485   3.471   8.684   0.164
 3486OM     OM1 3486   2.650   8.480   4.884
 3487OM     OM1 3487   2.449   8.525   5.035
 3488OM     OM1 3488   2.672   8.475   5.156
 3489OM     OM1 3489   2.782   8.552   3.833
 3490OM     OM1 3490   2.689   8.378   3.655
 3491OM     OM1 3491   2.531   8.514   3.799
 3492OM     OM1 3492   0.433   1.361   3.240
 3493OM     OM1 3493   0.535   1.280   3.479
 3494OM     OM1 3494   2.929   1.205   4.274
 3495OM     OM1 3495   3.672   0.660   6.381
 3496OM     OM1 3496   3.663   0.670   6.132
 3497OM     OM1 3497   3.493   0.823   6.258
 3498OM     OM1 3498   3.466   0.561   6.255
 3499OM     OM1 3499   7.591   1.079   1.873
 3500OM     OM1 3500   7.578   1.158   1.620
 3501OM     OM1 3501   7.506   0.927   1.677
 3502OM     OM1 3502   7.767   0.998   1.708
 3503OM     OM1 3503   8.274   1.028   7.996
 3504OM     OM1 3504   8.155   1.145   7.789
 3505OM     OM1 3505   8.257   0.906   7.773
 3506OM     OM1 3506   5.438   9.591   2.234
 3507OM     OM1 3507   5.263   0.044   2.052
 3508OM     OM1 3508   5.196   9.525   2.277
 3509OM     OM1 3509   5.262   0.186   2.261
 3510OM     OM1 3510   7.796   0.508   2.884
 3511OM     OM1 3511   7.568   0.551   2.768
 3512OM     OM1 3512   7.623   0.305   2.851
 3513OM     OM1 3513   7.574   0.490   3.021
 3514OM     OM1 3514   1.372   0.646   0.391
 3515OM     OM1 3515   1.365   0.555   0.142
 3516OM     OM1 3516   7.641   9.169   2.825
 3517OM     OM1 3517   7.744   9.412   2.855
 3518OM     OM1 3518   0.182   8.400   8.615
 3519OM     OM1 3519   0.108   8.382   8.864
 3520OM     OM1 3520   9.553   8.495   8.692
 3521OM     OM1 3521   2.453   8.552   7.978
 3522OM     OM1 3522   2.303   8.616   7.782
 3523OM     OM1 3523   2.558   8.692   7.781
 3524OM     OM1 3524   2.499   8.446   7.737
 3525OM     OM1 3525   4.580   1.244   2.679
 3526OM     OM1 3526   4.741   1.104   2.522
 3527OM     OM1 3527   4.565   1.260   2.420
 3528OM     OM1 3528   8.112   8.957   1.336
 3529OM     OM1 3529   8.344   8.872   1.290
 3530OM     OM1 3530   8.141   8.784   1.141
 3531OM     OM1 3531   7.891   8.704   0.536
 3532OM     OM1 3532   8.076   8.819   0.406
 3533OM     OM1 3533   8.114   8.804   0.655
 3534OM     OM1 3534   7.927   8.957   0.591
 3535OM     OM1 3535   3.237   8.507   0.546
 3536OM     OM1 3536   3.419   8.519   0.352
 3537OM     OM1 3537   3.262   8.309   0.378
 3538OM     OM1 3538   2.252   0.905   0.993
 3539OM     OM1 3539   2.355   1.082   0.824
 3540OM     OM1 3540   2.195   1.162   1.016
 3541OM     OM1 3541   2.426   1.078   1.081
 3542OM     OM1 3542   7.970   1.115   0.131
 3543OM     OM1 3543   7.719   1.173   0.113
 3544OM     OM1 3544   7.814   1.058   0.335
 3545OM     OM1 3545   7.774   0.925   0.118
 3546OM     OM1 3546   6.874   9.535   3.780
 3547OM     OM1 3547   6.692   9.555   3.967
 3548OM     OM1 3548   6.925   0.079   3.995
 3549OM     OM1 3549   8.583   1.267   9.127
 3550OM     OM1 3550   8.475   1.048   9.154
 3551OM     OM1 3551   8.615   1.112   9.350
 3552OM     OM1 3552   8.755   1.058   9.150
 3553OM     OM1 3553   2.010   9.596   4.147
 3554OM     OM1 3554   1.998   9.376   4.016
 3555OM     OM1 3555   0.770   0.284   5.998
 3556OM     OM1 3556   0.961   0.308   5.807
 3557OM     OM1 3557   0.964   0.117   5.988
 3558OM     OM1 3558   0.787   0.121   5.795
 3559OM     OM1 3559   3.914   1.333   2.765
 3560OM     OM1 3560   3.929   1.318   3.021
 3561OM     OM1 3561   3.697   1.282   2.917
 3562OM     OM1 3562   4.230   9.506   4.324
 3563OM     OM1 3563   4.184   0.014   3.976
 3564OM     OM1 3564   4.207   0.130   4.196
 3565OM     OM1 3565   4.440   0.068   4.303
 3566OM     OM1 3566   6.175   8.459   7.541
 3567OM     OM1 3567   6.042   8.352   7.743
 3568OM     OM1 3568   6.048   8.237   7.507
 3569OM     OM1 3569   7.528   8.259   6.498
 3570OM     OM1 3570   7.634   8.258   6.747
 3571OM     OM1 3571   6.176   8.781   9.498
 3572OM     OM1 3572   5.951   8.659   9.413
 3573OM     OM1 3573   5.950   8.901   9.524
 3574OM     OM1 3574   6.041   8.873   9.293
 3575OM     OM1 3575   4.983   0.290   0.938
 3576OM     OM1 3576   5.127   0.231   1.145
 3577OM     OM1 3577   4.434   8.796   7.156
 3578OM     OM1 3578   4.771   9.003   7.403
 3579OM     OM1 3579   4.563   9.120   7.289
 3580OM     OM1 3580   9.191   9.007   8.805
 3581OM     OM1 3581   9.222   8.866   8.587
 3582OM     OM1 3582   9.309   9.109   8.583
 3583OM     OM1 3583   7.144   0.228   8.099
 3584OM     OM1 3584   6.710   0.412   5.769
 3585OM     OM1 3585   6.786   0.659   5.753
 3586OM     OM1 3586   6.961   0.464   5.745
 3587OM     OM1 3587   5.683   1.029   1.072
 3588OM     OM1 3588   5.920   1.111   1.063
 3589OM     OM1 3589   5.946   1.001   0.821
 3590OM     OM1 3590   6.096   0.913   1.011
 3591OM     OM1 3591   4.277   0.746   4.356
 3592OM     OM1 3592   4.091   0.815   4.518
 3593OM     OM1 3593   4.024   0.690   4.299
 3594OM     OM1 3594   4.140   0.560   4.496
 3595OM     OM1 3595   2.484   1.124   5.449
 3596OM     OM1 3596   2.742   1.093   5.424
 3597OM     OM1 3597   2.577   1.028   5.227
 3598OM     OM1 3598   8.707   9.419   2.280
 3599OM     OM1 3599   8.952   9.550   2.282
 3600OM     OM1 3600   8.743   0.042   2.163
 3601OM     OM1 3601   8.743   8.277   9.577
 3602OM     OM1 3602   6.061   1.207   3.420
 3603OM     OM1 3603   5.935   1.253   3.186
 3604OM     OM1 3604   6.182   1.235   3.197
 3605OM     OM1 3605   8.800   0.088   8.594
 3606OM     OM1 3606   8.562   0.197   8.556
 3607OM     OM1 3607   8.659   0.067   8.362
 3608OM     OM1 3608   8.596   9.544   8.571
 3609OM     OM1 3609   7.204   9.244   6.775
 3610OM     OM1 3610   7.034   9.421   6.684
 3611OM     OM1 3611   7.155   9.454   6.922
 3612OM     OM1 3612   7.289   9.479   6.701
 3613OM     OM1 3613   3.795   0.056   7.345
 3614OM     OM1 3614   3.649   9.592   7.545
 3615OM     OM1 3615   3.633   0.234   7.448
 3616OM     OM1 3616   3.538   0.030   7.317
 3617OM     OM1 3617   8.641   0.316   3.241
 3618OM     OM1 3618   8.164   0.198   3.225
 3619OM     OM1 3619   8.373   0.023   3.237
 3620OM     OM1 3620   7.672   8.657   4.451
 3621OM     OM1 3621   7.546   8.884   4.525
 3622OM     OM1 3622   7.576   8.818   4.277
 3623OM     OM1 3623   3.726   1.076   4.475
 3624OM     OM1 3624   3.468   1.030   4.525
 3625OM     OM1 3625   3.228   1.135   4.492
 3626OM     OM1 3626   3.654   1.045   4.714
 3627OM     OM1 3627   2.893   8.319   8.233
 3628OM     OM1 3628   2.690   8.411   8.597
 3629OM     OM1 3629   5.328   0.077   3.403
 3630OM     OM1 3630   5.337   0.107   3.150
 3631OM     OM1 3631   5.463   9.583   3.597
 3632OM     OM1 3632   0.230   8.525   5.480
 3633OM     OM1 3633   0.189   8.412   5.259
 3634OM     OM1 3634   0.249   8.676   5.260
 3635OM     OM1 3635   0.024   8.276   5.398
 3636OM     OM1 3636   0.315   0.301   0.356
 3637OM     OM1 3637   0.461   0.432   0.534
 3638OM     OM1 3638   9.325   0.741   4.412
 3639OM     OM1 3639   9.580   0.796   4.408
 3640OM     OM1 3640   9.437   0.856   4.206
 3641OM     OM1 3641   9.481   0.604   4.251
 3642OM     OM1 3642   0.367   1.195   1.396
 3643OM     OM1 3643   0.576   1.191   1.232
 3644OM     OM1 3644   7.654   1.305   3.360
 3645OM     OM1 3645   7.636   1.422   3.604
 3646OM     OM1 3646   4.928   0.012   4.236
 3647OM     OM1 3647   4.842   0.240   4.158
 3648OM     OM1 3648   4.703   0.103   4.339
 3649OM     OM1 3649   2.746   9.582   6.360
 3650OM     OM1 3650   2.794   9.421   6.148
 3651OM     OM1 3651   4.651   0.222   7.011
 3652OM     OM1 3652   4.607   0.475   7.007
 3653OM     OM1 3653   4.415   0.322   6.933
 3654OM     OM1 3654   6.001   9.108   7.365
 3655OM     OM1 3655   5.828   9.453   7.693
 3656OM     OM1 3656   5.935   9.004   7.592
 3657OM     OM1 3657   5.869   9.244   7.538
 3658OM     OM1 3658   7.127   9.420   4.451
 3659OM     OM1 3659   7.165   9.172   4.373
 3660OM     OM1 3660   7.309   9.352   4.273
 3661OM     OM1 3661   7.324   9.058   3.971
 3662OM     OM1 3662   7.426   8.835   4.071
 3663OM     OM1 3663   7.286   8.996   4.223
 3664OM     OM1 3664   3.515   9.220   7.306
 3665OM     OM1 3665   3.376   9.434   7.267
 3666OM     OM1 3666   3.253   9.222   7.358
 3667OM     OM1 3667   3.350   9.231   7.106
 3668OM     OM1 3668   9.306   1.020   1.015
 3669OM     OM1 3669   9.346   0.896   1.235
 3670OM     OM1 3670   9.132   0.838   1.107
 3671OM     OM1 3671   9.152   1.063   1.233
 3672OM     OM1 3672   2.693   0.482   4.324
 3673OM     OM1 3673   2.596   0.337   4.128
 3674OM     OM1 3674   2.694   0.575   4.078
 3675OM     OM1 3675   2.845   0.363   4.155
 3676OM     OM1 3676   7.559   1.342   9.266
 3677OM     OM1 3677   7.583   1.304   9.003
 3678OM     OM1 3678   8.179   8.569   1.808
 3679OM     OM1 3679   8.347   8.493   1.983
 3680OM     OM1 3680   8.171   8.678   2.044
 3681OM     OM1 3681   3.411   8.940   1.369
 3682OM     OM1 3682   3.368   9.194   1.325
 3683OM     OM1 3683   8.911   9.127   0.934
 3684OM     OM1 3684   8.666   9.236   0.864
 3685OM     OM1 3685   8.720   9.156   1.101
 3686OM     OM1 3686   8.434   1.159   2.318
 3687OM     OM1 3687   8.417   0.896   2.285
 3688OM     OM1 3688   2.577   8.687   1.909
 3689OM     OM1 3689   2.728   8.870   1.803
 3690OM     OM1 3690   2.744   8.630   1.706
 3691OM     OM1 3691   6.406   0.347   4.490
 3692OM     OM1 3692   6.625   0.389   4.633
 3693OM     OM1 3693   6.635   0.236   4.419
 3694OM     OM1 3694   9.546   0.006   1.582
 3695OM     OM1 3695   0.003   0.248   1.492
 3696OM     OM1 3696   0.070   0.164   1.728
 3697OM     OM1 3697   9.423   0.216   1.687
 3698OM     OM1 3698   9.386   0.686   5.642
 3699OM     OM1 3699   9.451   0.449   5.543
 3700OM     OM1 3700   9.582   0.538   5.743
 3701OM     OM1 3701   9.321   0.479   5.766
 3702OM     OM1 3702   4.958   8.971   6.414
 3703OM     OM1 3703   4.843   9.116   6.620
 3704OM     OM1 3704   0.242   9.370   4.217
 3705OM     OM1 3705   0.480   9.310   4.102
 3706OM     OM1 3706   0.275   9.386   3.955
 3707OM     OM1 3707   0.405   9.548   4.122
 3708OM     OM1 3708   8.748   0.711   5.770
 3709OM     OM1 3709   8.671   0.804   5.551
 3710OM     OM1 3710   8.642   1.049   5.626
 3711OM     OM1 3711   8.482   0.929   5.434
 3712OM     OM1 3712   2.482   0.768   0.247
 3713OM     OM1 3713   2.248   0.674   0.298
 3714OM     OM1 3714   2.553   0.975   0.105
 3715OM     OM1 3715   2.405   0.526   0.163
 3716OM     OM1 3716   1.717   0.810   2.208
 3717OM     OM1 3717   1.616   0.933   1.997
 3718OM     OM1 3718   1.612   0.680   2.007
 3719OM     OM1 3719   1.459   0.824   2.176
 3720OM     OM1 3720   5.381   9.602   8.268
 3721OM     OM1 3721   5.596   0.092   8.380
 3722OM     OM1 3722   5.497   0.226   8.185
 3723OM     OM1 3723   5.850   9.488   4.032
 3724OM     OM1 3724   5.712   9.544   4.256
 3725OM     OM1 3725   5.971   9.560   4.241
 3726OM     OM1 3726   0.403   0.951   2.787
 3727OM     OM1 3727   0.312   1.174   2.699
 3728OM     OM1 3728   6.478   9.586   6.311
 3729OM     OM1 3729   6.544   9.519   6.566
 3730OM     OM1 3730   6.497   0.158   6.125
 3731OM     OM1 3731   6.561   9.519   6.080
 3732OM     OM1 3732   6.484   0.948   1.483
 3733OM     OM1 3733   6.547   0.984   1.737
 3734OM     OM1 3734   6.323   0.875   1.669
 3735OM     OM1 3735   6.371   1.138   1.639
 3736OM     OM1 3736   3.186   8.255   6.964
 3737OM     OM1 3737   3.280   8.442   6.827
 3738OM     OM1 3738   5.378   1.274   8.966
 3739OM     OM1 3739   5.403   1.055   9.078
 3740OM     OM1 3740   5.146   1.170   8.966
 3741OM     OM1 3741   8.070   0.622   4.402
 3742OM     OM1 3742   8.218   0.524   4.213
 3743OM     OM1 3743   8.228   0.427   4.453
 3744OM     OM1 3744   8.020   0.380   4.306
 3745OM     OM1 3745   6.441   8.954   4.054
 3746OM     OM1 3746   6.505   8.702   4.032
 3747OM     OM1 3747   6.562   8.882   3.846
 3748OM     OM1 3748   6.315   8.807   3.875
 3749OM     OM1 3749   4.666   8.625   2.688
 3750OM     OM1 3750   4.520   8.753   2.888
 3751OM     OM1 3751   5.180   8.457   4.093
 3752OM     OM1 3752   4.923   8.451   4.126
 3753OM     OM1 3753   5.042   8.677   4.124
 3754OM     OM1 3754   5.085   8.516   4.330
 3755OM     OM1 3755   9.381   0.435   2.641
 3756OM     OM1 3756   9.247   0.363   2.418
 3757OM     OM1 3757   9.211   0.599   2.521
 3758OM     OM1 3758   9.438   0.551   2.419
 3759OM     OM1 3759   1.359   0.372   9.198
 3760OM     OM1 3760   1.350   0.211   8.864
 3761OM     OM1 3761   1.403   9.604   8.996
 3762OM     OM1 3762   8.998   0.831   1.642
 3763OM     OM1 3763   8.998   0.932   1.401
 3764OM     OM1 3764   2.654   9.547   3.690
 3765OM     OM1 3765   2.732   0.180   3.617
 3766OM     OM1 3766   4.017   8.806   3.842
 3767OM     OM1 3767   4.203   8.876   4.017
 3768OM     OM1 3768   4.263   8.813   3.764
 3769OM     OM1 3769   4.184   8.634   3.942
 3770OM     OM1 3770   7.345   9.154   5.705
 3771OM     OM1 3771   2.109   1.297   8.040
 3772OM     OM1 3772   1.865   1.232   8.104
 3773OM     OM1 3773   9.175   1.186   6.865
 3774OM     OM1 3774   9.347   0.996   6.878
 3775OM     OM1 3775   9.339   1.140   6.659
 3776OM     OM1 3776   7.322   8.358   5.789
 3777OM     OM1 3777   7.447   8.567   5.692
 3778OM     OM1 3778   7.463   8.531   5.947
 3779OM     OM1 3779   7.590   8.379   5.786
 3780OM     OM1 3780   8.554   0.395   5.989
 3781OM     OM1 3781   8.563   0.148   5.882
 3782OM     OM1 3782   8.604   0.357   5.747
 3783OM     OM1 3783   8.360   0.330   5.862
 3784OM     OM1 3784   5.031   0.952   8.772
 3785OM     OM1 3785   5.021   0.704   8.838
 3786OM     OM1 3786   4.928   0.890   9.000
 3787OM     OM1 3787   6.952   0.585   7.277
 3788OM     OM1 3788   6.702   0.544   7.231
 3789OM     OM1 3789   6.785   0.772   7.347
 3790OM     OM1 3790   2.344   0.328   9.335
 3791OM     OM1 3791   2.261   0.433   9.564
 3792OM     OM1 3792   2.110   0.289   9.424
 3793OM     OM1 3793   2.915   8.795   8.316
 3794OM     OM1 3794   2.682   8.675   8.316
 3795OM     OM1 3795   2.775   8.782   8.103
 3796OM     OM1 3796   2.701   8.929   8.334
 3797OM     OM1 3797   2.625   0.411   6.555
 3798OM     OM1 3798   2.824   0.390   6.391
 3799OM     OM1 3799   2.766   0.178   6.528
 3800OM     OM1 3800   2.606   0.258   6.343
 3801OM     OM1 3801   1.738   0.671   4.324
 3802OM     OM1 3802   1.496   0.759   4.277
 3803OM     OM1 3803   1.569   0.674   4.517
 3804OM     OM1 3804   1.662   0.894   4.422
 3805OM     OM1 3805   6.780   0.542   7.474
 3806OM     OM1 3806   6.490   0.660   7.316
 3807OM     OM1 3807   6.459   0.505   7.112
 3808OM     OM1 3808   9.323   8.987   1.561
 3809OM     OM1 3809   9.215   8.964   1.804
 3810OM     OM1 3810   9.478   8.971   1.764
 3811OM     OM1 3811   9.326   9.183   1.730
 3812OM     OM1 3812   1.189   9.198   1.890
 3813OM     OM1 3813   1.043   9.487   1.595
 3814OM     OM1 3814   1.303   9.466   1.645
 3815OM     OM1 3815   1.140   9.447   1.839
 3816OM     OM1 3816   4.692   8.963   5.773
 3817OM     OM1 3817   4.472   9.077   5.718
 3818OM     OM1 3818   4.659   9.218   5.834
 3819OM     OM1 3819   7.875   9.526   1.574
 3820OM     OM1 3820   7.897   9.332   1.764
 3821OM     OM1 3821   7.796   9.282   1.539
 3822OM     OM1 3822   7.665   9.430   1.715
 3823OM     OM1 3823   9.344   0.813   0.776
 3824OM     OM1 3824   9.439   0.581   0.819
 3825OM     OM1 3825   9.182   0.604   0.762
 3826OM     OM1 3826   1.507   0.398   9.592
 3827OM     OM1 3827   1.703   0.380   9.424
 3828OM     OM1 3828   1.717   0.251   0.048
 3829OM     OM1 3829   7.395   0.311   3.095
 3830OM     OM1 3830   7.466   0.066   3.099
 3831OM     OM1 3831   7.222   0.102   3.042
 3832OM     OM1 3832   8.250   8.362   7.981
 3833OM     OM1 3833   8.232   8.726   8.104
 3834OM     OM1 3834   8.289   8.341   7.729
 3835OM     OM1 3835   8.313   8.861   1.926
 3836OM     OM1 3836   8.494   8.883   1.724
 3837OM     OM1 3837   8.341   9.075   1.787
 3838OM     OM1 3838   6.751   0.589   9.564
 3839OM     OM1 3839   7.010   0.600   9.596
 3840OM     OM1 3840   6.883   0.366   9.590
 3841OM     OM1 3841   6.911   0.496   9.377
 3842OM     OM1 3842   9.167   8.994   9.222
 3843OM     OM1 3843   9.271   8.810   9.084
 3844OM     OM1 3844   9.010   8.804   9.125
 3845OM     OM1 3845   0.822   8.295   8.141
 3846OM     OM1 3846   0.803   8.518   8.017
 3847OM     OM1 3847   0.618   8.443   8.214
 3848OM     OM1 3848   0.856   8.526   8.259
 3849OM     OM1 3849   1.203   9.488   6.617
 3850OM     OM1 3850   0.976   9.385   6.555
 3851OM     OM1 3851   1.031   0.014   6.467
 3852OM     OM1 3852   0.970   0.818   3.420
 3853OM     OM1 3853   1.137   0.636   3.474
 3854OM     OM1 3854   1.197   0.880   3.544
 3855OM     OM1 3855   7.895   0.202   3.822
 3856OM     OM1 3856   7.918   0.337   3.599
 3857OM     OM1 3857   8.060   0.406   3.803
 3858OM     OM1 3858   8.106   0.176   3.670
 3859OM     OM1 3859   6.316   9.478   4.850
 3860OM     OM1 3860   6.146   0.065   4.787
 3861OM     OM1 3861   6.104   9.427   4.719
 3862OM     OM1 3862   6.079   9.494   4.970
 3863OM     OM1 3863   2.352   0.084   8.196
 3864OM     OM1 3864   2.141   0.089   8.345
 3865OM     OM1 3865   2.254   0.315   8.256
 3866OM     OM1 3866   2.369   0.173   8.437
 3867OM     OM1 3867   2.555   0.388   6.797
 3868OM     OM1 3868   2.351   0.250   6.873
 3869OM     OM1 3869   4.292   9.375   3.939
 3870OM     OM1 3870   6.634   0.441   7.682
 3871OM     OM1 3871   6.780   0.288   7.533
 3872OM     OM1 3872   6.886   0.449   7.691
 3873OM     OM1 3873   5.069   9.519   0.834
 3874OM     OM1 3874   4.811   9.436   0.819
 3875OM     OM1 3875   4.957   9.404   1.025
 3876OM     OM1 3876   4.877   0.051   0.940
 3877OM     OM1 3877   9.415   8.427   8.482
 3878OM     OM1 3878   9.175   8.364   8.384
 3879OM     OM1 3879   7.694   1.191   4.636
 3880OM     OM1 3880   7.461   1.242   4.739
 3881OM     OM1 3881   7.645   1.144   4.895
 3882OM     OM1 3882   5.631   8.686   0.052
 3883OM     OM1 3883   5.450   8.590   9.489
 3884OM     OM1 3884   5.718   8.545   9.456
 3885OM     OM1 3885   5.575   8.430   0.036
 3886OM     OM1 3886   7.197   9.216   3.808
 3887OM     OM1 3887   6.973   9.094   3.800
 3888OM     OM1 3888   6.999   9.326   3.676
 3889OM     OM1 3889   4.444   0.097   3.424
 3890OM     OM1 3890   4.506   9.454   3.423
 3891OM     OM1 3891   4.316   9.529   3.253
 3892OM     OM1 3892   5.079   0.822   7.861
 3893OM     OM1 3893   4.971   1.013   8.016
 3894OM     OM1 3894   4.819   0.837   7.895
 3895OM     OM1 3895   4.728   9.119   9.359
 3896OM     OM1 3896   4.941   9.241   9.264
 3897OM     OM1 3897   4.725   9.373   9.304
 3898OM     OM1 3898   4.742   9.210   9.101
 3899OM     OM1 3899   2.266   1.093   8.550
 3900OM     OM1 3900   2.404   0.878   8.489
 3901OM     OM1 3901   2.429   1.084   8.347
 3902OM     OM1 3902   3.331   1.053   8.165
 3903OM     OM1 3903   3.530   0.922   8.250
 3904OM     OM1 3904   3.538   1.190   8.219
 3905OM     OM1 3905   3.546   1.031   8.012
 3906OM     OM1 3906   2.718   0.537   5.231
 3907OM     OM1 3907   2.878   0.424   5.400
 3908OM     OM1 3908   2.944   0.648   5.281
 3909OM     OM1 3909   2.767   0.638   5.476
 3910OM     OM1 3910   8.803   0.293   2.138
 3911OM     OM1 3911   8.649   0.204   2.337
 3912OM     OM1 3912   8.553   0.201   2.093
 3913OM     OM1 3913   5.137   8.707   4.495
 3914OM     OM1 3914   5.089   8.476   4.597
 3915OM     OM1 3915   8.431   8.969   4.910
 3916OM     OM1 3916   8.270   8.848   5.078
 3917OM     OM1 3917   8.490   8.963   5.165
 3918OM     OM1 3918   8.505   8.745   5.021
 3919OM     OM1 3919   5.220   0.967   0.223
 3920OM     OM1 3920   5.230   0.764   0.385
 3921OM     OM1 3921   4.979   0.732   0.361
 3922OM     OM1 3922   3.372   1.340   6.915
 3923OM     OM1 3923   3.545   1.186   6.806
 3924OM     OM1 3924   0.072   9.229   3.903
 3925OM     OM1 3925   0.298   9.133   3.916
 3926OM     OM1 3926   0.250   9.273   3.705
 3927OM     OM1 3927   2.707   8.463   2.448
 3928OM     OM1 3928   2.585   8.606   2.617
 3929OM     OM1 3929   4.084   1.164   8.749
 3930OM     OM1 3930   4.319   1.247   8.642
 3931OM     OM1 3931   8.887   0.085   3.171
 3932OM     OM1 3932   9.050   0.129   2.965
 3933OM     OM1 3933   8.778   0.137   2.947
 3934OM     OM1 3934   8.922   9.521   2.978
 3935OM     OM1 3935   0.573   1.278   3.033
 3936OM     OM1 3936   0.799   1.172   2.984
 3937OM     OM1 3937   3.598   9.515   6.097
 3938OM     OM1 3938   3.680   0.074   5.903
 3939OM     OM1 3939   1.606   1.056   9.166
 3940OM     OM1 3940   1.723   0.869   9.033
 3941OM     OM1 3941   1.476   0.837   9.090
 3942OM     OM1 3942   1.668   0.837   9.282
 3943OM     OM1 3943   1.977   9.003   3.226
 3944OM     OM1 3944   1.788   8.828   3.287
 3945OM     OM1 3945   1.884   8.971   3.468
 3946OM     OM1 3946   5.803   8.488   8.482
 3947OM     OM1 3947   0.342   9.517   3.261
 3948OM     OM1 3948   0.166   0.029   3.109
 3949OM     OM1 3949   0.339   9.474   3.002
 3950OM     OM1 3950   7.784   0.370   5.980
 3951OM     OM1 3951   7.742   0.470   6.214
 3952OM     OM1 3952   7.671   0.610   6.000
 3953OM     OM1 3953   7.920   0.583   6.059
 3954OM     OM1 3954   2.891   1.039   0.229
 3955OM     OM1 3955   2.779   0.923   0.011
 3956OM     OM1 3956   2.760   1.246   0.286
 3957OM     OM1 3957   2.726   0.855   0.241
 3958OM     OM1 3958   8.882   0.771   1.114
 3959OM     OM1 3959   9.049   0.626   0.977
 3960OM     OM1 3960   2.077   0.325   0.577
 3961OM     OM1 3961   2.038   0.076   0.600
 3962OM     OM1 3962   6.567   0.225   7.082
 3963OM     OM1 3963   6.395   0.051   7.017
 3964OM     OM1 3964   6.382   0.159   7.254
 3965OM     OM1 3965   6.313   0.306   7.052
 3966OM     OM1 3966   5.560   9.401   2.362
 3967OM     OM1 3967   5.691   9.364   2.585
 3968OM     OM1 3968   5.434   9.484   2.572
 3969OM     OM1 3969   5.472   9.240   2.537
 3970OM     OM1 3970   5.446   8.701   2.419
 3971OM     OM1 3971   5.373   8.609   2.173
 3972OM     OM1 3972   5.186   9.012   2.291
 3973OM     OM1 3973   0.481   8.663   6.254
 3974OM     OM1 3974   0.444   8.417   6.182
 3975OM     OM1 3975   0.689   8.538   6.177
 3976OM     OM1 3976   0.592   8.449   6.390
 3977OM     OM1 3977   5.079   9.177   9.472
 3978OM     OM1 3978   5.103   8.988   0.045
 3979OM     OM1 3979   8.346   0.226   8.699
 3980OM     OM1 3980   8.166   0.176   8.511
 3981OM     OM1 3981   8.106   0.127   8.767
 3982OM     OM1 3982   3.530   0.872   7.809
 3983OM     OM1 3983   3.649   1.106   7.786
 3984OM     OM1 3984   3.767   0.916   7.917
 3985OM     OM1 3985   0.407   0.336   5.046
 3986OM     OM1 3986   0.190   0.221   4.941
 3987OM     OM1 3987   0.423   0.129   4.897
 3988OM     OM1 3988   0.336   0.381   4.806
 3989OM     OM1 3989   7.352   9.109   1.958
 3990OM     OM1 3990   7.343   9.303   2.126
 3991OM     OM1 3991   7.147   9.268   1.926
 3992OM     OM1 3992   7.155   9.128   2.137
 3993OM     OM1 3993   4.012   8.450   8.183
 3994OM     OM1 3994   3.872   8.627   8.048
 3995OM     OM1 3995   4.102   8.545   7.960
 3996OM     OM1 3996   4.080   8.704   8.177
 3997OM     OM1 3997   3.999   9.156   2.829
 3998OM     OM1 3998   4.004   8.917   2.905
 3999OM     OM1 3999   3.966   9.075   3.096
 4000OM     OM1 4000   1.270   0.841   4.719
 4001OM     OM1 4001   1.039   0.899   4.812
 4002OM     OM1 4002   1.061   0.682   4.675
 4003OM     OM1 4003   7.505   0.582   4.059
 4004OM     OM1 4004   7.356   0.655   3.854
 4005OM     OM1 4005   7.286   0.694   6.515
 4006OM     OM1 4006   7.051   0.657   6.421
 4007OM     OM1 4007   7.240   0.703   6.251
 4008OM     OM1 4008   7.143   0.890   6.427
 4009OM     OM1 4009   5.089   0.469   9.570
 4010OM     OM1 4010   5.181   0.670   9.424
 4011OM     OM1 4011   5.264   0.409   9.395
 4012OM     OM1 4012   5.236   8.728   1.979
 4013OM     OM1 4013   5.318   8.497   1.942
 4014OM     OM1 4014   2.765   1.232   0.020
 4015OM     OM1 4015   2.844   1.140   9.393
 4016OM     OM1 4016   2.609   1.273   9.418
 4017OM     OM1 4017   1.182   8.454   0.401
 4018OM     OM1 4018   1.350   8.279   0.320
 4019OM     OM1 4019   0.021   0.357   8.428
 4020OM     OM1 4020   0.112   0.489   8.213
 4021OM     OM1 4021   0.018   0.243   8.201
 4022OM     OM1 4022   7.795   1.042   6.058
 4023OM     OM1 4023   7.582   1.176   6.332
 4024OM     OM1 4024   7.575   0.937   6.421
 4025OM     OM1 4025   7.562   0.996   6.151
 4026OM     OM1 4026   7.147   9.201   2.925
 4027OM     OM1 4027   7.170   8.944   2.972
 4028OM     OM1 4028   3.404   1.107   0.894
 4029OM     OM1 4029   3.658   1.178   0.963
 4030OM     OM1 4030   5.526   8.722   5.468
 4031OM     OM1 4031   5.309   8.382   5.237
 4032OM     OM1 4032   5.482   8.247   5.388
 4033OM     OM1 4033   3.285   1.401   9.022
 4034OM     OM1 4034   3.111   1.224   9.077
 4035OM     OM1 4035   2.777   0.156   4.298
 4036OM     OM1 4036   2.964   0.053   4.730
 4037OM     OM1 4037   2.835   9.527   4.388
 4038OM     OM1 4038   2.792   0.130   4.554
 4039OM     OM1 4039   6.088   9.134   5.803
 4040OM     OM1 4040   5.947   9.270   5.633
 4041OM     OM1 4041   0.719   1.234   0.801
 4042OM     OM1 4042   0.509   1.150   0.684
 4043OM     OM1 4043   6.830   9.135   0.555
 4044OM     OM1 4044   6.798   9.065   0.309
 4045OM     OM1 4045   7.037   9.151   0.397
 4046OM     OM1 4046   5.162   0.490   6.574
 4047OM     OM1 4047   5.277   0.272   6.501
 4048OM     OM1 4048   5.189   0.434   6.317
 4049OM     OM1 4049   0.150   1.163   2.162
 4050OM     OM1 4050   0.204   1.285   2.374
 4051OM     OM1 4051   9.582   1.339   2.224
 4052OM     OM1 4052   0.012   1.121   2.384
 4053OM     OM1 4053   2.002   8.651   1.706
 4054OM     OM1 4054   2.002   8.714   1.439
 4055OM     OM1 4055   1.779   8.708   1.580
 4056OM     OM1 4056   5.626   8.714   7.762
 4057OM     OM1 4057   5.703   8.497   7.904
 4058OM     OM1 4058   5.846   8.720   7.899
 4059OM     OM1 4059   3.842   8.618   3.778
 4060OM     OM1 4060   3.759   8.386   3.873
 4061OM     OM1 4061   3.611   8.502   3.705
 4062OM     OM1 4062   8.241   8.836   6.243
 4063OM     OM1 4063   8.056   8.660   6.289
 4064OM     OM1 4064   8.169   8.680   6.050
 4065OM     OM1 4065   8.006   8.862   6.132
 4066OM     OM1 4066   1.044   0.851   9.142
 4067OM     OM1 4067   1.019   0.625   9.000
 4068OM     OM1 4068   0.920   0.972   9.337
 4069OM     OM1 4069   4.639   0.705   7.135
 4070OM     OM1 4070   4.206   9.158   1.808
 4071OM     OM1 4071   3.967   9.102   1.896
 4072OM     OM1 4072   4.159   9.082   2.065
 4073OM     OM1 4073   4.085   9.319   1.971
 4074OM     OM1 4074   8.812   8.714   3.967
 4075OM     OM1 4075   8.846   8.500   3.821
 4076OM     OM1 4076   8.960   8.525   4.057
 4077OM     OM1 4077   4.303   8.650   0.661
 4078OM     OM1 4078   4.494   8.815   0.704
 4079OM     OM1 4079   4.364   8.710   0.917
 4080OM     OM1 4080   4.515   8.563   0.777
 4081OM     OM1 4081   1.708   8.489   9.384
 4082OM     OM1 4082   1.342   8.430   0.103
 4083OM     OM1 4083   1.417   8.669   0.043
 4084OM     OM1 4084   8.616   8.560   4.398
 4085OM     OM1 4085   8.619   8.494   4.657
 4086OM     OM1 4086   8.001   8.544   4.091
 4087OM     OM1 4087   7.911   8.304   4.097
 4088OM     OM1 4088   7.775   8.474   3.971
 4089OM     OM1 4089   5.700   0.943   8.874
 4090OM     OM1 4090   5.609   0.736   8.998
 4091OM     OM1 4091   5.856   0.797   9.027
 4092OM     OM1 4092   3.168   9.242   4.948
 4093OM     OM1 4093   3.339   9.137   4.795
 4094OM     OM1 4094   3.392   9.379   4.895
 4095OM     OM1 4095   3.404   9.164   5.045
 4096OM     OM1 4096   4.872   9.056   1.814
 4097OM     OM1 4097   4.986   8.908   1.618
 4098OM     OM1 4098   4.767   9.057   1.573
 4099OM     OM1 4099   4.759   8.845   1.720
 4100OM     OM1 4100   6.534   0.060   8.870
 4101OM     OM1 4101   6.422   0.289   8.828
 4102OM     OM1 4102   1.787   8.401   0.884
 4103OM     OM1 4103   1.954   8.441   1.092
 4104OM     OM1 4104   6.750   9.199   0.100
 4105OM     OM1 4105   6.620   8.965   0.136
 4106OM     OM1 4106   6.881   8.970   0.089
 4107OM     OM1 4107   6.275   8.482   3.719
 4108OM     OM1 4108   6.390   8.390   3.946
 4109OM     OM1 4109   6.487   8.474   4.159
 4110OM     OM1 4110   6.226   8.460   4.131
 4111OM     OM1 4111   9.180   1.432   4.524
 4112OM     OM1 4112   3.133   9.303   0.679
 4113OM     OM1 4113   3.067   9.374   0.437
 4114OM     OM1 4114   0.732   0.768   0.125
 4115OM     OM1 4115   0.545   0.800   9.543
 4116OM     OM1 4116   0.557   0.967   0.144
 4117OM     OM1 4117   0.483   0.723   0.180
 4118OM     OM1 4118   5.965   8.352   7.285
 4119OM     OM1 4119   5.738   8.421   7.193
 4120OM     OM1 4120   2.572   9.546   1.856
 4121OM     OM1 4121   2.574   9.301   1.943
 4122OM     OM1 4122   2.600   9.490   2.110
 4123OM     OM1 4123   2.364   9.458   1.989
 4124OM     OM1 4124   3.904   0.565   2.416
 4125OM     OM1 4125   3.970   0.538   2.167
 4126OM     OM1 4126   4.101   0.411   2.355
 4127OM     OM1 4127   3.860   0.336   2.270
 4128OM     OM1 4128   1.163   9.324   7.068
 4129OM     OM1 4129   1.078   9.212   6.850
 4130OM     OM1 4130   9.248   9.280   8.035
 4131OM     OM1 4131   9.086   9.472   8.135
 4132OM     OM1 4132   7.073   9.596   0.938
 4133OM     OM1 4133   7.248   0.002   1.120
 4134OM     OM1 4134   7.075   0.195   1.107
 4135OM     OM1 4135   8.616   8.816   4.344
 4136OM     OM1 4136   8.585   9.064   4.416
 4137OM     OM1 4137   8.803   8.992   4.288
 4138OM     OM1 4138   8.947   0.756   0.478
 4139OM     OM1 4139   8.734   0.879   0.504
 4140OM     OM1 4140   8.731   0.612   0.422
 4141OM     OM1 4141   9.122   0.059   0.271
 4142OM     OM1 4142   9.079   0.028   0.520
 4143OM     OM1 4143   9.144   9.426   0.353
 4144OM     OM1 4144   8.908   9.513   0.367
 4145OM     OM1 4145   7.384   8.789   3.014
 4146OM     OM1 4146   7.545   8.699   2.825
 4147OM     OM1 4147   7.576   8.934   2.936
 4148OM     OM1 4148   7.638   8.706   3.062
 4149OM     OM1 4149   8.109   0.990   9.571
 4150OM     OM1 4150   8.175   1.247   0.016
 4151OM     OM1 4151   2.083   0.914   1.402
 4152OM     OM1 4152   1.846   0.812   1.394
 4153OM     OM1 4153   1.896   1.022   1.543
 4154OM     OM1 4154   0.949   0.227   1.150
 4155OM     OM1 4155   1.193   0.247   1.231
 4156OM     OM1 4156   0.987   0.236   1.408
 4157OM     OM1 4157   1.028   0.446   1.256
 4158OM     OM1 4158   8.564   0.611   3.612
 4159OM     OM1 4159   8.599   0.837   3.733
 4160OM     OM1 4160   0.238   0.574   7.777
 4161OM     OM1 4161   0.348   0.643   7.564
 4162OM     OM1 4162   0.420   0.415   7.683
 4163OM     OM1 4163   9.309   0.029   9.300
 4164OM     OM1 4164   9.566   9.570   9.316
 4165OM     OM1 4165   9.428   9.585   9.532
 4166OM     OM1 4166   9.466   0.200   9.385
 4167OM     OM1 4167   7.631   1.243   1.391
 4168OM     OM1 4168   7.873   1.228   1.444
 4169OM     OM1 4169   8.514   9.229   6.523
 4170OM     OM1 4170   8.549   9.469   6.458
 4171OM     OM1 4171   8.366   9.331   6.320
 4172OM     OM1 4172   5.189   1.370   5.536
 4173OM     OM1 4173   2.898   9.287   7.185
 4174OM     OM1 4174   2.824   9.544   7.256
 4175OM     OM1 4175   2.688   9.340   7.325
 4176OM     OM1 4176   6.541   8.789   7.496
 4177OM     OM1 4177   6.656   8.609   7.661
 4178OM     OM1 4178   6.428   8.554   7.530
 4179OM     OM1 4179   7.104   9.150   7.866
 4180OM     OM1 4180   6.847   9.210   7.866
 4181OM     OM1 4181   6.920   8.986   7.953
 4182OM     OM1 4182   4.749   0.976   4.413
 4183OM     OM1 4183   4.490   0.919   4.340
 4184OM     OM1 4184   3.559   1.144   3.316
 4185OM     OM1 4185   3.412   1.350   3.424
 4186OM     OM1 4186   2.563   9.329   7.573
 4187OM     OM1 4187   2.529   9.147   7.398
 4188OM     OM1 4188   2.437   9.386   7.354
 4189OM     OM1 4189   2.293   8.659   4.867
 4190OM     OM1 4190   2.332   8.775   4.646
 4191OM     OM1 4191   9.207   9.482   2.280
 4192OM     OM1 4192   9.144   0.132   2.321
 4193OM     OM1 4193   9.085   9.558   2.502
 4194OM     OM1 4194   7.820   9.046   6.094
 4195OM     OM1 4195   7.765   8.832   6.227
 4196OM     OM1 4196   7.928   9.011   6.330
 4197OM     OM1 4197   5.822   9.245   9.006
 4198OM     OM1 4198   5.893   9.492   9.020
 4199OM     OM1 4199   5.892   9.332   9.241
 4200OM     OM1 4200   5.672   9.419   9.138
 4201OM     OM1 4201   7.202   0.731   5.533
 4202OM     OM1 4202   6.998   0.781   5.688
 4203OM     OM1 4203   7.200   0.925   5.708
 4204OM     OM1 4204   7.230   0.673   5.783
 4205OM     OM1 4205   3.093   8.526   6.006
 4206OM     OM1 4206   3.256   8.420   6.183
 4207OM     OM1 4207   2.998   8.358   6.182
 4208OM     OM1 4208   2.330   8.354   9.263
 4209OM     OM1 4209   2.444   8.213   9.445
 4210OM     OM1 4210   8.033   8.757   9.541
 4211OM     OM1 4211   8.256   8.630   9.504
 4212OM     OM1 4212   8.273   8.876   9.558
 4213OM     OM1 4213   9.566   0.993   7.855
 4214OM     OM1 4214   0.131   1.001   8.046
 4215OM     OM1 4215   0.157   0.822   7.853
 4216OM     OM1 4216   0.215   1.070   7.807
 4217OM     OM1 4217   0.558   9.557   7.319
 4218OM     OM1 4218   0.400   0.081   7.476
 4219OM     OM1 4219   0.649   0.128   7.486
 4220OM     OM1 4220   0.532   0.199   7.261
 4221OM     OM1 4221   0.194   1.233   6.102
 4222OM     OM1 4222   0.330   1.020   6.039
 4223OM     OM1 4223   0.083   1.036   5.964
 4224OM     OM1 4224   0.256   1.190   5.850
 4225OM     OM1 4225   8.973   9.316   1.452
 4226OM     OM1 4226   9.220   9.333   1.548
 4227OM     OM1 4227   9.124   9.519   1.393
 4228OM     OM1 4228   9.167   9.273   1.297
 4229OM     OM1 4229   1.393   8.895   1.002
 4230OM     OM1 4230   1.483   8.719   0.838
 4231OM     OM1 4231   1.413   8.652   1.089
 4232OM     OM1 4232   1.974   9.271   3.574
 4233OM     OM1 4233   2.116   9.405   3.377
 4234OM     OM1 4234   2.226   9.226   3.514
 4235OM     OM1 4235   2.149   9.450   3.633
 4236OM     OM1 4236   1.328   8.355   9.133
 4237OM     OM1 4237   3.428   8.542   5.810
 4238OM     OM1 4238   3.509   8.307   5.783
 4239OM     OM1 4239   3.466   8.406   6.027
 4240OM     OM1 4240   3.677   8.481   5.892
 4241OM     OM1 4241   6.629   1.013   0.740
 4242OM     OM1 4242   6.764   1.097   0.539
 4243OM     OM1 4243   6.540   0.970   0.493
 4244OM     OM1 4244   7.793   8.988   8.703
 4245OM     OM1 4245   7.558   9.035   8.592
 4246OM     OM1 4246   7.581   8.996   8.846
 4247OM     OM1 4247   7.599   8.798   8.687
 4248OM     OM1 4248   7.527   8.691   6.667
 4249OM     OM1 4249   7.698   8.512   6.578
 4250OM     OM1 4250   7.452   8.552   6.470
 4251OM     OM1 4251   7.650   8.704   6.424
 4252OM     OM1 4252   3.337   9.458   4.482
 4253OM     OM1 4253   3.448   9.551   4.706
 4254OM     OM1 4254   3.198   9.555   4.679
 4255OM     OM1 4255   5.176   9.399   1.156
 4256OM     OM1 4256   5.217   9.382   1.413
 4257OM     OM1 4257   5.231   0.013   1.284
 4258OM     OM1 4258   5.411   9.428   1.256
 4259OM     OM1 4259   8.352   0.588   6.324
 4260OM     OM1 4260   8.102   0.639   6.237
 4261OM     OM1 4261   8.153   0.590   6.485
 4262OM     OM1 4262   2.016   0.216   2.826
 4263OM     OM1 4263   2.118   0.427   2.916
 4264OM     OM1 4264   2.082   0.194   3.071
 4265OM     OM1 4265   2.268   0.205   2.901
 4266OM     OM1 4266   3.596   0.477   3.664
 4267OM     OM1 4267   3.677   0.660   3.490
 4268OM     OM1 4268   3.772   0.411   3.489
 4269OM     OM1 4269   3.530   0.465   3.404
 4270OM     OM1 4270   5.021   1.255   8.096
 4271OM     OM1 4271   5.189   1.056   8.138
 4272OM     OM1 4272   6.446   0.611   6.120
 4273OM     OM1 4273   6.597   0.590   6.328
 4274OM     OM1 4274   6.396   0.429   6.304
 4275OM     OM1 4275   6.597   0.398   6.144
 4276OM     OM1 4276   8.439   0.678   2.131
 4277OM     OM1 4277   8.648   0.767   2.246
 4278OM     OM1 4278   0.153   8.408   3.413
 4279OM     OM1 4279   0.045   8.546   3.211
 4280OM     OM1 4280   9.585   8.593   3.459
 4281OM     OM1 4281   9.520   8.361   3.339
 4282OM     OM1 4282   4.172   0.126   5.476
 4283OM     OM1 4283   4.411   0.019   5.426
 4284OM     OM1 4284   0.773   8.926   6.495
 4285OM     OM1 4285   0.574   9.108   6.512
 4286OM     OM1 4286   0.559   8.815   6.435
 4287OM     OM1 4287   6.431   0.824   5.971
 4288OM     OM1 4288   6.220   0.723   6.104
 4289OM     OM1 4289   6.324   0.593   5.899
 4290OM     OM1 4290   3.653   8.657   0.335
 4291OM     OM1 4291   3.891   8.767   0.283
 4292OM     OM1 4292   3.853   8.504   0.338
 4293OM     OM1 4293   3.781   8.610   0.110
 4294OM     OM1 4294   8.061   0.096   1.542
 4295OM     OM1 4295   8.350   9.559   1.683
 4296OM     OM1 4296   8.037   0.204   1.774
 4297OM     OM1 4297   8.898   8.469   3.567
 4298OM     OM1 4298   8.669   8.384   3.664
 4299OM     OM1 4299   4.142   9.478   8.323
 4300OM     OM1 4300   3.978   9.270   8.320
 4301OM     OM1 4301   4.171   9.299   8.146
 4302OM     OM1 4302   6.657   8.624   1.479
 4303OM     OM1 4303   6.425   8.650   1.572
 4304OM     OM1 4304   6.724   8.379   1.524
 4305OM     OM1 4305   1.494   8.939   3.763
 4306OM     OM1 4306   1.556   9.049   3.533
 4307OM     OM1 4307   1.618   8.791   3.592
 4308OM     OM1 4308   1.379   8.856   3.538
 4309OM     OM1 4309   4.605   0.094   0.409
 4310OM     OM1 4310   4.605   9.466   0.506
 4311OM     OM1 4311   4.841   9.587   0.497
 4312OM     OM1 4312   9.049   9.007   4.195
 4313OM     OM1 4313   8.851   8.965   4.035
 4314OM     OM1 4314   3.995   0.256   3.453
 4315OM     OM1 4315   4.237   0.358   3.499
 4316OM     OM1 4316   4.041   0.342   3.681
 4317OM     OM1 4317   4.895   1.039   7.329
 4318OM     OM1 4318   5.103   1.200   7.311
 4319OM     OM1 4319   5.090   0.983   7.160
 4320OM     OM1 4320   5.085   0.792   6.966
 4321OM     OM1 4321   6.536   0.579   5.197
 4322OM     OM1 4322   6.501   0.842   5.203
 4323OM     OM1 4323   6.293   0.679   5.161
 4324OM     OM1 4324   6.486   0.719   4.982
 4325OM     OM1 4325   4.888   8.348   4.525
 4326OM     OM1 4326   4.766   8.355   4.297
 4327OM     OM1 4327   1.949   1.083   4.909
 4328OM     OM1 4328   2.127   0.897   4.949
 4329OM     OM1 4329   2.105   1.105   5.111
 4330OM     OM1 4330   2.209   1.129   4.866
 4331OM     OM1 4331   5.537   8.914   7.257
 4332OM     OM1 4332   5.743   9.062   7.402
 4333OM     OM1 4333   5.769   8.989   7.163
 4334OM     OM1 4334   5.752   8.819   7.363
 4335OM     OM1 4335   1.209   0.321   5.850
 4336OM     OM1 4336   1.090   0.525   5.728
 4337OM     OM1 4337   1.128   0.312   5.595
 4338OM     OM1 4338   0.837   8.304   8.458
 4339OM     OM1 4339   1.039   8.476   8.470
 4340OM     OM1 4340   1.032   8.281   8.280
 4341OM     OM1 4341   4.687   0.570   0.471
 4342OM     OM1 4342   4.762   0.663   0.241
 4343OM     OM1 4343   4.505   0.660   0.320
 4344OM     OM1 4344   4.676   0.829   0.426
 4345OM     OM1 4345   3.644   0.083   2.893
 4346OM     OM1 4346   3.426   9.595   2.793
 4347OM     OM1 4347   3.566   9.452   2.962
 4348OM     OM1 4348   3.419   0.044   3.043
 4349OM     OM1 4349   7.643   8.474   7.670
 4350OM     OM1 4350   7.541   8.533   7.445
 4351OM     OM1 4351   7.505   8.693   7.637
 4352OM     OM1 4352   7.749   8.670   7.524
 4353OM     OM1 4353   2.747   8.654   5.623
 4354OM     OM1 4354   2.557   8.811   5.487
 4355OM     OM1 4355   2.699   8.633   5.369
 4356OM     OM1 4356   2.808   8.855   5.464
 4357OM     OM1 4357   2.222   9.333   8.444
 4358OM     OM1 4358   2.189   9.067   8.416
 4359OM     OM1 4359   1.987   9.225   8.398
 4360OM     OM1 4360   2.171   9.222   8.211
 4361OM     OM1 4361   8.657   1.039   0.697
 4362OM     OM1 4362   8.501   0.963   0.893
 4363OM     OM1 4363   8.432   1.171   0.756
 4364OM     OM1 4364   8.434   0.942   0.632
 4365OM     OM1 4365   5.494   0.985   0.882
 4366OM     OM1 4366   5.281   0.989   0.709
 4367OM     OM1 4367   5.447   1.184   0.707
 4368OM     OM1 4368   5.518   0.964   0.611
 4369OM     OM1 4369   9.069   9.186   4.928
 4370OM     OM1 4370   9.203   9.269   5.129
 4371OM     OM1 4371   9.195   9.017   5.074
 4372OM     OM1 4372   9.055   9.220   0.198
 4373OM     OM1 4373   9.163   9.203   0.455
 4374OM     OM1 4374   3.551   0.848   3.354
 4375OM     OM1 4375   6.179   9.019   9.123
 4376OM     OM1 4376   5.927   9.024   9.097
 4377OM     OM1 4377   0.363   1.070   4.220
 4378OM     OM1 4378   0.319   1.250   4.396
 4379OM     OM1 4379   0.537   1.098   4.417
 4380OM     OM1 4380   3.769   9.267   7.239
 4381OM     OM1 4381   3.679   9.345   7.467
 4382OM     OM1 4382   5.685   1.093   8.660
 4383OM     OM1 4383   5.468   1.022   8.778
 4384OM     OM1 4384   5.616   1.193   8.893
 4385OM     OM1 4385   1.790   9.144   1.836
 4386OM     OM1 4386   1.796   9.164   1.577
 4387OM     OM1 4387   1.813   9.377   1.728
 4388OM     OM1 4388   2.017   9.213   1.721
 4389OM     OM1 4389   0.250   0.214   8.793
 4390OM     OM1 4390   0.074   0.357   8.679
 4391OM     OM1 4391   3.590   8.498   2.606
 4392OM     OM1 4392   3.792   8.436   2.454
 4393OM     OM1 4393   3.497   8.655   2.810
 4394OM     OM1 4394   0.252   9.459   8.607
 4395OM     OM1 4395   0.500   9.511   8.513
 4396OM     OM1 4396   0.311   9.440   8.355
 4397OM     OM1 4397   0.407   9.270   8.535
 4398OM     OM1 4398   2.790   1.172   1.430
 4399OM     OM1 4399   2.555   1.090   1.315
 4400OM     OM1 4400   2.775   1.035   1.205
 4401OM     OM1 4401   1.474   8.932   5.927
 4402OM     OM1 4402   1.465   9.027   6.176
 4403OM     OM1 4403   1.563   8.794   6.130
 4404OM     OM1 4404   7.382   9.209   8.676
 4405OM     OM1 4405   7.465   9.209   8.422
 4406OM     OM1 4406   7.312   9.016   8.529
 4407OM     OM1 4407   9.453   0.341   7.876
 4408OM     OM1 4408   9.480   0.567   7.759
 4409OM     OM1 4409   0.036   0.497   7.968
 4410OM     OM1 4410   7.050   8.971   6.014
 4411OM     OM1 4411   7.142   9.146   6.172
 4412OM     OM1 4412   7.050   9.220   5.929
 4413OM     OM1 4413   6.292   8.927   3.645
 4414OM     OM1 4414   6.515   8.947   3.502
 4415OM     OM1 4415   6.278   9.047   3.414
 4416OM     OM1 4416   6.329   8.793   3.424
 4417OM     OM1 4417   5.818   1.036   7.544
 4418OM     OM1 4418   6.034   1.157   7.512
 4419OM     OM1 4419   5.955   1.267   7.814
 4420OM     OM1 4420   2.963   0.607   6.393
 4421OM     OM1 4421   2.998   0.426   6.573
 4422OM     OM1 4422   3.073   0.370   6.322
 4423OM     OM1 4423   4.464   0.212   0.208
 4424OM     OM1 4424   4.577   0.343   0.398
 4425OM     OM1 4425   0.948   1.088   7.416
 4426OM     OM1 4426   0.811   1.107   7.185
 4427OM     OM1 4427   0.725   1.213   7.400
 4428OM     OM1 4428   3.066   9.478   9.382
 4429OM     OM1 4429   2.984   9.228   9.369
 4430OM     OM1 4430   2.891   9.388   9.195
 4431OM     OM1 4431   3.138   9.326   9.174
 4432OM     OM1 4432   0.193   8.350   6.157
 4433OM     OM1 4433   0.107   8.374   6.398
 4434OM     OM1 4434   9.554   8.427   6.182
 4435OM     OM1 4435   7.671   8.391   2.110
 4436OM     OM1 4436   4.117   8.689   2.039
 4437OM     OM1 4437   3.853   8.645   2.035
 4438OM     OM1 4438   3.958   8.843   1.905
 4439OM     OM1 4439   4.006   8.598   1.823
 4440OM     OM1 4440   5.808   0.155   8.517
 4441OM     OM1 4441   5.634   9.577   8.604
 4442OM     OM1 4442   3.796   8.832   8.515
 4443OM     OM1 4443   4.012   8.886   8.363
 4444OM     OM1 4444   3.969   8.988   8.612
 4445OM     OM1 4445   3.834   9.067   8.413
 4446OM     OM1 4446   4.106   1.088   6.100
 4447OM     OM1 4447   4.081   0.866   6.271
 4448OM     OM1 4448   4.133   0.847   6.027
 4449OM     OM1 4449   3.895   0.934   6.099
 4450OM     OM1 4450   4.154   1.013   7.310
 4451OM     OM1 4451   4.092   0.937   7.545
 4452OM     OM1 4452   4.246   1.153   7.507
 4453OM     OM1 4453   5.412   1.060   2.706
 4454OM     OM1 4454   5.346   1.307   2.653
 4455OM     OM1 4455   5.389   1.228   2.900
 4456OM     OM1 4456   1.935   0.837   5.803
 4457OM     OM1 4457   1.873   0.953   6.030
 4458OM     OM1 4458   1.687   0.844   5.862
 4459OM     OM1 4459   0.314   9.162   6.573
 4460OM     OM1 4460   0.465   9.338   6.460
 4461OM     OM1 4461   0.369   9.239   8.793
 4462OM     OM1 4462   0.423   9.270   9.045
 4463OM     OM1 4463   0.367   9.036   8.942
 4464OM     OM1 4464   6.942   0.624   7.856
 4465OM     OM1 4465   6.716   0.508   7.912
 4466OM     OM1 4466   2.567   0.264   9.212
 4467OM     OM1 4467   2.704   0.476   9.215
 4468OM     OM1 4468   2.676   0.336   9.431
 4469OM     OM1 4469   2.902   0.856   8.398
 4470OM     OM1 4470   3.121   0.912   8.266
 4471OM     OM1 4471   3.140   0.868   8.518
 4472OM     OM1 4472   3.078   0.668   8.364
 4473OM     OM1 4473   5.508   9.007   9.441
 4474OM     OM1 4474   5.625   8.945   0.064
 4475OM     OM1 4475   5.757   9.067   9.487
 4476OM     OM1 4476   7.676   1.249   5.137
 4477OM     OM1 4477   7.781   1.251   5.369
 4478OM     OM1 4478   7.537   1.348   5.331
 4479OM     OM1 4479   5.696   8.263   8.589
 4480OM     OM1 4480   5.336   8.472   8.598
 4481OM     OM1 4481   5.450   8.247   8.660
 4482OM     OM1 4482   3.309   9.181   8.036
 4483OM     OM1 4483   3.281   9.119   7.784
 4484OM     OM1 4484   3.349   9.368   7.850
 4485OM     OM1 4485   3.516   9.175   7.883
 4486OM     OM1 4486   7.426   8.835   8.986
 4487OM     OM1 4487   7.314   8.660   9.152
 4488OM     OM1 4488   7.266   8.920   9.156
 4489OM     OM1 4489   7.168   8.778   8.967
 4490OM     OM1 4490   9.274   8.792   4.577
 4491OM     OM1 4491   9.309   8.614   4.402
 4492OM     OM1 4492   9.167   8.837   4.352
 4493OM     OM1 4493   9.080   8.634   4.518
 4494OM     OM1 4494   4.658   8.318   0.340
 4495OM     OM1 4495   4.651   8.495   0.576
 4496OM     OM1 4496   4.636   8.577   0.340
 4497OM     OM1 4497   4.424   8.421   0.342
 4498OM     OM1 4498   5.815   0.226   2.363
 4499OM     OM1 4499   6.041   0.356   2.410
 4500OM     OM1 4500   6.047   0.131   2.285
 4501OM     OM1 4501   8.095   1.192   8.574
 4502OM     OM1 4502   7.897   1.001   8.585
 4503OM     OM1 4503   8.079   0.990   8.407
 4504OM     OM1 4504   9.528   0.028   3.754
 4505OM     OM1 4505   0.131   0.154   3.641
 4506OM     OM1 4506   9.510   0.278   3.653
 4507OM     OM1 4507   1.917   9.467   0.670
 4508OM     OM1 4508   1.826   0.006   0.468
 4509OM     OM1 4509   5.543   1.278   3.935
 4510OM     OM1 4510   5.334   1.272   4.081
 4511OM     OM1 4511   2.199   8.348   5.192
 4512OM     OM1 4512   2.209   8.469   5.430
 4513OM     OM1 4513   2.008   8.325   5.355
 4514OM     OM1 4514   5.522   1.253   8.398
 4515OM     OM1 4515   0.717   1.313   6.658
 4516OM     OM1 4516   0.959   1.298   6.578
 4517OM     OM1 4517   0.922   1.316   6.830
 4518OM     OM1 4518   0.309   8.763   5.894
 4519OM     OM1 4519   0.316   8.514   5.984
 4520OM     OM1 4520   0.523   8.631   5.855
 4521OM     OM1 4521   0.310   8.554   5.731
 4522OM     OM1 4522   1.190   9.118   4.419
 4523OM     OM1 4523   1.417   9.215   4.322
 4524OM     OM1 4524   9.123   0.629   5.867
 4525OM     OM1 4525   9.112   0.363   5.867
 4526OM     OM1 4526   9.030   0.443   9.312
 4527OM     OM1 4527   8.819   0.447   9.160
 4528OM     OM1 4528   8.817   0.535   9.421
 4529OM     OM1 4529   8.845   0.287   9.362
 4530OM     OM1 4530   9.584   1.296   5.189
 4531OM     OM1 4531   9.344   8.802   5.024
 4532OM     OM1 4532   9.381   9.017   4.891
 4533OM     OM1 4533   9.152   8.888   4.857
 4534OM     OM1 4534   0.705   1.367   5.272
 4535OM     OM1 4535   0.554   1.263   5.463
 4536OM     OM1 4536   4.807   0.804   3.525
 4537OM     OM1 4537   4.769   1.002   3.362
 4538OM     OM1 4538   4.619   0.975   3.582
 4539OM     OM1 4539   6.479   8.264   2.540
 4540OM     OM1 4540   8.584   0.757   3.061
 4541OM     OM1 4541   8.821   0.765   3.151
 4542OM     OM1 4542   8.658   0.572   3.222
 4543OM     OM1 4543   1.548   0.531   9.283
 4544OM     OM1 4544   1.435   0.589   9.057
 4545OM     OM1 4545   1.289   0.607   9.270
 4546OM     OM1 4546   4.154   9.531   6.132
 4547OM     OM1 4547   4.286   0.115   6.243
 4548OM     OM1 4548   4.178   9.527   6.388
 4549OM     OM1 4549   4.020   0.092   6.268
 4550OM     OM1 4550   5.739   8.586   6.132
 4551OM     OM1 4551   5.657   8.836   6.069
 4552OM     OM1 4552   5.526   8.678   6.225
 4553OM     OM1 4553   8.386   8.222   5.525
 4554OM     OM1 4554   8.561   8.486   5.775
 4555OM     OM1 4555   8.552   8.668   5.587
 4556OM     OM1 4556   8.576   8.406   5.539
 4557OM     OM1 4557   0.643   9.443   1.212
 4558OM     OM1 4558   0.535   9.220   1.180
 4559OM     OM1 4559   0.597   9.352   0.965
 4560OM     OM1 4560   6.906   8.589   1.506
 4561OM     OM1 4561   6.611   8.564   1.729
 4562OM     OM1 4562   6.609   8.816   1.655
 4563OM     OM1 4563   0.404   9.493   9.161
 4564OM     OM1 4564   0.652   9.411   9.093
 4565OM     OM1 4565   7.119   8.482   4.243
 4566OM     OM1 4566   7.112   8.721   4.338
 4567OM     OM1 4567   6.650   9.362   7.947
 4568OM     OM1 4568   7.680   9.483   9.218
 4569OM     OM1 4569   7.544   0.099   9.190
 4570OM     OM1 4570   7.632   9.596   8.982
 4571OM     OM1 4571   7.448   9.459   9.103
 4572OM     OM1 4572   7.722   0.067   2.797
 4573OM     OM1 4573   7.941   9.568   2.905
 4574OM     OM1 4574   7.714   9.596   3.041
 4575OM     OM1 4575   5.864   1.111   8.063
 4576OM     OM1 4576   5.680   1.222   8.195
 4577OM     OM1 4577   5.790   1.347   7.992
 4578OM     OM1 4578   5.624   1.154   7.950
 4579OM     OM1 4579   0.849   8.678   3.110
 4580OM     OM1 4580   0.680   8.493   3.199
 4581OM     OM1 4581   0.599   8.670   3.032
 4582OM     OM1 4582   0.654   8.735   3.281
 4583OM     OM1 4583   3.335   0.871   2.427
 4584OM     OM1 4584   3.219   1.058   2.300
 4585OM     OM1 4585   8.221   0.806   0.637
 4586OM     OM1 4586   0.086   1.236   3.145
 4587OM     OM1 4587   9.552   1.180   3.362
 4588OM     OM1 4588   9.489   1.075   3.129
 4589OM     OM1 4589   4.324   1.189   0.724
 4590OM     OM1 4590   4.213   0.956   0.735
 4591OM     OM1 4591   4.253   1.077   0.510
 4592OM     OM1 4592   4.068   1.171   0.680
 4593OM     OM1 4593   1.507   0.736   2.943
 4594OM     OM1 4594   1.374   0.591   3.412
 4595OM     OM1 4595   1.477   0.701   3.200
 4596OM     OM1 4596   3.824   9.562   2.655
 4597OM     OM1 4597   3.959   0.189   2.707
 4598OM     OM1 4598   3.759   0.191   2.553
 4599OM     OM1 4599   5.804   0.813   8.231
 4600OM     OM1 4600   5.913   0.652   8.047
 4601OM     OM1 4601   6.001   0.897   8.092
 4602OM     OM1 4602   5.780   0.852   7.962
 4603OM     OM1 4603   0.524   8.274   0.424
 4604OM     OM1 4604   0.480   8.257   0.166
 4605OM     OM1 4605   3.987   8.767   8.803
 4606OM     OM1 4606   4.062   8.841   9.041
 4607OM     OM1 4607   0.953   8.369   4.598
 4608OM     OM1 4608   1.051   8.469   4.388
 4609OM     OM1 4609   4.375   0.879   2.408
 4610OM     OM1 4610   4.639   0.876   2.470
 4611OM     OM1 4611   4.483   0.673   2.521
 4612OM     OM1 4612   4.546   0.737   2.271
 4613OM     OM1 4613   1.967   0.054   6.616
 4614OM     OM1 4614   2.179   9.483   6.616
 4615OM     OM1 4615   2.160   0.066   6.447
 4616OM     OM1 4616   2.192   0.126   6.705
 4617OM     OM1 4617   0.368   8.513   3.645
 4618OM     OM1 4618   0.266   8.759   3.620
 4619OM     OM1 4619   0.455   8.685   3.453
 4620OM     OM1 4620   7.262   0.500   1.063
 4621OM     OM1 4621   7.310   0.471   0.798
 4622OM     OM1 4622   7.461   0.621   0.942
 4623OM     OM1 4623   6.130   1.283   7.302
 4624OM     OM1 4624   6.266   1.239   7.513
 4625OM     OM1 4625   6.932   9.024   7.704
 4626OM     OM1 4626   7.109   9.378   7.773
 4627OM     OM1 4627   7.324   9.298   7.881
 4628OM     OM1 4628   2.970   0.867   6.429
 4629OM     OM1 4629   2.758   0.755   6.325
 4630OM     OM1 4630   3.518   0.748   1.073
 4631OM     OM1 4631   3.739   0.868   1.160
 4632OM     OM1 4632   3.549   0.818   1.325
 4633OM     OM1 4633   3.702   0.625   1.220
 4634OM     OM1 4634   8.321   0.557   6.014
 4635OM     OM1 4635   8.147   0.477   5.847
 4636OM     OM1 4636   2.247   8.404   7.187
 4637OM     OM1 4637   2.441   8.426   7.009
 4638OM     OM1 4638   2.461   8.538   7.247
 4639OM     OM1 4639   5.996   0.068   3.541
 4640OM     OM1 4640   6.000   0.302   3.667
 4641OM     OM1 4641   1.001   9.273   4.875
 4642OM     OM1 4642   1.019   9.009   4.851
 4643OM     OM1 4643   1.052   9.154   4.647
 4644OM     OM1 4644   0.815   9.145   4.750
 4645OM     OM1 4645   3.143   8.572   1.372
 4646OM     OM1 4646   2.972   8.613   1.565
 4647OM     OM1 4647   3.231   8.663   1.600
 4648OM     OM1 4648   3.881   1.208   4.301
 4649OM     OM1 4649   3.975   1.049   4.505
 4650OM     OM1 4650   3.886   1.289   4.540
 4651OM     OM1 4651   4.961   0.609   6.483
 4652OM     OM1 4652   5.026   0.659   6.730
 4653OM     OM1 4653   4.936   0.415   6.665
 4654OM     OM1 4654   6.454   0.500   1.994
 4655OM     OM1 4655   6.521   0.337   1.796
 4656OM     OM1 4656   6.515   0.251   2.038
 4657OM     OM1 4657   6.290   0.313   1.917
 4658OM     OM1 4658   1.299   8.742   1.301
 4659OM     OM1 4659   1.043   8.760   1.279
 4660OM     OM1 4660   2.627   0.614   2.240
 4661OM     OM1 4661   2.727   0.830   2.313
 4662OM     OM1 4662   2.476   0.777   2.392
 4663OM     OM1 4663   2.676   0.655   2.501
 4664OM     OM1 4664   9.523   0.664   2.208
 4665OM     OM1 4665   0.039   0.713   2.431
 4666OM     OM1 4666   9.409   0.814   2.402
 4667OM     OM1 4667   7.463   8.882   8.080
 4668OM     OM1 4668   7.524   8.613   8.089
 4669OM     OM1 4669   7.423   8.733   7.880
 4670OM     OM1 4670   7.270   8.700   8.086
 4671OM     OM1 4671   3.314   0.346   6.233
 4672OM     OM1 4672   3.123   0.359   6.061
 4673OM     OM1 4673   3.162   0.143   6.210
 4674OM     OM1 4674   3.630   8.401   8.360
 4675OM     OM1 4675   3.487   8.461   8.145
 4676OM     OM1 4676   3.368   8.576   8.561
 4677OM     OM1 4677   3.466   8.621   8.340
 4678OM     OM1 4678   8.763   8.792   3.549
 4679OM     OM1 4679   8.589   8.731   3.735
 4680OM     OM1 4680   8.792   8.891   3.786
 4681OM     OM1 4681   8.588   8.973   3.644
 4682OM     OM1 4682   9.602   9.269   1.267
 4683OM     OM1 4683   0.072   9.419   1.471
 4684OM     OM1 4684   1.370   9.290   0.273
 4685OM     OM1 4685   1.327   9.388   0.038
 4686OM     OM1 4686   1.127   9.279   0.165
 4687OM     OM1 4687   1.317   9.129   0.067
 4688OM     OM1 4688   4.709   0.993   5.406
 4689OM     OM1 4689   4.665   1.036   5.658
 4690OM     OM1 4690   4.736   0.801   5.576
 4691OM     OM1 4691   2.510   1.333   6.998
 4692OM     OM1 4692   2.300   1.468   6.946
 4693OM     OM1 4693   2.291   1.302   7.141
 4694OM     OM1 4694   3.941   0.879   4.712
 4695OM     OM1 4695   4.162   1.007   4.685
 4696OM     OM1 4696   9.281   0.077   7.051
 4697OM     OM1 4697   9.442   9.518   6.956
 4698OM     OM1 4698   8.783   0.732   8.930
 4699OM     OM1 4699   8.932   0.880   9.079
 4700OM     OM1 4700   3.906   1.219   4.045
 4701OM     OM1 4701   3.711   1.351   4.162
 4702OM     OM1 4702   1.814   0.168   2.978
 4703OM     OM1 4703   1.777   0.309   2.771
 4704OM     OM1 4704   1.838   0.050   2.740
 4705OM     OM1 4705   1.772   8.725   7.400
 4706OM     OM1 4706   2.019   8.639   7.372
 4707OM     OM1 4707   1.841   8.476   7.453
 4708OM     OM1 4708   6.685   8.644   2.833
 4709OM     OM1 4709   6.715   8.415   2.970
 4710OM     OM1 4710   6.680   8.643   3.085
 4711OM     OM1 4711   5.048   0.873   2.830
 4712OM     OM1 4712   5.315   0.884   2.863
 4713OM     OM1 4713   5.193   0.673   2.931
 4714OM     OM1 4714   5.157   0.880   3.073
 4715OM     OM1 4715   1.474   8.924   0.037
 4716OM     OM1 4716   1.288   8.828   0.192
 4717OM     OM1 4717   5.156   9.476   8.989
 4718OM     OM1 4718   5.298   9.320   8.835
 4719OM     OM1 4719   5.071   9.237   8.919
 4720OM     OM1 4720   5.272   9.264   9.089
 4721OM     OM1 4721   7.975   0.211   4.720
 4722OM     OM1 4722   8.024   0.432   4.834
 4723OM     OM1 4723   8.055   0.220   4.977
 4724OM     OM1 4724   8.224   0.259   4.787
 4725OM     OM1 4725   1.247   9.390   8.446
 4726OM     OM1 4726   1.027   9.523   8.406
 4727OM     OM1 4727   1.010   9.264   8.434
 4728OM     OM1 4728   1.118   9.368   8.221
 4729OM     OM1 4729   0.894   9.378   1.177
 4730OM     OM1 4730   0.832   9.453   1.417
 4731OM     OM1 4731   0.820   0.020   1.229
 4732OM     OM1 4732   6.137   1.005   4.230
 4733OM     OM1 4733   6.134   1.255   4.208
 4734OM     OM1 4734   5.907   1.128   4.283
 4735OM     OM1 4735   5.977   1.103   4.046
 4736OM     OM1 4736   5.929   1.204   5.023
 4737OM     OM1 4737   5.910   1.369   4.823
 4738OM     OM1 4738   5.527   1.064   5.776
 4739OM     OM1 4739   5.464   0.812   5.890
 4740OM     OM1 4740   5.377   0.898   5.664
 4741OM     OM1 4741   5.288   0.998   5.889
 4742OM     OM1 4742   6.426   9.588   3.961
 4743OM     OM1 4743   6.543   9.457   4.154
 4744OM     OM1 4744   6.527   9.365   3.898
 4745OM     OM1 4745   8.733   0.081   0.340
 4746OM     OM1 4746   8.688   9.431   0.256
 4747OM     OM1 4747   3.049   9.095   0.552
 4748OM     OM1 4748   2.960   9.149   0.795
 4749OM     OM1 4749   3.198   9.055   0.749
 4750OM     OM1 4750   0.062   9.089   6.626
 4751OM     OM1 4751   9.427   8.996   6.716
 4752OM     OM1 4752   8.133   0.133   5.214
 4753OM     OM1 4753   8.140   0.386   5.157
 4754OM     OM1 4754   7.910   0.260   5.192
 4755OM     OM1 4755   7.772   0.116   5.363
 4756OM     OM1 4756   6.716   8.942   6.384
 4757OM     OM1 4757   6.860   8.876   6.183
 4758OM     OM1 4758   6.642   8.728   6.244
 4759OM     OM1 4759   6.233   0.880   6.300
 4760OM     OM1 4760   6.038   0.958   6.116
 4761OM     OM1 4761   6.011   0.757   6.260
 4762OM     OM1 4762   5.350   0.525   2.781
 4763OM     OM1 4763   5.121   0.622   2.698
 4764OM     OM1 4764   5.130   0.424   2.879
 4765OM     OM1 4765   7.501   0.008   1.066
 4766OM     OM1 4766   4.272   8.807   9.182
 4767OM     OM1 4767   4.092   8.611   9.169
 4768OM     OM1 4768   4.050   8.818   9.306
 4769OM     OM1 4769   0.526   9.423   5.199
 4770OM     OM1 4770   0.501   9.600   5.385
 4771OM     OM1 4771   6.685   8.271   9.579
 4772OM     OM1 4772   6.879   8.374   9.441
 4773OM     OM1 4773   5.698   1.159   1.524
 4774OM     OM1 4774   5.861   0.957   1.491
 4775OM     OM1 4775   5.812   1.123   1.298
 4776OM     OM1 4776   5.953   1.211   1.514
 4777OM     OM1 4777   6.791   1.199   0.168
 4778OM     OM1 4778   6.790   1.007   0.002
 4779OM     OM1 4779   6.668   1.211   9.536
 4780OM     OM1 4780   6.571   1.044   0.123
 4781OM     OM1 4781   4.290   9.203   2.245
 4782OM     OM1 4782   4.353   8.953   2.189
 4783OM     OM1 4783   4.474   9.271   2.075
 4784OM     OM1 4784   6.606   1.075   5.284
 4785OM     OM1 4785   6.655   0.995   5.046
 4786OM     OM1 4786   1.148   9.601   6.129
 4787OM     OM1 4787   1.413   9.535   6.166
 4788OM     OM1 4788   1.328   0.145   6.022
 4789OM     OM1 4789   8.043   8.327   7.823
 4790OM     OM1 4790   3.109   1.217   8.293
 4791OM     OM1 4791   3.262   1.225   8.520
 4792OM     OM1 4792   3.343   1.339   8.298
 4793OM     OM1 4793   5.376   0.732   9.107
 4794OM     OM1 4794   5.150   0.621   9.098
 4795OM     OM1 4795   1.334   1.387   1.495
 4796OM     OM1 4796   8.743   9.520   9.137
 4797OM     OM1 4797   8.704   9.269   9.147
 4798OM     OM1 4798   8.554   9.424   8.999
 4799OM     OM1 4799   8.816   9.343   8.940
 4800OM     OM1 4800   9.044   1.190   1.442
 4801OM     OM1 4801   8.781   9.400   0.017
 4802OM     OM1 4802   8.535   9.367   0.045
 4803OM     OM1 4803   8.670   9.469   9.385
 4804OM     OM1 4804   1.720   0.637   4.075
 4805OM     OM1 4805   1.608   0.582   3.848
 4806OM     OM1 4806   1.683   0.162   3.962
 4807OM     OM1 4807   3.132   8.562   2.498
 4808OM     OM1 4808   3.162   8.518   2.240
 4809OM     OM1 4809   2.951   8.434   2.360
 4810OM     OM1 4810   5.872   8.326   4.418
 4811OM     OM1 4811   6.068   8.392   4.563
 4812OM     OM1 4812   5.978   8.415   4.206
 4813OM     OM1 4813   8.969   8.443   2.882
 4814OM     OM1 4814   9.043   8.299   2.680
 4815OM     OM1 4815   4.606   8.295   5.682
 4816OM     OM1 4816   4.848   8.291   5.580
 4817OM     OM1 4817   5.736   8.297   5.456
 4818OM     OM1 4818   6.220   0.036   4.272
 4819OM     OM1 4819   6.096   0.065   4.045
 4820OM     OM1 4820   6.044   0.219   4.234
 4821OM     OM1 4821   0.534   0.512   3.938
 4822OM     OM1 4822   0.290   0.443   3.879
 4823OM     OM1 4823   0.498   0.291   3.814
 4824OM     OM1 4824   0.452   0.512   3.687
 4825OM     OM1 4825   4.256   1.178   0.186
 4826OM     OM1 4826   4.075   1.227   0.022
 4827OM     OM1 4827   4.025   1.057   0.221
 4828OM     OM1 4828   6.117   9.059   8.175
 4829OM     OM1 4829   6.161   8.822   8.261
 4830OM     OM1 4830   6.027   8.859   8.035
 4831OM     OM1 4831   5.806   8.954   3.242
 4832OM     OM1 4832   6.060   8.987   3.275
 4833OM     OM1 4833   5.962   8.745   3.238
 4834OM     OM1 4834   5.954   8.887   3.031
 4835OM     OM1 4835   3.543   0.084   6.942
 4836OM     OM1 4836   3.315   0.195   6.894
 4837OM     OM1 4837   3.363   0.050   7.123
 4838OM     OM1 4838   7.975   8.904   3.267
 4839OM     OM1 4839   7.735   8.865   3.378
 4840OM     OM1 4840   7.841   8.681   3.221
 4841OM     OM1 4841   5.787   0.686   8.463
 4842OM     OM1 4842   5.597   0.509   8.457
 4843OM     OM1 4843   5.838   0.418   8.461
 4844OM     OM1 4844   5.748   0.525   8.675
 4845OM     OM1 4845   8.337   0.239   1.946
 4846OM     OM1 4846   8.556   0.110   1.857
 4847OM     OM1 4847   8.397   0.000   2.036
 4848OM     OM1 4848   5.606   8.444   2.230
 4849OM     OM1 4849   5.822   8.352   2.315
 4850OM     OM1 4850   8.621   9.586   2.822
 4851OM     OM1 4851   8.553   9.506   2.583
 4852OM     OM1 4852   8.509   9.358   2.787
 4853OM     OM1 4853   3.907   8.585   2.278
 4854OM     OM1 4854   4.058   8.439   2.433
 4855OM     OM1 4855   3.935   8.646   2.524
 4856OM     OM1 4856   2.874   0.788   5.659
 4857OM     OM1 4857   2.820   0.539   5.713
 4858OM     OM1 4858   1.495   0.219   3.341
 4859OM     OM1 4859   1.423   0.414   3.190
 4860OM     OM1 4860   1.702   0.544   3.610
 4861OM     OM1 4861   7.216   8.298   2.306
 4862OM     OM1 4862   7.458   8.318   2.226
 4863OM     OM1 4863   2.366   8.842   2.746
 4864OM     OM1 4864   2.478   8.946   2.953
 4865OM     OM1 4865   2.571   8.723   2.850
 4866OM     OM1 4866   2.340   8.727   2.981
 4867OM     OM1 4867   6.684   0.001   5.538
 4868OM     OM1 4868   6.550   9.543   5.758
 4869OM     OM1 4869   6.599   0.185   5.704
 4870OM     OM1 4870   6.917   1.361   0.827
 4871OM     OM1 4871   6.892   1.297   1.084
 4872OM     OM1 4872   6.362   9.404   0.521
 4873OM     OM1 4873   0.079   8.902   1.613
 4874OM     OM1 4874   0.113   9.037   1.839
 4875OM     OM1 4875   0.042   8.783   1.830
 4876OM     OM1 4876   5.164   9.354   4.615
 4877OM     OM1 4877   5.428   9.340   4.651
 4878OM     OM1 4878   5.303   9.169   4.503
 4879OM     OM1 4879   6.591   1.186   8.104
 4880OM     OM1 4880   5.176   8.566   2.526
 4881OM     OM1 4881   4.971   8.708   2.449
 4882OM     OM1 4882   5.181   8.839   2.493
 4883OM     OM1 4883   7.905   0.583   4.659
 4884OM     OM1 4884   8.075   0.679   4.836
 4885OM     OM1 4885   7.830   0.588   4.906
 4886OM     OM1 4886   8.347   1.296   4.798
 4887OM     OM1 4887   3.007   0.917   5.955
 4888OM     OM1 4888   3.236   1.027   5.875
 4889OM     OM1 4889   3.108   0.872   5.721
 4890OM     OM1 4890   3.225   0.775   5.940
 4891OM     OM1 4891   1.050   9.111   0.495
 4892OM     OM1 4892   1.068   8.947   0.288
 4893OM     OM1 4893   0.922   9.161   0.270
 4894OM     OM1 4894   0.964   8.305   1.869
 4895OM     OM1 4895   3.669   8.443   7.861
 4896OM     OM1 4896   3.691   8.287   7.665
 4897OM     OM1 4897   2.884   8.904   3.298
 4898OM     OM1 4898   2.924   9.083   3.479
 4899OM     OM1 4899   2.677   8.698   6.178
 4900OM     OM1 4900   2.559   8.475   6.238
 4901OM     OM1 4901   2.525   8.489   6.495
 4902OM     OM1 4902   2.803   9.197   9.033
 4903OM     OM1 4903   2.804   9.002   8.843
 4904OM     OM1 4904   2.985   9.007   9.021
 4905OM     OM1 4905   2.734   8.953   9.090
 4906OM     OM1 4906   0.205   9.395   0.508
 4907OM     OM1 4907   0.031   9.281   0.675
 4908OM     OM1 4908   0.148   9.507   0.729
 4909OM     OM1 4909   0.286   9.283   0.725
 4910OM     OM1 4910   6.023   9.389   3.581
 4911OM     OM1 4911   6.061   9.206   3.763
 4912OM     OM1 4912   5.834   9.227   3.624
 4913OM     OM1 4913   6.052   9.134   3.505
 4914OM     OM1 4914   7.609   9.564   3.283
 4915OM     OM1 4915   7.679   9.580   3.545
 4916OM     OM1 4916   7.751   0.150   3.363
 4917OM     OM1 4917   7.848   9.513   3.361
 4918OM     OM1 4918   5.680   9.520   2.151
 4919OM     OM1 4919   5.824   9.416   1.962
 4920OM     OM1 4920   5.729   0.062   1.950
 4921OM     OM1 4921   5.930   9.599   2.107
 4922OM     OM1 4922   8.828   1.311   2.405
 4923OM     OM1 4923   1.376   9.187   2.900
 4924OM     OM1 4924   1.313   9.012   2.706
 4925OM     OM1 4925   1.181   9.023   2.933
 4926OM     OM1 4926   1.627   0.693   5.647
 4927OM     OM1 4927   1.454   0.865   5.749
 4928OM     OM1 4928   1.671   0.954   5.631
 4929OM     OM1 4929   0.581   8.370   3.592
 4930OM     OM1 4930   0.345   8.285   3.543
 4931OM     OM1 4931   7.625   9.205   6.157
 4932OM     OM1 4932   5.058   1.187   1.096
 4933OM     OM1 4933   1.136   0.903   8.642
 4934OM     OM1 4934   1.155   0.794   8.399
 4935OM     OM1 4935   1.318   0.721   8.605
 4936OM     OM1 4936   1.070   0.655   8.589
 4937OM     OM1 4937   0.713   8.373   4.928
 4938OM     OM1 4938   1.148   8.436   5.105
 4939OM     OM1 4939   0.888   8.400   5.127
 4940OM     OM1 4940   5.323   8.970   0.491
 4941OM     OM1 4941   5.459   9.253   0.578
 4942OM     OM1 4942   5.207   9.193   0.532
 4943OM     OM1 4943   5.309   9.147   0.763
 4944OM     OM1 4944   1.079   9.152   6.598
 4945OM     OM1 4945   1.017   9.211   6.353
 4946OM     OM1 4946   0.825   9.176   6.520
 4947OM     OM1 4947   6.510   9.132   3.790
 4948OM     OM1 4948   6.296   9.301   3.797
 4949OM     OM1 4949   6.498   9.336   3.633
 4950OM     OM1 4950   3.694   0.968   2.184
 4951OM     OM1 4951   3.821   0.797   2.343
 4952OM     OM1 4952   3.778   1.039   2.419
 4953OM     OM1 4953   3.948   0.990   2.228
 4954OM     OM1 4954   5.670   1.060   6.581
 4955OM     OM1 4955   5.580   1.299   6.520
 4956OM     OM1 4956   5.759   1.195   6.365
 4957OM     OM1 4957   4.459   0.728   4.173
 4958OM     OM1 4958   4.518   0.518   4.036
 4959OM     OM1 4959   4.494   0.506   4.297
 4960OM     OM1 4960   4.701   0.635   4.200
 4961OM     OM1 4961   5.374   1.318   2.392
 4962OM     OM1 4962   2.146   0.959   2.217
 4963OM     OM1 4963   2.201   1.201   2.296
 4964OM     OM1 4964   6.579   0.786   0.050
 4965OM     OM1 4965   6.450   0.864   0.270
 4966OM     OM1 4966   6.363   0.925   0.024
 4967OM     OM1 4967   4.960   0.966   1.615
 4968OM     OM1 4968   5.169   1.006   1.750
 4969OM     OM1 4969   8.510   8.532   1.783
 4970OM     OM1 4970   8.601   8.532   2.031
 4971OM     OM1 4971   8.522   8.309   1.917
 4972OM     OM1 4972   8.719   9.416   8.164
 4973OM     OM1 4973   8.922   9.391   8.319
 4974OM     OM1 4974   8.682   9.350   8.419
 4975OM     OM1 4975   8.789   9.180   8.249
 4976OM     OM1 4976   7.777   9.230   8.777
 4977OM     OM1 4977   7.929   9.043   8.923
 4978OM     OM1 4978   8.006   9.162   8.709
 4979OM     OM1 4979   8.044   9.172   0.531
 4980OM     OM1 4980   8.154   9.285   0.322
 4981OM     OM1 4981   5.711   8.265   1.643
 4982OM     OM1 4982   5.577   8.392   1.458
 4983OM     OM1 4983   6.095   0.492   7.924
 4984OM     OM1 4984   5.962   0.409   8.124
 4985OM     OM1 4985   6.134   0.605   8.160
 4986OM     OM1 4986   1.721   9.512   3.596
 4987OM     OM1 4987   1.579   9.323   3.509
 4988OM     OM1 4988   1.533   9.567   3.416
 4989OM     OM1 4989   3.544   9.405   7.681
 4990OM     OM1 4990   2.827   8.526   8.061
 4991OM     OM1 4991   2.960   8.308   7.988
 4992OM     OM1 4992   8.059   0.729   8.892
 4993OM     OM1 4993   8.298   0.699   8.989
 4994OM     OM1 4994   8.204   1.255   3.451
 4995OM     OM1 4995   8.429   1.249   3.584
 4996OM     OM1 4996   2.989   1.239   2.023
 4997OM     OM1 4997   2.764   1.276   2.126
 4998OM     OM1 4998   7.248   8.539   5.246
 4999OM     OM1 4999   7.520   8.559   5.228
 5000OM     OM1 5000   7.393   8.379   5.380
 5001OM     OM1 5001   7.403   8.387   5.103
 5002OM     OM1 5002   2.034   9.222   3.817
 5003OM     OM1 5003   1.865   9.068   3.702
 5004OM     OM1 5004   1.798   9.326   3.759
 5005OM     OM1 5005   3.768   9.564   9.399
 5006OM     OM1 5006   3.550   9.601   9.538
 5007OM     OM1 5007   3.561   0.074   9.286
 5008OM     OM1 5008   7.894   0.161   6.093
 5009OM     OM1 5009   7.861   0.123   6.349
 5010OM     OM1 5010   7.528   0.372   9.497
 5011OM     OM1 5011   7.627   0.586   9.389
 5012OM     OM1 5012   7.927   0.511   0.025
 5013OM     OM1 5013   7.694   0.405   0.080
 5014OM     OM1 5014   5.304   9.162   1.535
 5015OM     OM1 5015   5.357   9.020   1.323
 5016OM     OM1 5016   5.231   8.899   1.524
 5017OM     OM1 5017   5.116   9.081   1.389
 5018OM     OM1 5018   3.530   8.547   4.509
 5019OM     OM1 5019   3.564   8.272   4.539
 5020OM     OM1 5020   3.336   8.377   4.492
 5021OM     OM1 5021   8.376   9.322   1.101
 5022OM     OM1 5022   6.313   9.006   5.094
 5023OM     OM1 5023   6.097   9.031   4.967
 5024OM     OM1 5024   6.127   8.850   5.163
 5025OM     OM1 5025   6.083   9.099   5.215
 5026OM     OM1 5026   2.145   0.852   0.132
 5027OM     OM1 5027   2.060   0.826   0.379
 5028OM     OM1 5028   0.011   9.544   2.276
 5029OM     OM1 5029   9.440   9.354   2.234
 5030OM     OM1 5030   0.057   1.314   6.875
 5031OM     OM1 5031   9.547   1.106   6.996
 5032OM     OM1 5032   0.055   9.296   7.509
 5033OM     OM1 5033   0.021   9.057   7.615
 5034OM     OM1 5034   9.584   9.261   7.759
 5035OM     OM1 5035   9.418   9.205   7.551
 5036OM     OM1 5036   4.871   8.844   4.013
 5037OM     OM1 5037   5.097   8.786   3.892
 5038OM     OM1 5038   1.050   8.366   3.520
 5039OM     OM1 5039   6.890   8.349   0.311
 5040OM     OM1 5040   7.114   8.356   0.422
 5041OM     OM1 5041   7.096   8.362   0.147
 5042OM     OM1 5042   7.053   8.568   0.291
 5043OM     OM1 5043   2.059   1.375   9.193
 5044OM     OM1 5044   2.134   1.209   9.374
 5045OM     OM1 5045   7.310   9.310   8.915
 5046OM     OM1 5046   7.278   9.560   8.944
 5047OM     OM1 5047   7.193   9.399   9.131
 5048OM     OM1 5048   1.412   0.232   7.148
 5049OM     OM1 5049   1.629   9.480   6.903
 5050OM     OM1 5050   1.478   0.072   6.956
 5051OM     OM1 5051   1.452   0.325   6.906
 5052OM     OM1 5052   4.900   9.338   4.633
 5053OM     OM1 5053   5.003   9.479   4.448
 5054OM     OM1 5054   9.445   8.290   1.159
 5055OM     OM1 5055   0.043   8.457   1.174
 5056OM     OM1 5056   4.823   1.049   4.649
 5057OM     OM1 5057   4.947   0.854   4.523
 5058OM     OM1 5058   4.988   1.100   4.446
 5059OM     OM1 5059   4.704   0.657   5.198
 5060OM     OM1 5060   4.666   0.553   5.626
 5061OM     OM1 5061   4.566   0.677   5.420
 5062OM     OM1 5062   7.305   0.133   0.276
 5063OM     OM1 5063   7.191   9.499   0.302
 5064OM     OM1 5064   7.084   0.116   0.409
 5065OM     OM1 5065   7.812   0.647   7.601
 5066OM     OM1 5066   7.782   0.622   7.862
 5067OM     OM1 5067   8.002   0.559   7.751
 5068OM     OM1 5068   3.267   8.527   0.802
 5069OM     OM1 5069   3.076   8.375   0.701
 5070OM     OM1 5070   3.048   8.634   0.689
 5071OM     OM1 5071   1.119   0.586   9.488
 5072OM     OM1 5072   1.368   0.609   9.502
 5073OM     OM1 5073   1.219   0.817   9.433
 5074OM     OM1 5074   9.065   8.952   7.775
 5075OM     OM1 5075   9.252   9.117   7.829
 5076OM     OM1 5076   9.178   9.108   7.579
 5077OM     OM1 5077   9.297   8.903   7.683
 5078OM     OM1 5078   3.767   0.682   8.892
 5079OM     OM1 5079   3.645   0.874   8.773
 5080OM     OM1 5080   3.510   0.662   8.828
 5081OM     OM1 5081   4.811   8.664   8.484
 5082OM     OM1 5082   4.578   8.548   8.513
 5083OM     OM1 5083   8.773   0.017   5.974
 5084OM     OM1 5084   9.004   0.128   5.935
 5085OM     OM1 5085   0.409   0.863   6.234
 5086OM     OM1 5086   0.341   0.763   6.001
 5087OM     OM1 5087   0.559   0.896   6.015
 5088OM     OM1 5088   0.580   0.888   1.694
 5089OM     OM1 5089   0.342   0.911   1.806
 5090OM     OM1 5090   0.381   0.995   1.564
 5091OM     OM1 5091   0.486   1.132   1.749
 5092OM     OM1 5092   2.491   8.373   0.056
 5093OM     OM1 5093   2.456   8.357   0.319
 5094OM     OM1 5094   2.418   8.580   0.215
 5095OM     OM1 5095   2.256   8.383   0.150
 5096OM     OM1 5096   2.546   0.008   1.043
 5097OM     OM1 5097   2.528   0.145   1.262
 5098OM     OM1 5098   2.743   0.006   1.214
 5099OM     OM1 5099   2.694   0.225   1.080
 5100OM     OM1 5100   5.171   0.133   5.163
 5101OM     OM1 5101   5.421   0.067   5.216
 5102OM     OM1 5102   5.294   0.217   5.383
 5103OM     OM1 5103   5.340   0.323   5.150
 5104OM     OM1 5104   6.940   8.303   3.012
 5105OM     OM1 5105   6.794   8.389   3.218
 5106OM     OM1 5106   2.819   1.028   2.182
 5107OM     OM1 5107   2.576   1.103   2.146
 5108OM     OM1 5108   8.576   0.319   5.257
 5109OM     OM1 5109   8.670   0.323   5.012
 5110OM     OM1 5110   8.483   0.482   5.073
 5111OM     OM1 5111   8.438   0.222   5.066
 5112OM     OM1 5112   6.855   9.221   9.027
 5113OM     OM1 5113   6.857   9.180   9.283
 5114OM     OM1 5114   7.039   9.065   9.138
 5115OM     OM1 5115   7.007   9.389   9.322
 5116OM     OM1 5116   5.663   1.015   4.229
 5117OM     OM1 5117   5.879   0.877   4.296
 5118OM     OM1 5118   8.156   8.576   4.317
 5119OM     OM1 5119   8.189   8.765   4.497
 5120OM     OM1 5120   8.390   8.688   4.354
 5121OM     OM1 5121   8.302   8.536   4.541
 5122OM     OM1 5122   3.965   0.364   5.184
 5123OM     OM1 5123   3.924   0.281   4.943
 5124OM     OM1 5124   4.080   0.487   4.970
 5125OM     OM1 5125   3.769   0.385   4.767
 5126OM     OM1 5126   3.837   0.133   4.742
 5127OM     OM1 5127   6.878   8.684   7.102
 5128OM     OM1 5128   7.106   8.616   6.987
 5129OM     OM1 5129   7.106   8.700   7.235
 5130OM     OM1 5130   5.369   8.294   0.125
 5131OM     OM1 5131   5.295   8.377   9.502
 5132OM     OM1 5132   5.106   8.282   0.039
 5133OM     OM1 5133   3.538   8.290   3.561
 5134OM     OM1 5134   3.449   8.332   3.801
 5135OM     OM1 5135   6.324   8.365   9.023
 5136OM     OM1 5136   6.377   8.460   9.258
 5137OM     OM1 5137   6.003   0.905   4.750
 5138OM     OM1 5138   5.765   0.995   4.734
 5139OM     OM1 5139   5.845   0.834   4.944
 5140OM     OM1 5140   5.805   0.737   4.712
 5141OM     OM1 5141   1.999   8.220   6.790
 5142OM     OM1 5142   2.164   8.265   6.987
 5143OM     OM1 5143   2.155   8.424   6.775
 5144OM     OM1 5144   5.571   0.805   3.081
 5145OM     OM1 5145   5.620   0.978   3.277
 5146OM     OM1 5146   5.516   1.069   3.061
 5147OM     OM1 5147   5.377   0.903   3.213
 5148OM     OM1 5148   9.261   0.305   6.374
 5149OM     OM1 5149   9.463   0.139   6.401
 5150OM     OM1 5150   9.217   0.053   6.431
 5151OM     OM1 5151   5.887   8.571   4.499
 5152OM     OM1 5152   5.995   8.684   4.696
 5153OM     OM1 5153   6.017   8.793   4.462
 5154OM     OM1 5154   2.371   8.893   6.737
 5155OM     OM1 5155   2.523   8.714   6.635
 5156OM     OM1 5156   2.593   8.963   6.598
 5157OM     OM1 5157   6.042   0.516   2.036
 5158OM     OM1 5158   6.262   0.659   2.066
 5159OM     OM1 5159   6.194   0.489   2.245
 5160OM     OM1 5160   6.052   0.702   2.223
 5161OM     OM1 5161   8.541   9.560   6.941
 5162OM     OM1 5162   8.628   0.044   7.186
 5163OM     OM1 5163   8.575   1.277   2.503
 5164OM     OM1 5164   8.359   1.127   2.561
 5165OM     OM1 5165   9.131   9.601   2.759
 5166OM     OM1 5166   9.264   9.428   2.626
 5167OM     OM1 5167   7.065   9.489   4.698
 5168OM     OM1 5168   6.984   9.402   4.939
 5169OM     OM1 5169   7.429   8.749   5.497
 5170OM     OM1 5170   7.230   8.695   5.669
 5171OM     OM1 5171   2.536   8.466   2.032
 5172OM     OM1 5172   2.221   1.359   3.141
 5173OM     OM1 5173   7.660   1.460   0.417
 5174OM     OM1 5174   7.457   1.307   0.479
 5175OM     OM1 5175   0.007   1.184   4.530
 5176OM     OM1 5176   0.159   0.961   4.502
 5177OM     OM1 5177   9.582   0.975   4.674
 5178OM     OM1 5178   0.192   1.141   4.694
 5179OM     OM1 5179   3.157   0.195   1.078
 5180OM     OM1 5180   3.349   0.112   0.911
 5181OM     OM1 5181   3.302   0.355   0.908
 5182OM     OM1 5182   1.426   8.410   2.533
 5183OM     OM1 5183   1.480   8.315   2.766
 5184OM     OM1 5184   1.273   8.483   2.734
 5185OM     OM1 5185   5.786   0.136   1.548
 5186OM     OM1 5186   5.549   0.244   1.513
 5187OM     OM1 5187   5.635   0.207   1.756
 5188OM     OM1 5188   5.376   8.308   3.994
 5189OM     OM1 5189   5.164   8.339   3.863
 5190OM     OM1 5190   7.923   0.205   5.835
 5191OM     OM1 5191   7.954   1.050   6.265
 5192OM     OM1 5192   8.048   1.012   6.016
 5193OM     OM1 5193   7.931   0.826   6.142
 5194OM     OM1 5194   1.603   8.731   0.602
 5195OM     OM1 5195   1.771   8.553   0.514
 5196OM     OM1 5196   1.850   8.752   0.662
 5197OM     OM1 5197   0.594   0.622   4.171
 5198OM     OM1 5198   0.788   0.529   4.021
 5199OM     OM1 5199   0.619   0.372   4.137
 5200OM     OM1 5200   0.992   0.543   2.983
 5201OM     OM1 5201   0.995   0.708   3.183
 5202OM     OM1 5202   1.220   0.594   3.101
 5203OM     OM1 5203   3.083   9.521   6.579
 5204OM     OM1 5204   2.962   9.356   6.432
 5205OM     OM1 5205   2.962   9.310   6.691
 5206OM     OM1 5206   4.791   0.564   9.286
 5207OM     OM1 5207   4.759   0.714   9.078
 5208OM     OM1 5208   4.604   0.626   9.449
 5209OM     OM1 5209   4.833   0.743   9.483
 5210OM     OM1 5210   2.023   9.103   2.119
 5211OM     OM1 5211   1.958   9.336   2.233
 5212OM     OM1 5212   1.876   9.098   2.326
 5213OM     OM1 5213   1.792   9.195   2.092
 5214OM     OM1 5214   6.423   8.634   0.479
 5215OM     OM1 5215   6.479   8.775   0.263
 5216OM     OM1 5216   6.483   8.510   0.259
 5217OM     OM1 5217   1.907   8.490   2.997
 5218OM     OM1 5218   1.978   8.391   3.228
 5219OM     OM1 5219   1.807   8.577   3.215
 5220OM     OM1 5220   1.733   8.342   3.141
 5221OM     OM1 5221   3.263   8.397   3.959
 5222OM     OM1 5222   7.575   8.647   6.176
 5223OM     OM1 5223   4.010   0.237   0.085
 5224OM     OM1 5224   4.131   0.424   9.576
 5225OM     OM1 5225   4.201   0.215   9.431
 5226OM     OM1 5226   4.379   0.319   9.578
 5227OM     OM1 5227   1.558   8.568   5.783
 5228OM     OM1 5228   1.354   8.709   5.882
 5229OM     OM1 5229   1.316   8.481   5.761
 5230OM     OM1 5230   1.445   8.481   5.992
 5231OM     OM1 5231   1.281   0.768   1.817
 5232OM     OM1 5232   1.279   0.499   1.527
 5233OM     OM1 5233   1.367   0.742   1.576
 5234OM     OM1 5234   8.629   8.245   8.707
 5235OM     OM1 5235   8.726   8.368   8.501
 5236OM     OM1 5236   1.748   1.028   1.763
 5237OM     OM1 5237   1.545   1.139   1.870
 5238OM     OM1 5238   2.928   0.374   7.538
 5239OM     OM1 5239   2.830   0.517   7.333
 5240OM     OM1 5240   2.843   0.150   7.435
 5241OM     OM1 5241   3.094   0.186   7.488
 5242OM     OM1 5242   7.763   9.578   2.139
 5243OM     OM1 5243   7.595   9.470   1.964
 5244OM     OM1 5244   7.543   0.095   2.075
 5245OM     OM1 5245   7.524   9.472   2.211
 5246OM     OM1 5246   5.462   8.615   1.548
 5247OM     OM1 5247   5.419   8.730   1.783
 5248OM     OM1 5248   5.586   8.841   1.620
 5249OM     OM1 5249   7.197   1.173   9.521
 5250OM     OM1 5250   7.312   1.110   0.142
 5251OM     OM1 5251   7.055   1.174   0.133
 5252OM     OM1 5252   9.173   0.476   7.148
 5253OM     OM1 5253   9.186   0.286   7.316
 5254OM     OM1 5254   9.383   0.378   7.466
 5255OM     OM1 5255   9.155   0.507   7.448
 5256OM     OM1 5256   3.162   1.298   4.315
 5257OM     OM1 5257   3.134   1.373   4.569
 5258OM     OM1 5258   0.089   8.425   5.690
 5259OM     OM1 5259   0.104   8.677   5.646
 5260OM     OM1 5260   8.888   1.087   0.591
 5261OM     OM1 5261   8.890   1.261   0.793
 5262OM     OM1 5262   7.023   8.730   1.314
 5263OM     OM1 5263   7.215   8.634   1.162
 5264OM     OM1 5264   7.054   8.817   1.069
 5265OM     OM1 5265   7.420   8.706   1.616
 5266OM     OM1 5266   7.151   8.708   1.555
 5267OM     OM1 5267   0.168   1.110   6.515
 5268OM     OM1 5268   0.096   1.342   6.615
 5269OM     OM1 5269   9.527   1.209   6.484
 5270OM     OM1 5270   0.134   1.306   6.351
 5271OM     OM1 5271   3.066   8.897   4.119
 5272OM     OM1 5272   3.207   8.969   4.336
 5273OM     OM1 5273   3.272   8.768   4.184
 5274OM     OM1 5274   1.691   9.188   0.646
 5275OM     OM1 5275   1.497   9.327   0.506
 5276OM     OM1 5276   1.460   9.088   0.582
 5277OM     OM1 5277   6.058   0.631   9.071
 5278OM     OM1 5278   6.166   0.417   9.155
 5279OM     OM1 5279   6.310   0.610   9.039
 5280OM     OM1 5280   6.215   0.645   9.285
 5281OM     OM1 5281   1.100   0.448   6.352
 5282OM     OM1 5282   0.973   0.523   6.567
 5283OM     OM1 5283   0.958   0.264   6.467
 5284OM     OM1 5284   0.841   0.463   6.360
 5285OM     OM1 5285   5.323   9.215   3.871
 5286OM     OM1 5286   5.344   9.355   4.091
 5287OM     OM1 5287   2.738   8.437   2.199
 5288OM     OM1 5288   2.774   8.385   1.955
 5289OM     OM1 5289   7.056   0.257   6.943
 5290OM     OM1 5290   7.101   0.476   7.087
 5291OM     OM1 5291   7.190   0.458   6.840
 5292OM     OM1 5292   5.757   0.203   6.493
 5293OM     OM1 5293   5.752   0.252   6.759
 5294OM     OM1 5294   5.968   0.298   6.611
 5295OM     OM1 5295   5.918   0.873   7.169
 5296OM     OM1 5296   5.850   1.090   7.290
 5297OM     OM1 5297   6.082   1.085   7.153
 5298OM     OM1 5298   3.813   8.458   6.259
 5299OM     OM1 5299   3.728   8.221   6.309
 5300OM     OM1 5300   0.233   9.128   4.655
 5301OM     OM1 5301   0.386   9.307   4.541
 5302OM     OM1 5302   0.148   9.295   4.456
 5303OM     OM1 5303   0.424   8.870   5.248
 5304OM     OM1 5304   0.618   8.912   5.418
 5305OM     OM1 5305   4.327   0.997   3.063
 5306OM     OM1 5306   4.572   0.894   3.012
 5307OM     OM1 5307   4.487   1.107   2.887
 5308OM     OM1 5308   6.359   9.189   7.730
 5309OM     OM1 5309   6.259   9.154   7.978
 5310OM     OM1 5310   6.125   9.090   7.757
 5311OM     OM1 5311   6.177   9.346   7.828
 5312OM     OM1 5312   8.120   8.739   0.170
 5313OM     OM1 5313   3.985   0.829   3.543
 5314OM     OM1 5314   4.180   0.741   3.702
 5315OM     OM1 5315   3.949   0.796   3.801
 5316OM     OM1 5316   3.967   0.587   3.662
 5317OM     OM1 5317   3.144   0.745   4.748
 5318OM     OM1 5318   3.011   0.951   4.663
 5319OM     OM1 5319   3.044   0.733   4.512
 5320OM     OM1 5320   3.241   0.892   4.551
 5321OM     OM1 5321   2.865   8.497   0.247
 5322OM     OM1 5322   2.676   8.456   0.416
 5323OM     OM1 5323   2.888   8.603   0.490
 5324OM     OM1 5324   7.320   1.341   1.027
 5325OM     OM1 5325   7.485   1.193   1.153
 5326OM     OM1 5326   4.292   8.855   5.212
 5327OM     OM1 5327   4.243   8.999   4.986
 5328OM     OM1 5328   4.388   9.092   5.178
 5329OM     OM1 5329   6.400   0.708   1.854
 5330OM     OM1 5330   3.993   0.534   6.741
 5331OM     OM1 5331   3.887   0.759   6.819
 5332OM     OM1 5332   4.029   0.606   6.989
 5333OM     OM1 5333   1.809   1.272   4.801
 5334OM     OM1 5334   1.682   1.066   4.856
 5335OM     OM1 5335   5.434   8.911   6.837
 5336OM     OM1 5336   5.427   9.263   6.782
 5337OM     OM1 5337   5.239   9.085   6.811
 5338OM     OM1 5338   5.331   8.973   6.607
 5339OM     OM1 5339   6.524   9.040   7.576
 5340OM     OM1 5340   6.545   9.300   7.572
 5341OM     OM1 5341   6.607   9.163   7.785
 5342OM     OM1 5342   9.572   9.376   5.931
 5343OM     OM1 5343   9.392   9.486   5.774
 5344OM     OM1 5344   3.786   8.256   4.421
 5345OM     OM1 5345   7.165   0.001   5.601
 5346OM     OM1 5346   7.010   0.212   5.667
 5347OM     OM1 5347   6.934   0.040   5.484
 5348OM     OM1 5348   2.594   8.425   8.355
 5349OM     OM1 5349   2.447   8.599   8.237
 5350OM     OM1 5350   2.509   8.623   8.495
 5351OM     OM1 5351   5.954   8.429   9.515
 5352OM     OM1 5352   3.637   1.421   1.240
 5353OM     OM1 5353   5.818   1.157   6.109
 5354OM     OM1 5354   2.307   8.568   6.619
 5355OM     OM1 5355   2.504   8.484   6.756
 5356OM     OM1 5356   8.636   1.373   6.311
 5357OM     OM1 5357   7.218   0.521   1.774
 5358OM     OM1 5358   7.438   0.630   1.891
 5359OM     OM1 5359   7.441   0.543   1.640
 5360OM     OM1 5360   7.315   0.754   1.708
 5361OM     OM1 5361   4.421   8.373   5.360
 5362OM     OM1 5362   4.604   8.479   5.205
 5363OM     OM1 5363   4.409   8.631   5.304
 5364OM     OM1 5364   6.158   9.498   8.610
 5365OM     OM1 5365   5.945   9.456   8.763
 5366OM     OM1 5366   7.643   0.998   6.672
 5367OM     OM1 5367   7.505   0.775   6.615
 5368OM     OM1 5368   7.750   0.790   6.570
 5369OM     OM1 5369   1.516   0.559   7.252
 5370OM     OM1 5370   1.383   0.793   7.234
 5371OM     OM1 5371   1.289   0.567   7.133
 5372OM     OM1 5372   9.428   0.389   8.581
 5373OM     OM1 5373   2.311   8.322   7.603
 5374OM     OM1 5374   2.058   8.336   7.507
 5375OM     OM1 5375   1.003   1.018   6.765
 5376OM     OM1 5376   0.987   0.769   6.687
 5377OM     OM1 5377   1.054   0.639   7.079
 5378OM     OM1 5378   0.863   0.802   7.158
 5379OM     OM1 5379   1.165   8.810   2.666
 5380OM     OM1 5380   1.281   8.895   2.466
 5381OM     OM1 5381   7.381   0.961   9.120
 5382OM     OM1 5382   4.252   8.767   5.463
 5383OM     OM1 5383   4.265   8.903   5.684
 5384OM     OM1 5384   4.339   8.659   5.686
 5385OM     OM1 5385   3.378   0.461   0.685
 5386OM     OM1 5386   3.366   0.613   0.897
 5387OM     OM1 5387   3.148   0.524   0.790
 5388OM     OM1 5388   6.427   0.902   7.370
 5389OM     OM1 5389   6.330   0.688   7.526
 5390OM     OM1 5390   6.564   0.767   7.547
 5391OM     OM1 5391   4.463   1.227   1.931
 5392OM     OM1 5392   4.593   1.252   2.157
 5393OM     OM1 5393   6.119   1.167   0.926
 5394OM     OM1 5394   6.247   1.292   1.108
 5395OM     OM1 5395   1.482   0.800   5.168
 5396OM     OM1 5396   1.513   0.573   5.076
 5397OM     OM1 5397   1.267   0.657   5.111
 5398OM     OM1 5398   1.402   0.771   4.927
 5399OM     OM1 5399   3.402   8.742   5.364
 5400OM     OM1 5400   3.666   8.677   5.434
 5401OM     OM1 5401   3.474   8.685   5.602
 5402OM     OM1 5402   3.552   8.907   5.470
 5403OM     OM1 5403   1.420   9.088   0.837
 5404OM     OM1 5404   1.227   9.166   0.679
 5405OM     OM1 5405   1.286   8.921   0.685
 5406OM     OM1 5406   8.787   8.695   3.303
 5407OM     OM1 5407   8.985   8.672   3.448
 5408OM     OM1 5408   8.924   8.910   3.380
 5409OM     OM1 5409   9.408   8.611   7.125
 5410OM     OM1 5410   0.057   8.538   7.152
 5411OM     OM1 5411   4.094   0.712   4.842
 5412OM     OM1 5412   4.215   0.506   4.741
 5413OM     OM1 5413   9.276   8.366   4.427
 5414OM     OM1 5414   9.116   8.389   4.224
 5415OM     OM1 5415   5.085   8.394   7.210
 5416OM     OM1 5416   5.091   8.410   7.486
 5417OM     OM1 5417   1.317   1.060   7.224
 5418OM     OM1 5418   1.322   0.911   7.020
 5419OM     OM1 5419   1.138   0.855   7.201
 5420OM     OM1 5420   0.803   9.251   6.102
 5421OM     OM1 5421   1.057   9.270   6.106
 5422OM     OM1 5422   0.926   9.342   5.888
 5423OM     OM1 5423   0.916   9.491   6.102
 5424OM     OM1 5424   1.182   8.501   6.184
 5425OM     OM1 5425   0.953   8.597   6.221
 5426OM     OM1 5426   1.146   8.659   6.395
 5427OM     OM1 5427   0.481   1.289   7.452
 5428OM     OM1 5428   0.587   1.348   7.230
 5429OM     OM1 5429   3.319   0.549   6.538
 5430OM     OM1 5430   3.484   0.379   6.428
 5431OM     OM1 5431   1.907   9.384   8.216
 5432OM     OM1 5432   1.720   9.406   8.054
 5433OM     OM1 5433   1.954   9.422   7.952
 5434OM     OM1 5434   5.133   8.619   8.541
 5435OM     OM1 5435   5.222   8.860   8.510
 5436OM     OM1 5436   4.977   8.823   8.598
 5437OM     OM1 5437   7.093   1.171   8.481
 5438OM     OM1 5438   6.860   1.036   8.505
 5439OM     OM1 5439   7.084   0.898   8.462
 5440OM     OM1 5440   6.594   1.192   8.790
 5441OM     OM1 5441   9.011   8.428   5.229
 5442OM     OM1 5442   9.093   8.452   4.978
 5443OM     OM1 5443   9.254   8.523   5.183
 5444OM     OM1 5444   4.295   8.367   2.373
 5445OM     OM1 5445   9.366   0.442   1.784
 5446OM     OM1 5446   9.418   0.503   1.543
 5447OM     OM1 5447   9.358   0.471   1.292
 5448OM     OM1 5448   3.048   1.203   4.735
 5449OM     OM1 5449   2.895   1.146   4.532
 5450OM     OM1 5450   0.595   8.709   8.043
 5451OM     OM1 5451   0.320   9.044   8.132
 5452OM     OM1 5452   0.529   9.157   8.251
 5453OM     OM1 5453   1.854   0.265   4.930
 5454OM     OM1 5454   2.078   0.137   4.880
 5455OM     OM1 5455   2.081   0.386   4.953
 5456OM     OM1 5456   2.739   0.461   2.037
 5457OM     OM1 5457   2.804   0.421   1.768
 5458OM     OM1 5458   2.987   0.487   1.938
 5459OM     OM1 5459   2.792   0.649   1.883
 5460OM     OM1 5460   2.241   1.367   7.825
 5461OM     OM1 5461   2.171   1.128   7.748
 5462OM     OM1 5462   2.279   1.285   7.585
 5463OM     OM1 5463   2.428   1.191   7.783
 5464OM     OM1 5464   0.989   9.223   0.987
 5465OM     OM1 5465   1.036   9.335   0.620
 5466OM     OM1 5466   0.986   9.111   0.752
 5467OM     OM1 5467   2.176   1.349   6.094
 5468OM     OM1 5468   2.154   1.242   6.333
 5469OM     OM1 5469   1.975   1.188   6.144
 5470OM     OM1 5470   6.692   9.205   6.400
 5471OM     OM1 5471   6.520   9.063   6.267
 5472OM     OM1 5472   4.487   1.349   0.839
 5473OM     OM1 5473   4.546   1.250   0.601
 5474OM     OM1 5474   1.257   8.671   8.831
 5475OM     OM1 5475   1.151   8.880   8.977
 5476OM     OM1 5476   0.415   8.807   9.052
 5477OM     OM1 5477   6.698   0.512   3.937
 5478OM     OM1 5478   6.888   0.331   3.948
 5479OM     OM1 5479   4.131   0.282   8.517
 5480OM     OM1 5480   4.353   0.295   8.383
 5481OM     OM1 5481   4.135   0.184   8.283
 5482OM     OM1 5482   4.277   0.058   8.452
 5483OM     OM1 5483   8.385   0.636   4.453
 5484OM     OM1 5484   8.237   0.594   4.656
 5485OM     OM1 5485   8.440   0.441   4.609
 5486OM     OM1 5486   8.408   8.400   4.754
 5487OM     OM1 5487   8.570   8.505   4.923
 5488OM     OM1 5488   4.732   9.019   1.084
 5489OM     OM1 5489   4.900   8.995   1.274
 5490OM     OM1 5490   4.771   8.780   1.187
 5491OM     OM1 5491   0.605   0.532   6.568
 5492OM     OM1 5492   0.658   0.633   6.322
 5493OM     OM1 5493   0.444   0.702   6.445
 5494OM     OM1 5494   0.140   0.335   9.295
 5495OM     OM1 5495   0.252   0.095   9.239
 5496OM     OM1 5496   7.040   1.078   4.447
 5497OM     OM1 5497   6.824   1.132   4.302
 5498OM     OM1 5498   7.054   1.246   4.260
 5499OM     OM1 5499   0.111   9.318   6.513
 5500OM     OM1 5500   0.176   9.283   6.760
 5501OM     OM1 5501   2.123   8.261   0.324
 5502OM     OM1 5502   2.169   8.466   0.493
 5503OM     OM1 5503   1.936   8.355   0.471
 5504OM     OM1 5504   1.542   1.249   0.016
 5505OM     OM1 5505   1.438   1.059   0.166
 5506OM     OM1 5506   1.627   1.208   0.258
 5507OM     OM1 5507   6.966   0.452   1.719
 5508OM     OM1 5508   7.133   0.293   1.843
 5509OM     OM1 5509   7.164   0.358   1.580
 5510OM     OM1 5510   4.721   0.262   0.913
 5511OM     OM1 5511   4.887   0.195   0.720
 5512OM     OM1 5512   5.773   0.614   4.164
 5513OM     OM1 5513   5.914   0.636   4.382
 5514OM     OM1 5514   5.757   0.435   4.351
 5515OM     OM1 5515   5.980   0.464   4.205
 5516OM     OM1 5516   2.409   1.127   0.563
 5517OM     OM1 5517   2.832   0.467   2.276
 5518OM     OM1 5518   2.862   0.318   2.483
 5519OM     OM1 5519   3.050   0.505   2.431
 5520OM     OM1 5520   2.758   9.046   6.405
 5521OM     OM1 5521   2.786   9.128   6.651
 5522OM     OM1 5522   2.837   8.878   6.573
 5523OM     OM1 5523   8.941   8.898   6.283
 5524OM     OM1 5524   8.869   8.938   6.534
 5525OM     OM1 5525   7.209   0.668   8.522
 5526OM     OM1 5526   2.153   1.200   3.330
 5527OM     OM1 5527   2.381   1.336   3.355
 5528OM     OM1 5528   5.268   0.485   4.233
 5529OM     OM1 5529   5.254   0.368   4.462
 5530OM     OM1 5530   5.067   0.324   4.265
 5531OM     OM1 5531   5.316   0.234   4.254
 5532OM     OM1 5532   5.936   0.729   1.379
 5533OM     OM1 5533   5.936   0.754   1.639
 5534OM     OM1 5534   5.712   0.736   1.516
 5535OM     OM1 5535   7.656   0.554   4.608
 5536OM     OM1 5536   7.520   0.706   4.776
 5537OM     OM1 5537   2.279   0.562   8.318
 5538OM     OM1 5538   2.261   0.677   8.546
 5539OM     OM1 5539   2.123   0.462   8.507
 5540OM     OM1 5540   3.251   1.392   6.435
 5541OM     OM1 5541   3.249   1.234   6.229
 5542OM     OM1 5542   5.988   8.322   0.533
 5543OM     OM1 5543   5.736   8.393   0.483
 5544OM     OM1 5544   8.591   8.904   8.402
 5545OM     OM1 5545   8.279   8.974   8.037
 5546OM     OM1 5546   8.517   8.710   8.241
 5547OM     OM1 5547   8.508   8.953   8.151
 5548OM     OM1 5548   3.830   9.332   7.000
 5549OM     OM1 5549   3.575   9.273   6.985
 5550OM     OM1 5550   3.811   8.824   6.943
 5551OM     OM1 5551   9.181   8.379   9.362
 5552OM     OM1 5552   9.443   8.387   9.352
 5553OM     OM1 5553   0.490   8.720   9.276
 5554OM     OM1 5554   0.732   8.806   9.191
 5555OM     OM1 5555   0.717   8.694   9.413
 5556OM     OM1 5556   0.599   8.929   9.380
 5557OM     OM1 5557   3.692   0.030   0.423
 5558OM     OM1 5558   3.800   9.534   0.636
 5559OM     OM1 5559   3.599   0.084   0.661
 5560OM     OM1 5560   4.730   8.630   2.434
 5561OM     OM1 5561   4.696   8.397   2.549
 5562OM     OM1 5562   6.978   8.992   7.461
 5563OM     OM1 5563   7.074   9.225   7.556
 5564OM     OM1 5564   6.969   9.224   7.327
 5565OM     OM1 5565   4.596   8.629   7.583
 5566OM     OM1 5566   4.562   8.440   7.401
 5567OM     OM1 5567   4.693   8.652   7.341
 5568OM     OM1 5568   4.278   9.112   0.661
 5569OM     OM1 5569   4.389   9.321   0.554
 5570OM     OM1 5570   4.362   9.098   0.414
 5571OM     OM1 5571   4.535   0.282   4.419
 5572OM     OM1 5572   0.493   8.358   8.018
 5573OM     OM1 5573   0.355   8.463   8.221
 5574OM     OM1 5574   9.090   8.952   0.866
 5575OM     OM1 5575   9.161   8.845   0.622
 5576OM     OM1 5576   9.200   9.090   0.683
 5577OM     OM1 5577   8.562   8.654   6.942
 5578OM     OM1 5578   8.622   8.396   6.947
 5579OM     OM1 5579   1.433   1.296   0.401
 5580OM     OM1 5580   1.906   1.235   0.597
 5581OM     OM1 5581   1.677   1.316   0.494
 5582OM     OM1 5582   1.418   1.087   5.878
 5583OM     OM1 5583   1.210   0.968   5.773
 5584OM     OM1 5584   1.324   0.857   5.974
 5585OM     OM1 5585   2.369   8.787   5.296
 5586OM     OM1 5586   2.559   8.963   5.270
 5587OM     OM1 5587   2.475   9.343   4.427
 5588OM     OM1 5588   2.466   9.234   4.199
 5589OM     OM1 5589   2.517   9.478   4.183
 5590OM     OM1 5590   2.695   9.334   4.295
 5591OM     OM1 5591   4.381   8.830   1.148
 5592OM     OM1 5592   4.346   8.579   1.155
 5593OM     OM1 5593   4.573   8.664   1.069
 5594OM     OM1 5594   0.630   0.404   4.633
 5595OM     OM1 5595   0.607   0.598   4.812
 5596OM     OM1 5596   0.846   0.533   4.715
 5597OM     OM1 5597   0.683   0.664   4.575
 5598OM     OM1 5598   3.712   9.120   0.335
 5599OM     OM1 5599   3.941   8.999   0.392
 5600OM     OM1 5600   0.846   8.962   4.076
 5601OM     OM1 5601   0.579   8.970   4.082
 5602OM     OM1 5602   8.754   8.738   5.826
 5603OM     OM1 5603   8.880   8.825   6.039
 5604OM     OM1 5604   8.659   8.699   6.066
 5605OM     OM1 5605   2.141   9.197   9.279
 5606OM     OM1 5606   1.963   8.999   9.343
 5607OM     OM1 5607   1.960   9.220   9.463
 5608OM     OM1 5608   2.161   9.059   9.500
 5609OM     OM1 5609   4.701   0.810   8.336
 5610OM     OM1 5610   4.533   0.969   8.469
 5611OM     OM1 5611   4.646   1.056   8.234
 5612OM     OM1 5612   7.237   9.299   0.156
 5613OM     OM1 5613   7.435   9.438   0.293
 5614OM     OM1 5614   7.272   9.263   0.400
 5615OM     OM1 5615   4.385   8.861   0.304
 5616OM     OM1 5616   4.558   8.952   0.482
 5617OM     OM1 5617   4.533   9.055   0.224
 5618OM     OM1 5618   7.994   8.755   6.883
 5619OM     OM1 5619   8.044   9.000   6.980
 5620OM     OM1 5620   8.098   8.776   7.110
 5621OM     OM1 5621   7.855   8.862   7.090
 5622OM     OM1 5622   7.866   9.489   7.018
 5623OM     OM1 5623   7.835   9.316   7.219
 5624OM     OM1 5624   8.050   9.461   7.199
 5625OM     OM1 5625   8.005   9.262   7.036
 5626OM     OM1 5626   8.601   9.178   5.088
 5627OM     OM1 5627   6.599   1.198   1.878
 5628OM     OM1 5628   6.788   1.026   1.797
 5629OM     OM1 5629   3.784   9.397   2.851
 5630OM     OM1 5630   3.544   1.107   3.060
 5631OM     OM1 5631   0.205   9.209   2.590
 5632OM     OM1 5632   0.302   8.896   2.225
 5633OM     OM1 5633   0.217   9.106   2.345
 5634OM     OM1 5634   0.340   9.336   2.411
 5635OM     OM1 5635   7.426   8.767   0.900
 5636OM     OM1 5636   7.379   8.530   0.998
 5637OM     OM1 5637   7.451   8.571   0.750
 5638OM     OM1 5638   7.206   8.628   0.834
 5639OM     OM1 5639   5.274   0.219   2.897
 5640OM     OM1 5640   5.246   0.400   3.105
 5641OM     OM1 5641   5.058   0.231   3.045
 5642OM     OM1 5642   7.664   0.658   7.235
 5643OM     OM1 5643   7.847   0.799   7.099
 5644OM     OM1 5644   7.672   0.923   7.237
 5645OM     OM1 5645   7.843   0.776   7.367
 5646OM     OM1 5646   1.781   8.654   9.112
 5647OM     OM1 5647   1.807   8.916   9.078
 5648OM     OM1 5648   1.775   8.814   9.311
 5649OM     OM1 5649   3.910   9.261   4.199
 5650OM     OM1 5650   3.770   9.264   4.415
 5651OM     OM1 5651   3.842   9.492   4.296
 5652OM     OM1 5652   4.028   9.356   4.412
 5653OM     OM1 5653   8.988   9.314   9.119
 5654OM     OM1 5654   9.132   9.240   9.311
 5655OM     OM1 5655   9.311   9.203   9.128
 5656OM     OM1 5656   2.137   9.341   1.056
 5657OM     OM1 5657   2.034   9.130   1.188
 5658OM     OM1 5658   2.194   9.295   1.305
 5659OM     OM1 5659   2.288   9.146   1.099
 5660OM     OM1 5660   1.109   1.025   5.369
 5661OM     OM1 5661   1.612   9.469   6.026
 5662OM     OM1 5662   1.647   9.394   6.260
 5663OM     OM1 5663   1.457   9.282   6.149
 5664OM     OM1 5664   0.311   8.667   6.674
 5665OM     OM1 5665   0.311   8.761   6.423
 5666OM     OM1 5666   0.311   8.505   6.468
 5667OM     OM1 5667   2.275   0.506   7.811
 5668OM     OM1 5668   2.254   0.493   8.068
 5669OM     OM1 5669   2.176   0.703   7.950
 5670OM     OM1 5670   4.243   8.657   0.163
 5671OM     OM1 5671   4.240   8.432   0.028
 5672OM     OM1 5672   4.021   8.549   0.082
 5673OM     OM1 5673   4.176   8.428   0.273
 5674OM     OM1 5674   0.154   9.413   2.726
 5675OM     OM1 5675   9.512   9.475   2.713
 5676OM     OM1 5676   0.070   0.010   2.865
 5677OM     OM1 5677   0.083   0.031   2.604
 5678OM     OM1 5678   1.991   0.209   1.011
 5679OM     OM1 5679   2.082   9.575   0.966
 5680OM     OM1 5680   2.058   0.058   1.212
 5681OM     OM1 5681   1.854   0.149   0.249
 5682OM     OM1 5682   1.972   0.222   0.031
 5683OM     OM1 5683   2.037   9.533   5.565
 5684OM     OM1 5684   2.166   9.475   5.346
 5685OM     OM1 5685   2.243   0.072   5.498
 5686OM     OM1 5686   7.330   0.661   1.241
 5687OM     OM1 5687   7.579   0.663   1.156
 5688OM     OM1 5688   7.469   0.875   1.283
 5689OM     OM1 5689   2.786   9.264   6.872
 5690OM     OM1 5690   2.962   9.074   6.829
 5691OM     OM1 5691   1.526   0.425   5.300
 5692OM     OM1 5692   1.414   0.347   5.091
 5693OM     OM1 5693   1.683   0.386   5.086
 5694OM     OM1 5694   4.047   1.063   8.974
 5695OM     OM1 5695   4.128   0.917   8.766
 5696OM     OM1 5696   1.250   9.588   2.272
 5697OM     OM1 5697   1.370   0.128   2.455
 5698OM     OM1 5698   1.423   0.149   2.201
 5699OM     OM1 5699   1.189   0.239   2.291
 5700OM     OM1 5700   3.166   0.840   4.986
 5701OM     OM1 5701   2.954   0.710   4.916
 5702OM     OM1 5702   3.179   0.571   4.942
 5703OM     OM1 5703   6.385   8.875   0.553
 5704OM     OM1 5704   6.532   8.722   0.705
 5705OM     OM1 5705   6.274   8.690   0.695
 5706OM     OM1 5706   5.431   0.926   0.363
 5707OM     OM1 5707   5.717   0.658   0.615
 5708OM     OM1 5708   5.664   0.846   0.437
 5709OM     OM1 5709   1.695   1.199   5.722
 5710OM     OM1 5710   1.841   1.127   5.522
 5711OM     OM1 5711   3.778   8.867   3.740
 5712OM     OM1 5712   3.723   9.120   3.758
 5713OM     OM1 5713   7.721   8.566   5.377
 5714OM     OM1 5714   7.768   8.426   5.599
 5715OM     OM1 5715   1.916   8.431   7.987
 5716OM     OM1 5716   1.782   8.485   8.201
 5717OM     OM1 5717   2.022   8.370   8.205
 5718OM     OM1 5718   2.195   0.238   6.262
 5719OM     OM1 5719   2.234   0.381   6.477
 5720OM     OM1 5720   2.169   0.493   6.247
 5721OM     OM1 5721   2.402   0.390   6.274
 5722OM     OM1 5722   1.755   0.449   8.687
 5723OM     OM1 5723   1.860   0.494   8.920
 5724OM     OM1 5724   2.010   0.389   8.731
 5725OM     OM1 5725   7.877   1.098   6.685
 5726OM     OM1 5726   8.025   1.181   6.479
 5727OM     OM1 5727   7.774   1.246   6.497
 5728OM     OM1 5728   0.963   8.728   2.262
 5729OM     OM1 5729   0.917   8.978   2.180
 5730OM     OM1 5730   0.763   8.874   2.354
 5731OM     OM1 5731   9.504   9.270   6.371
 5732OM     OM1 5732   9.517   9.025   6.269
 5733OM     OM1 5733   3.040   0.683   6.983
 5734OM     OM1 5734   3.176   0.789   7.179
 5735OM     OM1 5735   5.419   8.325   2.090
 5736OM     OM1 5736   5.385   8.270   1.828
 5737OM     OM1 5737   0.648   8.320   8.639
 5738OM     OM1 5738   2.336   0.549   4.619
 5739OM     OM1 5739   2.171   0.694   4.470
 5740OM     OM1 5740   2.341   0.529   4.358
 5741OM     OM1 5741   2.136   0.437   4.500
 5742OM     OM1 5742   4.966   0.619   2.477
 5743OM     OM1 5743   4.866   0.391   2.410
 5744OM     OM1 5744   5.241   0.627   2.481
 5745OM     OM1 5745   5.575   0.000   1.625
 5746OM     OM1 5746   5.420   9.396   1.570
 5747OM     OM1 5747   4.542   8.527   5.798
 5748OM     OM1 5748   4.511   8.781   5.827
 5749OM     OM1 5749   8.570   0.042   3.069
 5750OM     OM1 5750   8.478   9.409   3.115
 5751OM     OM1 5751   6.739   8.512   3.460
 5752OM     OM1 5752   6.958   8.369   3.411
 5753OM     OM1 5753   8.135   0.296   8.049
 5754OM     OM1 5754   8.075   0.137   8.252
 5755OM     OM1 5755   7.890   0.183   8.084
 5756OM     OM1 5756   9.069   9.586   3.319
 5757OM     OM1 5757   9.101   9.385   3.484
 5758OM     OM1 5758   9.099   0.027   3.562
 5759OM     OM1 5759   6.649   8.508   7.903
 5760OM     OM1 5760   6.879   8.521   7.803
 5761OM     OM1 5761   5.129   8.560   0.673
 5762OM     OM1 5762   5.210   8.340   0.557
 5763OM     OM1 5763   4.952   8.365   0.648
 5764OM     OM1 5764   5.038   8.758   0.556
 5765OM     OM1 5765   6.769   0.905   7.572
 5766OM     OM1 5766   6.994   0.850   7.461
 5767OM     OM1 5767   8.163   9.517   3.033
 5768OM     OM1 5768   8.019   9.318   3.100
 5769OM     OM1 5769   8.098   9.472   3.292
 5770OM     OM1 5770   8.263   9.306   3.167
 5771OM     OM1 5771   2.936   8.978   9.473
 5772OM     OM1 5772   2.432   8.518   7.500
 5773OM     OM1 5773   2.285   8.687   7.373
 5774OM     OM1 5774   8.156   8.416   4.714
 5775OM     OM1 5775   8.135   8.428   4.973
 5776OM     OM1 5776   7.921   8.418   4.815
 5777OM     OM1 5777   8.104   0.289   0.512
 5778OM     OM1 5778   8.021   0.064   0.633
 5779OM     OM1 5779   8.243   0.070   0.487
 5780OM     OM1 5780   0.213   0.251   2.564
 5781OM     OM1 5781   0.041   0.169   2.387
 5782OM     OM1 5782   9.562   0.253   2.626
 5783OM     OM1 5783   3.565   0.093   8.108
 5784OM     OM1 5784   3.719   0.296   8.068
 5785OM     OM1 5785   3.608   0.265   8.304
 5786OM     OM1 5786   6.262   8.618   8.137
 5787OM     OM1 5787   4.352   0.740   3.229
 5788OM     OM1 5788   4.595   0.649   3.280
 5789OM     OM1 5789   4.387   0.570   3.418
 5790OM     OM1 5790   4.477   0.814   3.451
 5791OM     OM1 5791   4.008   0.763   5.668
 5792OM     OM1 5792   3.920   0.935   5.845
 5793OM     OM1 5793   3.710   0.826   5.937
 5794OM     OM1 5794   7.012   0.993   2.643
 5795OM     OM1 5795   6.887   0.619   2.566
 5796OM     OM1 5796   7.083   0.528   2.714
 5797OM     OM1 5797   6.982   0.767   2.757
 5798OM     OM1 5798   0.312   8.779   5.027
 5799OM     OM1 5799   0.245   8.899   4.800
 5800OM     OM1 5800   0.300   8.644   4.799
 5801OM     OM1 5801   0.490   8.818   4.842
 5802OM     OM1 5802   8.480   0.535   0.980
 5803OM     OM1 5803   7.324   9.171   0.800
 5804OM     OM1 5804   7.219   8.980   0.938
 5805OM     OM1 5805   7.485   9.009   0.919
 5806OM     OM1 5806   4.753   0.485   3.131
 5807OM     OM1 5807   4.686   0.446   2.875
 5808OM     OM1 5808   4.563   0.332   3.079
 5809OM     OM1 5809   4.806   0.254   3.009
 5810OM     OM1 5810   9.348   8.642   8.595
 5811OM     OM1 5811   9.584   8.638   8.483
 5812OM     OM1 5812   4.040   0.493   4.140
 5813OM     OM1 5813   3.925   0.719   4.055
 5814OM     OM1 5814   3.802   0.560   4.220
 5815OM     OM1 5815   7.056   8.573   8.006
 5816OM     OM1 5816   7.094   8.640   8.271
 5817OM     OM1 5817   7.024   8.811   8.103
 5818OM     OM1 5818   5.358   0.330   7.256
 5819OM     OM1 5819   5.207   0.225   7.436
 5820OM     OM1 5820   3.748   9.017   0.562
 5821OM     OM1 5821   4.126   8.871   0.248
 5822OM     OM1 5822   1.303   0.792   4.094
 5823OM     OM1 5823   1.285   0.607   4.277
 5824OM     OM1 5824   6.571   9.081   1.005
 5825OM     OM1 5825   6.796   9.212   1.027
 5826OM     OM1 5826   7.015   9.083   1.051
 5827OM     OM1 5827   6.934   9.227   1.255
 5828OM     OM1 5828   0.546   1.124   5.689
 5829OM     OM1 5829   0.372   1.304   5.643
 5830OM     OM1 5830   9.018   1.326   4.700
 5831OM     OM1 5831   8.001   0.529   0.508
 5832OM     OM1 5832   3.900   1.103   7.541
 5833OM     OM1 5833   3.741   1.291   7.628
 5834OM     OM1 5834   3.981   1.291   7.711
 5835OM     OM1 5835   5.485   9.325   5.666
 5836OM     OM1 5836   5.493   9.262   5.916
 5837OM     OM1 5837   5.477   9.034   6.055
 5838OM     OM1 5838   5.681   9.182   6.083
 5839OM     OM1 5839   1.336   1.286   3.468
 5840OM     OM1 5840   1.457   1.283   3.698
 5841OM     OM1 5841   1.215   1.185   3.676
 5842OM     OM1 5842   1.396   1.065   3.547
 5843OM     OM1 5843   5.619   1.106   0.404
 5844OM     OM1 5844   5.857   0.883   0.599
 5845OM     OM1 5845   6.172   8.296   3.862
 5846OM     OM1 5846   6.411   8.257   3.734
 5847OM     OM1 5847   7.674   8.576   0.609
 5848OM     OM1 5848   7.642   8.400   0.806
 5849OM     OM1 5849   7.509   8.377   0.597
 5850OM     OM1 5850   6.489   0.324   9.208
 5851OM     OM1 5851   6.554   0.247   9.449
 5852OM     OM1 5852   6.342   0.390   9.419
 5853OM     OM1 5853   7.092   0.294   5.892
 5854OM     OM1 5854   8.839   1.159   3.426
 5855OM     OM1 5855   9.007   0.973   3.484
 5856OM     OM1 5856   8.974   1.177   3.655
 5857OM     OM1 5857   8.789   0.998   3.632
 5858OM     OM1 5858   7.495   0.238   0.118
 5859OM     OM1 5859   7.248   0.282   0.066
 5860OM     OM1 5860   2.856   8.442   8.821
 5861OM     OM1 5861   2.811   8.674   8.915
 5862OM     OM1 5862   5.962   8.686   2.841
 5863OM     OM1 5863   5.824   9.122   2.893
 5864OM     OM1 5864   5.818   8.899   2.794
 5865OM     OM1 5865   1.609   8.625   4.926
 5866OM     OM1 5866   1.389   8.562   5.059
 5867OM     OM1 5867   1.462   8.810   5.029
 5868OM     OM1 5868   0.776   0.076   6.458
 5869OM     OM1 5869   0.940   0.108   6.249
 5870OM     OM1 5870   3.912   0.880   2.789
 5871OM     OM1 5871   3.714   1.024   2.883
 5872OM     OM1 5872   3.694   0.761   2.886
 5873OM     OM1 5873   6.097   0.349   5.920
 5874OM     OM1 5874   6.179   0.401   6.170
 5875OM     OM1 5875   6.112   0.159   6.098
 5876OM     OM1 5876   2.063   9.523   7.497
 5877OM     OM1 5877   1.919   0.070   7.640
 5878OM     OM1 5878   2.096   9.521   7.763
 5879OM     OM1 5879   2.184   0.110   7.619
 5880OM     OM1 5880   5.645   8.963   7.710
 5881OM     OM1 5881   5.635   9.049   7.944
 5882OM     OM1 5882   5.748   9.202   7.754
 5883OM     OM1 5883   5.861   8.977   7.865
 5884OM     OM1 5884   2.306   0.826   1.500
 5885OM     OM1 5885   2.364   0.564   1.474
 5886OM     OM1 5886   2.362   0.676   1.713
 5887OM     OM1 5887   2.109   8.645   3.060
 5888OM     OM1 5888   2.025   8.623   2.804
 5889OM     OM1 5889   1.819   9.582   3.827
 5890OM     OM1 5890   1.936   0.162   3.976
 5891OM     OM1 5891   1.817   0.222   3.747
 5892OM     OM1 5892   1.205   1.070   9.482
 5893OM     OM1 5893   1.137   1.076   9.238
 5894OM     OM1 5894   1.395   1.108   9.300
 5895OM     OM1 5895   5.154   9.115   5.664
 5896OM     OM1 5896   5.176   8.965   5.452
 5897OM     OM1 5897   5.002   9.154   5.449
 5898OM     OM1 5898   6.574   1.047   5.539
 5899OM     OM1 5899   6.749   0.869   5.607
 5900OM     OM1 5900   6.574   0.931   5.783
 5901OM     OM1 5901   3.239   0.287   5.838
 5902OM     OM1 5902   3.234   0.065   5.708
 5903OM     OM1 5903   3.471   0.169   5.773
 5904OM     OM1 5904   9.290   8.870   3.939
 5905OM     OM1 5905   9.175   8.963   3.721
 5906OM     OM1 5906   9.027   8.843   3.894
 5907OM     OM1 5907   9.193   8.698   3.763
 5908OM     OM1 5908   0.465   8.896   0.106
 5909OM     OM1 5909   0.280   8.894   9.520
 5910OM     OM1 5910   0.290   9.090   0.077
 5911OM     OM1 5911   2.242   9.313   5.136
 5912OM     OM1 5912   2.426   9.121   5.114
 5913OM     OM1 5913   2.374   9.254   4.908
 5914OM     OM1 5914   2.224   8.705   4.072
 5915OM     OM1 5915   2.129   8.931   4.017
 5916OM     OM1 5916   2.109   8.735   3.838
 5917OM     OM1 5917   5.564   8.880   8.790
 5918OM     OM1 5918   5.726   9.006   8.941
 5919OM     OM1 5919   3.924   1.412   4.761
 5920OM     OM1 5920   6.622   9.595   0.926
 5921OM     OM1 5921   6.598   9.329   0.911
 5922OM     OM1 5922   6.553   9.451   1.136
 5923OM     OM1 5923   3.023   9.513   5.300
 5924OM     OM1 5924   3.199   0.081   5.363
 5925OM     OM1 5925   3.120   9.514   5.542
 5926OM     OM1 5926   0.887   0.525   7.625
 5927OM     OM1 5927   1.199   0.659   7.626
 5928OM     OM1 5928   1.835   1.013   6.280
 5929OM     OM1 5929   2.073   0.961   6.199
 5930OM     OM1 5930   9.522   0.413   2.129
 5931OM     OM1 5931   9.428   0.257   1.950
 5932OM     OM1 5932   9.501   0.154   2.177
 5933OM     OM1 5933   9.288   0.299   2.173
 5934OM     OM1 5934   1.555   0.704   5.405
 5935OM     OM1 5935   8.485   9.204   7.130
 5936OM     OM1 5936   8.285   9.360   7.205
 5937OM     OM1 5937   9.194   9.105   4.383
 5938OM     OM1 5938   9.305   8.976   4.177
 5939OM     OM1 5939   1.515   0.881   8.622
 5940OM     OM1 5940   1.573   1.119   8.679
 5941OM     OM1 5941   1.769   0.946   8.616
 5942OM     OM1 5942   1.616   1.030   8.433
 5943OM     OM1 5943   5.197   0.373   2.083
 5944OM     OM1 5944   5.377   0.418   2.268
 5945OM     OM1 5945   5.112   0.396   2.312
 5946OM     OM1 5946   0.481   0.831   8.570
 5947OM     OM1 5947   0.438   0.609   8.442
 5948OM     OM1 5948   0.241   0.785   8.468
 5949OM     OM1 5949   1.389   0.403   7.644
 5950OM     OM1 5950   1.418   0.386   7.901
 5951OM     OM1 5951   1.618   0.453   7.740
 5952OM     OM1 5952   1.412   0.619   7.775
 5953OM     OM1 5953   4.763   0.250   9.464
 5954OM     OM1 5954   4.896   0.318   0.079
 5955OM     OM1 5955   4.799   0.492   9.540
 5956OM     OM1 5956   4.629   0.340   0.061
 5957OM     OM1 5957   7.968   9.465   0.294
 5958OM     OM1 5958   7.887   0.092   0.348
 5959OM     OM1 5959   7.854   9.507   0.522
 5960OM     OM1 5960   7.700   9.508   0.319
 5961OM     OM1 5961   3.485   1.120   5.876
 5962OM     OM1 5962   3.396   0.960   5.693
 5963OM     OM1 5963   2.588   1.112   6.859
 5964OM     OM1 5964   2.704   1.196   7.161
 5965OM     OM1 5965   2.760   1.287   6.932
 5966OM     OM1 5966   3.897   0.193   1.638
 5967OM     OM1 5967   4.055   0.405   1.649
 5968OM     OM1 5968   8.084   1.067   3.912
 5969OM     OM1 5969   8.212   1.182   3.703
 5970OM     OM1 5970   3.401   8.696   4.669
 5971OM     OM1 5971   3.531   8.813   4.467
 5972OM     OM1 5972   3.325   8.669   4.415
 5973OM     OM1 5973   3.445   8.898   4.802
 5974OM     OM1 5974   5.592   1.411   9.026
 5975OM     OM1 5975   5.821   1.314   9.107
 5976OM     OM1 5976   3.561   0.782   5.599
 5977OM     OM1 5977   3.790   0.901   5.627
 5978OM     OM1 5978   4.680   0.864   4.764
 5979OM     OM1 5979   4.787   1.064   5.167
 5980OM     OM1 5980   4.826   1.013   4.911
 5981OM     OM1 5981   4.616   1.118   4.802
 5982OM     OM1 5982   1.820   1.079   8.908
 5983OM     OM1 5983   1.963   0.942   9.085
 5984OM     OM1 5984   3.560   0.454   4.199
 5985OM     OM1 5985   3.727   0.356   4.368
 5986OM     OM1 5986   3.634   0.602   4.411
 5987OM     OM1 5987   6.700   8.999   3.662
 5988OM     OM1 5988   6.739   9.067   3.908
 5989OM     OM1 5989   7.040   0.630   7.611
 5990OM     OM1 5990   7.137   0.449   7.764
 5991OM     OM1 5991   6.152   1.190   2.945
 5992OM     OM1 5992   6.377   1.141   3.071
 5993OM     OM1 5993   1.237   9.134   5.609
 5994OM     OM1 5994   1.106   8.922   5.535
 5995OM     OM1 5995   1.364   8.948   5.481
 5996OM     OM1 5996   1.294   8.906   5.726
 5997OM     OM1 5997   5.776   1.425   3.271
 5998OM     OM1 5998   5.837   1.431   3.013
 5999OM     OM1 5999   4.824   0.233   6.816
 6000OM     OM1 6000   2.641   1.347   3.422
 6001OM     OM1 6001   2.461   1.296   3.598
 6002OM     OM1 6002   5.855   9.034   0.826
 6003OM     OM1 6003   5.642   9.132   0.943
 6004OM     OM1 6004   5.648   9.109   0.687
 6005OM     OM1 6005   3.952   8.428   7.087
 6006OM     OM1 6006   3.932   8.440   6.821
 6007OM     OM1 6007   4.921   9.455   3.311
 6008OM     OM1 6008   4.942   0.070   3.455
 6009OM     OM1 6009   4.886   0.099   3.205
 6010OM     OM1 6010   5.115   0.016   3.266
 6011OM     OM1 6011   9.373   9.508   4.174
 6012OM     OM1 6012   9.340   9.562   3.924
 6013OM     OM1 6013   8.421   8.435   9.472
 6014OM     OM1 6014   8.674   8.438   9.399
 6015OM     OM1 6015   8.503   8.610   9.303
 6016OM     OM1 6016   5.286   0.801   4.688
 6017OM     OM1 6017   5.290   0.771   4.422
 6018OM     OM1 6018   5.353   0.571   4.584
 6019OM     OM1 6019   5.106   0.656   4.555
 6020OM     OM1 6020   6.948   9.023   8.662
 6021OM     OM1 6021   7.136   9.186   8.749
 6022OM     OM1 6022   2.614   9.523   2.373
 6023OM     OM1 6023   2.512   9.553   2.606
 6024OM     OM1 6024   2.728   0.084   2.531
 6025OM     OM1 6025   2.731   9.417   2.573
 6026OM     OM1 6026   4.262   8.258   5.531
 6027OM     OM1 6027   4.362   8.367   5.741
 6028OM     OM1 6028   4.309   1.002   0.969
 6029OM     OM1 6029   4.193   0.776   0.926
 6030OM     OM1 6030   4.431   0.829   0.821
 6031OM     OM1 6031   7.405   1.294   3.657
 6032OM     OM1 6032   7.586   1.268   3.818
 6033OM     OM1 6033   2.693   0.609   2.770
 6034OM     OM1 6034   2.905   0.669   2.646
 6035OM     OM1 6035   3.303   9.282   5.684
 6036OM     OM1 6036   3.546   9.361   5.740
 6037OM     OM1 6037   3.511   9.145   5.595
 6038OM     OM1 6038   4.904   8.278   8.413
 6039OM     OM1 6039   6.995   8.602   9.371
 6040OM     OM1 6040   6.963   8.813   9.511
 6041OM     OM1 6041   7.056   8.844   9.275
 6042OM     OM1 6042   6.812   8.781   9.292
 6043OM     OM1 6043   4.985   0.067   1.290
 6044OM     OM1 6044   4.801   9.473   1.319
 6045OM     OM1 6045   4.836   0.041   1.499
 6046OM     OM1 6046   4.729   0.109   1.260
 6047OM     OM1 6047   4.763   0.286   6.040
 6048OM     OM1 6048   4.831   0.120   5.862
 6049OM     OM1 6049   4.720   0.351   5.798
 6050OM     OM1 6050   1.503   9.147   9.496
 6051OM     OM1 6051   4.383   1.241   1.053
 6052OM     OM1 6052   6.681   0.851   6.020
 6053OM     OM1 6053   6.782   0.900   6.262
 6054OM     OM1 6054   6.932   0.903   6.048
 6055OM     OM1 6055   6.627   8.657   8.607
 6056OM     OM1 6056   6.769   8.460   8.634
 6057OM     OM1 6057   6.528   8.428   8.709
 6058OM     OM1 6058   0.977   9.511   7.274
 6059OM     OM1 6059   0.969   9.407   7.513
 6060OM     OM1 6060   0.757   9.395   7.353
 6061OM     OM1 6061   2.455   0.089   9.355
 6062OM     OM1 6062   3.824   0.499   8.179
 6063OM     OM1 6063   4.005   0.666   8.248
 6064OM     OM1 6064   3.967   0.456   8.399
 6065OM     OM1 6065   7.482   9.190   7.694
 6066OM     OM1 6066   7.496   9.118   7.941
 6067OM     OM1 6067   7.583   9.356   7.866
 6068OM     OM1 6068   7.072   0.056   5.165
 6069OM     OM1 6069   7.216   9.535   5.363
 6070OM     OM1 6070   4.550   8.570   7.842
 6071OM     OM1 6071   4.351   8.576   7.995
 6072OM     OM1 6072   4.571   8.714   8.052
 6073OM     OM1 6073   4.566   8.456   8.083
 6074OM     OM1 6074   6.278   9.070   2.691
 6075OM     OM1 6075   6.063   9.049   2.816
 6076OM     OM1 6076   7.086   0.946   3.175
 6077OM     OM1 6077   6.851   1.029   3.226
 6078OM     OM1 6078   6.975   0.895   3.422
 6079OM     OM1 6079   2.686   1.161   6.402
 6080OM     OM1 6080   2.910   1.188   6.558
 6081OM     OM1 6081   0.357   0.625   4.873
 6082OM     OM1 6082   0.526   0.809   4.954
 6083OM     OM1 6083   0.535   0.561   5.053
 6084OM     OM1 6084   0.404   0.120   2.685
 6085OM     OM1 6085   0.651   0.044   2.705
 6086OM     OM1 6086   0.474   9.533   2.531
 6087OM     OM1 6087   0.477   9.486   2.786
 6088OM     OM1 6088   4.756   1.282   9.244
 6089OM     OM1 6089   4.919   1.295   9.018
 6090OM     OM1 6090   9.489   9.040   2.799
 6091OM     OM1 6091   0.031   8.973   3.000
 6092OM     OM1 6092   0.098   9.177   2.832
 6093OM     OM1 6093   0.129   8.935   2.765
 6094OM     OM1 6094   3.195   9.247   8.691
 6095OM     OM1 6095   3.452   9.173   8.714
 6096OM     OM1 6096   3.310   9.088   8.520
 6097OM     OM1 6097   2.368   8.606   1.421
 6098OM     OM1 6098   2.212   8.779   1.296
 6099OM     OM1 6099   6.944   1.297   9.101
 6100OM     OM1 6100   6.776   1.291   9.307
 6101OM     OM1 6101   7.031   1.261   9.339
 6102OM     OM1 6102   5.660   9.371   0.686
 6103OM     OM1 6103   5.714   9.252   0.472
 6104OM     OM1 6104   2.843   9.329   5.271
 6105OM     OM1 6105   2.605   9.221   5.276
 6106OM     OM1 6106   2.794   9.111   5.402
 6107OM     OM1 6107   2.713   9.344   5.493
 6108OM     OM1 6108   0.336   8.312   2.902
 6109OM     OM1 6109   0.245   8.494   3.063
 6110OM     OM1 6110   0.472   8.369   3.117
 6111OM     OM1 6111   8.088   0.313   1.987
 6112OM     OM1 6112   8.497   0.456   2.225
 6113OM     OM1 6113   8.296   0.463   2.062
 6114OM     OM1 6114   8.528   0.757   5.255
 6115OM     OM1 6115   8.687   0.542   5.581
 6116OM     OM1 6116   7.784   8.293   7.787
 6117OM     OM1 6117   7.590   8.425   7.918
 6118OM     OM1 6118   3.643   9.448   4.839
 6119OM     OM1 6119   3.219   0.838   1.703
 6120OM     OM1 6120   3.391   0.912   1.520
 6121OM     OM1 6121   3.478   0.828   1.748
 6122OM     OM1 6122   1.465   1.214   1.634
 6123OM     OM1 6123   1.484   1.211   1.375
 6124OM     OM1 6124   3.940   1.000   6.853
 6125OM     OM1 6125   3.935   1.065   6.608
 6126OM     OM1 6126   4.011   1.237   6.785
 6127OM     OM1 6127   4.165   1.034   6.706
 6128OM     OM1 6128   9.593   9.459   3.057
 6129OM     OM1 6129   4.664   0.961   6.807
 6130OM     OM1 6130   4.807   1.189   6.873
 6131OM     OM1 6131   4.558   1.186   6.866
 6132OM     OM1 6132   1.028   9.211   9.375
 6133OM     OM1 6133   0.893   9.369   9.217
 6134OM     OM1 6134   1.147   9.346   9.182
 6135OM     OM1 6135   0.948   8.949   9.118
 6136OM     OM1 6136   0.810   9.074   9.431
 6137OM     OM1 6137   5.441   0.656   8.595
 6138OM     OM1 6138   5.302   0.853   8.680
 6139OM     OM1 6139   5.397   0.680   8.853
 6140OM     OM1 6140   5.202   0.612   8.693
 6141OM     OM1 6141   6.106   0.706   1.176
 6142OM     OM1 6142   6.180   0.652   1.413
 6143OM     OM1 6143   6.004   0.488   1.300
 6144OM     OM1 6144   6.735   8.507   5.146
 6145OM     OM1 6145   4.064   8.459   8.510
 6146OM     OM1 6146   4.155   8.687   8.423
 6147OM     OM1 6147   4.325   8.494   8.441
 6148OM     OM1 6148   8.325   1.262   7.634
 6149OM     OM1 6149   8.200   1.220   7.419
 6150OM     OM1 6150   7.485   1.181   6.974
 6151OM     OM1 6151   7.415   1.214   6.727
 6152OM     OM1 6152   7.235   1.170   6.918
 6153OM     OM1 6153   7.385   0.976   6.854
 6154OM     OM1 6154   0.411   8.927   6.243
 6155OM     OM1 6155   8.075   9.496   9.324
 6156OM     OM1 6156   7.878   9.336   9.326
 6157OM     OM1 6157   8.095   9.258   9.193
 6158OM     OM1 6158   6.876   0.146   4.399
 6159OM     OM1 6159   6.673   9.587   4.345
 6160OM     OM1 6160   8.669   9.181   0.152
 6161OM     OM1 6161   8.720   9.217   9.472
 6162OM     OM1 6162   8.938   9.135   9.562
 6163OM     OM1 6163   4.576   8.447   3.437
 6164OM     OM1 6164   4.317   8.490   3.416
 6165OM     OM1 6165   0.895   8.977   0.965
 6166OM     OM1 6166   0.764   9.178   0.870
 6167OM     OM1 6167   4.619   0.832   9.300
 6168OM     OM1 6168   4.393   0.994   0.071
 6169OM     OM1 6169   4.211   0.831   9.564
 6170OM     OM1 6170   4.443   0.836   9.473
 6171OM     OM1 6171   3.910   8.695   9.498
 6172OM     OM1 6172   3.843   8.440   9.521
 6173OM     OM1 6173   4.755   8.321   8.202
 6174OM     OM1 6174   5.004   8.430   8.230
 6175OM     OM1 6175   1.242   0.399   9.569
 6176OM     OM1 6176   1.243   9.602   9.531
 6177OM     OM1 6177   1.436   0.003   0.112
 6178OM     OM1 6178   1.069   0.427   0.132
 6179OM     OM1 6179   8.812   8.713   7.319
 6180OM     OM1 6180   8.980   8.751   7.508
 6181OM     OM1 6181   3.983   9.329   3.461
 6182OM     OM1 6182   4.194   9.198   3.524
 6183OM     OM1 6183   4.043   9.094   3.341
 6184OM     OM1 6184   4.176   9.311   3.284
 6185OM     OM1 6185   9.156   1.207   4.383
 6186OM     OM1 6186   9.365   1.261   4.528
 6187OM     OM1 6187   9.319   1.385   4.298
 6188OM     OM1 6188   4.781   0.382   4.670
 6189OM     OM1 6189   4.844   0.624   4.601
 6190OM     OM1 6190   4.654   0.599   4.766
 6191OM     OM1 6191   4.612   0.510   4.525
 6192OM     OM1 6192   8.771   8.416   8.858
 6193OM     OM1 6193   7.392   8.988   4.709
 6194OM     OM1 6194   7.580   8.920   4.864
 6195OM     OM1 6195   7.327   8.856   4.927
 6196OM     OM1 6196   7.402   9.098   4.953
 6197OM     OM1 6197   0.217   8.257   2.675
 6198OM     OM1 6198   0.137   8.429   2.496
 6199OM     OM1 6199   9.568   8.428   5.924
 6200OM     OM1 6200   0.015   8.566   7.538
 6201OM     OM1 6201   0.178   8.377   7.603
 6202OM     OM1 6202   0.072   8.562   7.778
 6203OM     OM1 6203   6.288   0.291   2.379
 6204OM     OM1 6204   6.214   0.519   2.506
 6205OM     OM1 6205   7.786   9.282   8.147
 6206OM     OM1 6206   7.791   9.558   8.171
 6207OM     OM1 6207   7.640   9.398   8.315
 6208OM     OM1 6208   3.700   0.046   8.770
 6209OM     OM1 6209   3.784   9.402   8.822
 6210OM     OM1 6210   6.349   9.153   4.195
 6211OM     OM1 6211   6.241   9.386   4.251
 6212OM     OM1 6212   6.097   9.164   4.239
 6213OM     OM1 6213   6.190   9.257   4.020
 6214OM     OM1 6214   3.609   1.030   1.482
 6215OM     OM1 6215   2.680   0.604   4.569
 6216OM     OM1 6216   2.912   0.523   4.458
 6217OM     OM1 6217   2.775   0.718   4.360
 6218OM     OM1 6218   2.428   8.548   4.034
 6219OM     OM1 6219   2.528   8.309   3.973
 6220OM     OM1 6220   0.688   8.940   0.010
 6221OM     OM1 6221   8.993   0.258   7.761
 6222OM     OM1 6222   9.168   0.279   7.573
 6223OM     OM1 6223   8.183   8.548   2.534
 6224OM     OM1 6224   8.044   8.346   2.660
 6225OM     OM1 6225   8.297   8.368   2.696
 6226OM     OM1 6226   1.151   9.390   5.207
 6227OM     OM1 6227   1.158   9.461   4.956
 6228OM     OM1 6228   1.303   9.587   5.113
 6229OM     OM1 6229   7.184   1.302   4.035
 6230OM     OM1 6230   7.961   1.215   5.550
 6231OM     OM1 6231   7.996   1.116   5.787
 6232OM     OM1 6232   7.757   1.190   5.714
 6233OM     OM1 6233   0.105   8.269   3.638
 6234OM     OM1 6234   8.171   8.804   9.324
 6235OM     OM1 6235   8.211   8.415   0.032
 6236OM     OM1 6236   0.223   8.609   1.869
 6237OM     OM1 6237   0.378   8.817   1.918
 6238OM     OM1 6238   0.367   8.592   2.077
 6239OM     OM1 6239   7.149   8.599   8.534
 6240OM     OM1 6240   7.326   8.763   8.477
 6241OM     OM1 6241   7.384   8.541   8.629
 6242OM     OM1 6242   7.254   8.744   8.723
 6243OM     OM1 6243   5.413   1.015   8.006
 6244OM     OM1 6244   5.581   0.942   7.816
 6245OM     OM1 6245   7.485   0.699   5.840
 6246OM     OM1 6246   6.477   8.807   4.532
 6247OM     OM1 6247   6.717   8.884   4.509
 6248OM     OM1 6248   3.808   9.503   3.547
 6249OM     OM1 6249   3.668   9.401   3.355
 6250OM     OM1 6250   3.659   0.053   3.393
 6251OM     OM1 6251   5.707   1.282   1.123
 6252OM     OM1 6252   4.945   0.515   8.684
 6253OM     OM1 6253   4.725   0.629   8.774
 6254OM     OM1 6254   4.783   0.637   8.524
 6255OM     OM1 6255   9.392   0.662   3.321
 6256OM     OM1 6256   9.571   0.512   3.556
 6257OM     OM1 6257   9.464   0.414   3.284
 6258OM     OM1 6258   0.035   0.603   3.330
 6259OM     OM1 6259   5.470   0.035   8.791
 6260OM     OM1 6260   5.531   9.385   8.754
 6261OM     OM1 6261   5.716   9.555   8.844
 6262OM     OM1 6262   0.975   1.130   3.567
 6263OM     OM1 6263   0.737   1.216   3.622
 6264OM     OM1 6264   0.760   1.047   3.426
 6265OM     OM1 6265   2.584   1.137   9.208
 6266OM     OM1 6266   9.217   8.552   7.298
 6267OM     OM1 6267   7.152   8.283   5.462
 6268OM     OM1 6268   7.665   0.319   2.360
 6269OM     OM1 6269   7.406   0.293   2.388
 6270OM     OM1 6270   7.516   0.526   2.345
 6271OM     OM1 6271   7.503   0.339   2.151
 6272OM     OM1 6272   5.351   8.601   0.236
 6273OM     OM1 6273   5.215   8.760   0.086
 6274OM     OM1 6274   5.105   8.667   0.315
 6275OM     OM1 6275   4.910   8.832   0.349
 6276OM     OM1 6276   8.332   8.563   5.874
 6277OM     OM1 6277   8.517   8.481   6.031
 6278OM     OM1 6278   1.508   9.341   2.119
 6279OM     OM1 6279   1.569   9.128   2.264
 6280OM     OM1 6280   1.571   9.131   1.996
 6281OM     OM1 6281   1.356   9.113   2.131
 6282OM     OM1 6282   9.483   0.704   9.057
 6283OM     OM1 6283   4.080   0.260   4.014
 6284OM     OM1 6284   4.038   0.485   3.889
 6285OM     OM1 6285   4.266   0.445   4.012
 6286OM     OM1 6286   5.977   9.146   7.121
 6287OM     OM1 6287   6.221   9.134   7.220
 6288OM     OM1 6288   5.601   0.437   6.830
 6289OM     OM1 6289   5.522   0.201   6.888
 6290OM     OM1 6290   6.321   0.084   7.504
 6291OM     OM1 6291   6.138   0.177   7.337
 6292OM     OM1 6292   6.242   0.423   5.721
 6293OM     OM1 6293   6.170   0.175   5.755
 6294OM     OM1 6294   5.996   0.363   5.672
 6295OM     OM1 6295   4.694   0.156   3.485
 6296OM     OM1 6296   4.878   0.298   3.587
 6297OM     OM1 6297   7.611   0.375   4.182
 6298OM     OM1 6298   7.717   0.198   4.014
 6299OM     OM1 6299   7.571   0.122   4.211
 6300OM     OM1 6300   7.814   0.227   4.251
 6301OM     OM1 6301   5.833   1.006   1.931
 6302OM     OM1 6302   5.705   1.186   2.071
 6303OM     OM1 6303   5.807   1.260   1.854
 6304OM     OM1 6304   9.152   9.502   8.384
 6305OM     OM1 6305   8.951   0.042   8.287
 6306OM     OM1 6306   5.269   1.121   1.222
 6307OM     OM1 6307   5.484   1.139   1.379
 6308OM     OM1 6308   5.459   0.981   1.157
 6309OM     OM1 6309   2.136   8.503   3.406
 6310OM     OM1 6310   2.215   8.293   3.267
 6311OM     OM1 6311   6.691   0.017   7.167
 6312OM     OM1 6312   6.815   9.389   7.197
 6313OM     OM1 6313   6.623   9.455   7.365
 6314OM     OM1 6314   6.269   1.338   5.874
 6315OM     OM1 6315   6.431   1.298   6.066
 6316OM     OM1 6316   5.330   0.140   6.721
 6317OM     OM1 6317   5.325   0.003   6.501
 6318OM     OM1 6318   5.508   0.165   6.532
 6319OM     OM1 6319   4.337   9.116   8.239
 6320OM     OM1 6320   4.483   8.953   8.398
 6321OM     OM1 6321   4.262   8.872   8.273
 6322OM     OM1 6322   4.488   8.935   8.143
 6323OM     OM1 6323   9.475   9.429   2.470
 6324OM     OM1 6324   9.423   9.233   2.641
 6325OM     OM1 6325   8.100   0.768   8.238
 6326OM     OM1 6326   7.949   0.641   8.068
 6327OM     OM1 6327   8.171   0.535   8.124
 6328OM     OM1 6328   2.608   0.941   7.729
 6329OM     OM1 6329   2.447   0.800   7.579
 6330OM     OM1 6330   2.688   0.823   7.502
 6331OM     OM1 6331   8.092   9.562   8.957
 6332OM     OM1 6332   8.126   9.392   8.769
 6333OM     OM1 6333   8.337   9.528   8.879
 6334OM     OM1 6334   8.232   9.339   8.995
 6335OM     OM1 6335   2.003   8.273   5.849
 6336OM     OM1 6336   6.161   0.682   1.754
 6337OM     OM1 6337   6.362   0.630   1.602
 6338OM     OM1 6338   5.564   0.696   1.725
 6339OM     OM1 6339   5.576   0.503   1.552
 6340OM     OM1 6340   9.587   0.797   5.991
 6341OM     OM1 6341   9.430   1.009   5.971
 6342OM     OM1 6342   9.572   0.922   5.761
 6343OM     OM1 6343   1.142   8.718   3.987
 6344OM     OM1 6344   1.114   8.928   4.127
 6345OM     OM1 6345   1.066   8.850   3.773
 6346OM     OM1 6346   2.177   0.522   1.297
 6347OM     OM1 6347   2.057   0.455   1.083
 6348OM     OM1 6348   2.117   0.705   1.119
 6349OM     OM1 6349   1.925   0.600   1.264
 6350OM     OM1 6350   7.589   8.238   8.398
 6351OM     OM1 6351   7.507   8.314   8.634
 6352OM     OM1 6352   6.873   9.033   5.554
 6353OM     OM1 6353   6.995   8.982   5.329
 6354OM     OM1 6354   6.819   9.345   9.500
 6355OM     OM1 6355   6.761   9.422   9.260
 6356OM     OM1 6356   6.797   8.978   9.122
 6357OM     OM1 6357   5.235   0.096   8.881
 6358OM     OM1 6358   1.706   0.224   7.634
 6359OM     OM1 6359   1.826   0.456   7.581
 6360OM     OM1 6360   0.931   8.952   4.315
 6361OM     OM1 6361   0.890   8.645   4.283
 6362OM     OM1 6362   1.046   8.932   4.540
 6363OM     OM1 6363   0.830   8.784   4.486
 6364OM     OM1 6364   6.122   8.396   5.047
 6365OM     OM1 6365   5.920   8.533   5.155
 6366OM     OM1 6366   5.889   8.431   4.921
 6367OM     OM1 6367   6.059   8.619   4.940
 6368OM     OM1 6368   3.619   8.665   7.991
 6369OM     OM1 6369   3.691   8.615   8.226
 6370OM     OM1 6370   3.768   8.853   8.111
 6371OM     OM1 6371   7.386   9.057   6.831
 6372OM     OM1 6372   7.569   9.038   7.019
 6373OM     OM1 6373   7.484   8.825   6.886
 6374OM     OM1 6374   6.526   9.559   7.586
 6375OM     OM1 6375   6.762   9.455   7.581
 6376OM     OM1 6376   3.349   0.897   5.152
 6377OM     OM1 6377   3.103   0.857   5.228
 6378OM     OM1 6378   7.151   8.416   8.361
 6379OM     OM1 6379   7.220   8.228   8.522
 6380OM     OM1 6380   7.349   8.262   8.296
 6381OM     OM1 6381   4.555   0.242   1.112
 6382OM     OM1 6382   5.472   8.376   0.508
 6383OM     OM1 6383   1.749   8.275   5.432
 6384OM     OM1 6384   1.943   8.289   5.603
 6385OM     OM1 6385   7.200   8.312   3.499
 6386OM     OM1 6386   7.268   8.232   3.735
 6387OM     OM1 6387   4.259   0.252   2.493
 6388OM     OM1 6388   4.311   0.052   2.335
 6389OM     OM1 6389   4.500   0.121   2.499
 6390OM     OM1 6390   4.434   0.275   2.302
 6391OM     OM1 6391   9.371   0.034   1.004
 6392OM     OM1 6392   9.551   9.501   0.890
 6393OM     OM1 6393   9.450   9.405   1.107
 6394OM     OM1 6394   9.294   9.412   0.902
 6395OM     OM1 6395   5.087   1.134   0.609
 6396OM     OM1 6396   5.269   1.296   0.549
 6397OM     OM1 6397   5.140   1.179   0.354
 6398OM     OM1 6398   1.453   9.547   5.840
 6399OM     OM1 6399   1.667   9.414   5.781
 6400OM     OM1 6400   1.266   0.005   5.653
 6401OM     OM1 6401   8.578   8.826   8.650
 6402OM     OM1 6402   8.195   8.960   8.553
 6403OM     OM1 6403   8.185   8.725   8.624
 6404OM     OM1 6404   7.496   8.462   8.857
 6405OM     OM1 6405   7.519   8.513   9.122
 6406OM     OM1 6406   7.726   8.512   8.961
 6407OM     OM1 6407   1.789   8.645   3.470
 6408OM     OM1 6408   1.586   8.667   3.308
 6409OM     OM1 6409   0.053   0.125   0.822
 6410OM     OM1 6410   5.850   0.557   8.919
 6411OM     OM1 6411   5.664   0.380   8.882
 6412OM     OM1 6412   7.203   8.957   2.322
 6413OM     OM1 6413   7.223   8.724   2.440
 6414OM     OM1 6414   7.439   8.866   2.400
 6415OM     OM1 6415   7.646   8.417   2.378
 6416OM     OM1 6416   2.050   1.016   0.567
 6417OM     OM1 6417   2.333   1.184   0.314
 6418OM     OM1 6418   2.269   0.965   0.428
 6419OM     OM1 6419   0.870   0.059   1.566
 6420OM     OM1 6420   0.804   9.425   1.671
 6421OM     OM1 6421   0.991   9.396   3.755
 6422OM     OM1 6422   1.243   9.352   3.755
 6423OM     OM1 6423   2.226   8.431   4.956
 6424OM     OM1 6424   6.303   1.041   2.369
 6425OM     OM1 6425   6.070   1.156   2.397
 6426OM     OM1 6426   6.085   0.960   2.233
 6427OM     OM1 6427   6.211   1.196   2.189
 6428OM     OM1 6428   2.649   9.291   9.221
 6429OM     OM1 6429   2.697   9.442   9.025
 6430OM     OM1 6430   8.099   0.343   7.645
 6431OM     OM1 6431   8.209   0.463   7.859
 6432OM     OM1 6432   3.500   0.171   9.045
 6433OM     OM1 6433   3.321   0.169   9.231
 6434OM     OM1 6434   7.800   8.684   8.782
 6435OM     OM1 6435   7.975   8.595   8.949
 6436OM     OM1 6436   7.779   8.748   9.040
 6437OM     OM1 6437   8.236   8.542   8.934
 6438OM     OM1 6438   6.010   9.346   5.174
 6439OM     OM1 6439   5.910   9.227   5.384
 6440OM     OM1 6440   7.077   8.262   2.791
 6441OM     OM1 6441   7.180   8.402   2.991
 6442OM     OM1 6442   6.994   8.503   2.850
 6443OM     OM1 6443   6.199   1.000   8.420
 6444OM     OM1 6444   6.146   0.821   8.612
 6445OM     OM1 6445   6.232   0.750   8.362
 6446OM     OM1 6446   5.995   0.832   8.404
 6447OM     OM1 6447   1.291   1.001   6.391
 6448OM     OM1 6448   1.138   1.207   6.409
 6449OM     OM1 6449   1.400   1.218   6.338
 6450OM     OM1 6450   6.403   0.894   3.130
 6451OM     OM1 6451   6.598   1.069   3.190
 6452OM     OM1 6452   6.386   1.067   3.323
 6453OM     OM1 6453   3.360   8.878   5.849
 6454OM     OM1 6454   3.402   8.839   6.091
 6455OM     OM1 6455   3.612   8.886   5.947
 6456OM     OM1 6456   1.746   0.447   2.325
 6457OM     OM1 6457   1.722   0.486   2.590
 6458OM     OM1 6458   1.523   0.535   2.416
 6459OM     OM1 6459   1.744   0.682   2.427
 6460OM     OM1 6460   4.027   8.712   0.841
 6461OM     OM1 6461   3.894   8.882   0.719
 6462OM     OM1 6462   4.140   8.949   0.813
 6463OM     OM1 6463   4.108   8.802   0.607
 6464OM     OM1 6464   3.160   0.664   2.612
 6465OM     OM1 6465   3.314   0.498   2.453
 6466OM     OM1 6466   3.168   0.420   2.642
 6467OM     OM1 6467   7.694   8.451   3.654
 6468OM     OM1 6468   7.053   9.292   3.151
 6469OM     OM1 6469   6.950   9.069   2.865
 6470OM     OM1 6470   7.135   9.465   2.974
 6471OM     OM1 6471   7.121   9.108   6.432
 6472OM     OM1 6472   6.932   9.227   6.296
 6473OM     OM1 6473   3.706   0.708   7.309
 6474OM     OM1 6474   3.859   0.870   7.432
 6475OM     OM1 6475   3.593   0.894   7.467
 6476OM     OM1 6476   4.991   9.466   2.759
 6477OM     OM1 6477   4.810   9.394   2.921
 6478OM     OM1 6478   4.936   0.016   2.973
 6479OM     OM1 6479   2.833   9.522   6.590
 6480OM     OM1 6480   3.035   1.042   9.530
 6481OM     OM1 6481   3.056   1.058   9.272
 6482OM     OM1 6482   2.922   0.864   9.367
 6483OM     OM1 6483   1.678   9.267   6.531
 6484OM     OM1 6484   1.864   9.277   6.359
 6485OM     OM1 6485   1.916   9.237   6.624
 6486OM     OM1 6486   1.462   1.303   8.415
 6487OM     OM1 6487   1.413   1.085   8.285
 6488OM     OM1 6488   1.643   1.124   8.183
 6489OM     OM1 6489   6.567   8.416   6.605
 6490OM     OM1 6490   5.094   0.989   2.246
 6491OM     OM1 6491   4.854   0.949   2.343
 6492OM     OM1 6492   4.947   1.301   1.998
 6493OM     OM1 6493   7.546   0.812   3.611
 6494OM     OM1 6494   7.503   1.052   3.698
 6495OM     OM1 6495   7.660   0.911   3.836
 6496OM     OM1 6496   7.742   0.993   3.608
 6497OM     OM1 6497   3.451   8.478   8.795
 6498OM     OM1 6498   3.608   8.552   8.993
 6499OM     OM1 6499   3.402   8.703   8.903
 6500OM     OM1 6500   3.367   8.491   9.048
 6501OM     OM1 6501   6.752   8.766   0.855
 6502OM     OM1 6502   6.515   8.838   0.932
 6503OM     OM1 6503   4.922   0.511   9.065
 6504OM     OM1 6504   5.108   0.471   8.890
 6505OM     OM1 6505   7.314   9.433   4.636
 6506OM     OM1 6506   7.554   9.353   4.733
 6507OM     OM1 6507   8.220   8.607   0.381
 6508OM     OM1 6508   0.720   9.099   2.463
 6509OM     OM1 6509   0.830   9.296   2.338
 6510OM     OM1 6510   0.602   9.327   2.459
 6511OM     OM1 6511   0.830   9.305   2.595
 6512OM     OM1 6512   3.980   0.307   8.110
 6513OM     OM1 6513   1.927   0.844   9.318
 6514OM     OM1 6514   2.159   0.971   9.259
 6515OM     OM1 6515   5.134   1.128   6.061
 6516OM     OM1 6516   5.105   0.880   6.048
 6517OM     OM1 6517   2.213   8.357   1.133
 6518OM     OM1 6518   2.100   8.551   1.268
 6519OM     OM1 6519   2.462   8.289   1.110
 6520OM     OM1 6520   6.656   0.132   6.656
 6521OM     OM1 6521   6.786   9.516   6.676
 6522OM     OM1 6522   7.098   1.047   2.387
 6523OM     OM1 6523   7.108   0.924   2.141
 6524OM     OM1 6524   6.906   0.909   2.298
 6525OM     OM1 6525   0.702   8.369   4.673
 6526OM     OM1 6526   6.953   1.157   0.374
 6527OM     OM1 6527   0.813   9.256   5.667
 6528OM     OM1 6528   0.698   9.024   5.631
 6529OM     OM1 6529   0.621   9.172   5.821
 6530OM     OM1 6530   6.646   9.075   5.660
 6531OM     OM1 6531   6.491   9.102   5.860
 6532OM     OM1 6532   6.778   8.538   2.382
 6533OM     OM1 6533   6.869   8.442   2.164
 6534OM     OM1 6534   6.956   8.672   2.234
 6535OM     OM1 6535   7.025   8.461   2.374
 6536OM     OM1 6536   0.219   0.589   1.641
 6537OM     OM1 6537   0.172   0.739   1.426
 6538OM     OM1 6538   8.794   1.301   4.837
 6539OM     OM1 6539   8.849   1.139   4.636
 6540OM     OM1 6540   3.311   9.444   3.162
 6541OM     OM1 6541   3.242   9.195   3.214
 6542OM     OM1 6542   3.501   9.267   3.208
 6543OM     OM1 6543   3.349   9.331   3.402
 6544OM     OM1 6544   0.092   0.668   3.793
 6545OM     OM1 6545   0.061   0.530   3.998
 6546OM     OM1 6546   0.279   0.663   4.010
 6547OM     OM1 6547   4.984   8.581   7.663
 6548OM     OM1 6548   4.776   8.676   7.776
 6549OM     OM1 6549   5.002   8.638   7.919
 6550OM     OM1 6550   5.060   0.110   5.992
 6551OM     OM1 6551   5.175   0.203   6.199
 6552OM     OM1 6552   4.973   0.368   6.182
 6553OM     OM1 6553   3.129   9.440   5.790
 6554OM     OM1 6554   2.974   0.040   5.719
 6555OM     OM1 6555   0.138   0.671   8.667
 6556OM     OM1 6556   6.299   1.029   0.394
 6557OM     OM1 6557   6.116   1.098   0.205
 6558OM     OM1 6558   8.047   1.317   1.047
 6559OM     OM1 6559   7.423   0.803   8.542
 6560OM     OM1 6560   7.466   1.052   8.602
 6561OM     OM1 6561   7.472   0.986   8.349
 6562OM     OM1 6562   7.660   0.905   8.509
 6563OM     OM1 6563   2.076   0.847   3.036
 6564OM     OM1 6564   2.319   0.793   2.951
 6565OM     OM1 6565   2.114   0.685   2.835
 6566OM     OM1 6566   2.532   8.526   3.230
 6567OM     OM1 6567   2.675   8.388   3.053
 6568OM     OM1 6568   2.414   8.330   3.108
 6569OM     OM1 6569   2.429   1.200   1.643
 6570OM     OM1 6570   2.678   1.131   1.722
 6571OM     OM1 6571   6.322   0.861   1.119
 6572OM     OM1 6572   1.445   8.292   7.415
 6573OM     OM1 6573   1.421   8.506   7.253
 6574OM     OM1 6574   1.594   8.347   7.645
 6575OM     OM1 6575   2.548   0.540   9.482
 6576OM     OM1 6576   2.484   0.329   0.019
 6577OM     OM1 6577   2.704   0.452   0.068
 6578OM     OM1 6578   9.542   8.918   5.138
 6579OM     OM1 6579   0.002   9.025   5.362
 6580OM     OM1 6580   0.181   8.923   5.200
 6581OM     OM1 6581   7.918   8.339   8.229
 6582OM     OM1 6582   8.550   8.826   9.160
 6583OM     OM1 6583   8.702   9.019   9.077
 6584OM     OM1 6584   8.766   8.784   9.015
 6585OM     OM1 6585   8.556   8.881   8.903
 6586OM     OM1 6586   4.529   0.193   6.197
 6587OM     OM1 6587   4.726   0.345   6.283
 6588OM     OM1 6588   6.034   0.588   5.553
 6589OM     OM1 6589   6.177   0.792   5.615
 6590OM     OM1 6590   6.014   0.983   5.650
 6591OM     OM1 6591   6.143   0.903   5.860
 6592OM     OM1 6592   2.355   0.738   8.968
 6593OM     OM1 6593   2.361   0.835   8.735
 6594OM     OM1 6594   0.259   1.202   0.641
 6595OM     OM1 6595   0.015   1.214   0.556
 6596OM     OM1 6596   0.177   1.017   0.475
 6597OM     OM1 6597   0.920   0.037   4.356
 6598OM     OM1 6598   0.910   0.049   4.627
 6599OM     OM1 6599   1.030   0.225   4.495
 6600OM     OM1 6600   7.346   1.143   8.822
 6601OM     OM1 6601   7.605   1.141   8.805
 6602OM     OM1 6602   3.611   9.435   1.785
 6603OM     OM1 6603   3.677   0.039   1.660
 6604OM     OM1 6604   3.439   0.029   1.769
 6605OM     OM1 6605   3.500   9.489   1.555
 6606OM     OM1 6606   2.936   0.501   6.830
 6607OM     OM1 6607   2.822   0.573   7.071
 6608OM     OM1 6608   3.737   9.078   1.041
 6609OM     OM1 6609   3.634   9.234   0.850
 6610OM     OM1 6610   3.872   9.145   0.827
 6611OM     OM1 6611   3.676   8.982   0.807
 6612OM     OM1 6612   0.872   0.767   2.603
 6613OM     OM1 6613   0.979   0.928   2.427
 6614OM     OM1 6614   1.072   0.940   2.653
 6615OM     OM1 6615   6.142   1.247   5.687
 6616OM     OM1 6616   6.269   1.033   5.670
 6617OM     OM1 6617   6.215   1.171   5.455
 6618OM     OM1 6618   9.169   0.178   6.846
 6619OM     OM1 6619   9.082   0.233   7.081
 6620OM     OM1 6620   0.730   8.789   0.876
 6621OM     OM1 6621   0.715   8.529   0.926
 6622OM     OM1 6622   0.657   8.930   1.068
 6623OM     OM1 6623   7.179   0.692   7.210
 6624OM     OM1 6624   7.162   0.456   7.336
 6625OM     OM1 6625   7.809   9.010   3.852
 6626OM     OM1 6626   7.917   8.976   4.089
 6627OM     OM1 6627   7.681   8.881   4.045
 6628OM     OM1 6628   7.714   9.137   4.063
 6629OM     OM1 6629   3.784   0.257   3.293
 6630OM     OM1 6630   3.688   0.088   3.135
 6631OM     OM1 6631   3.240   8.696   5.714
 6632OM     OM1 6632   3.311   8.487   5.573
 6633OM     OM1 6633   2.566   8.803   9.236
 6634OM     OM1 6634   2.583   8.773   8.982
 6635OM     OM1 6635   2.479   8.992   9.066
 6636OM     OM1 6636   4.409   1.072   6.697
 6637OM     OM1 6637   4.298   0.926   6.505
 6638OM     OM1 6638   4.254   1.182   6.515
 6639OM     OM1 6639   1.069   8.290   6.732
 6640OM     OM1 6640   4.362   1.026   3.542
 6641OM     OM1 6641   4.245   1.057   3.306
 6642OM     OM1 6642   4.288   1.267   3.469
 6643OM     OM1 6643   1.265   8.306   6.037
 6644OM     OM1 6644   4.899   8.449   0.020
 6645OM     OM1 6645   5.129   8.518   0.116
 6646OM     OM1 6646   4.971   8.339   0.243
 6647OM     OM1 6647   6.171   1.085   9.559
 6648OM     OM1 6648   4.616   8.435   1.519
 6649OM     OM1 6649   4.384   8.375   1.602
 6650OM     OM1 6650   4.583   8.311   1.756
 6651OM     OM1 6651   2.518   0.436   2.812
 6652OM     OM1 6652   2.630   0.320   2.601
 6653OM     OM1 6653   2.376   0.377   2.601
 6654OM     OM1 6654   2.473   0.189   2.756
 6655OM     OM1 6655   3.288   8.575   2.950
 6656OM     OM1 6656   3.265   8.664   2.704
 6657OM     OM1 6657   3.324   8.824   2.910
 6658OM     OM1 6658   1.522   8.272   5.324
 6659OM     OM1 6659   6.724   0.111   2.132
 6660OM     OM1 6660   6.518   0.184   2.287
 6661OM     OM1 6661   6.691   0.353   2.203
 6662OM     OM1 6662   5.188   0.266   3.305
 6663OM     OM1 6663   5.184   0.546   3.327
 6664OM     OM1 6664   7.093   8.261   2.531
 6665OM     OM1 6665   7.242   8.475   2.507
 6666OM     OM1 6666   3.493   8.338   6.272
 6667OM     OM1 6667   3.444   8.596   6.200
 6668OM     OM1 6668   2.730   9.134   1.601
 6669OM     OM1 6669   2.945   9.275   1.648
 6670OM     OM1 6670   2.913   9.044   1.762
 6671OM     OM1 6671   1.675   0.554   2.834
 6672OM     OM1 6672   1.920   0.519   2.769
 6673OM     OM1 6673   1.034   0.681   5.244
 6674OM     OM1 6674   1.236   0.824   5.298
 6675OM     OM1 6675   1.106   0.857   5.064
 6676OM     OM1 6676   8.643   0.305   4.534
 6677OM     OM1 6677   8.618   0.294   4.267
 6678OM     OM1 6678   8.786   0.138   4.410
 6679OM     OM1 6679   3.238   8.649   6.680
 6680OM     OM1 6680   3.488   8.671   6.637
 6681OM     OM1 6681   3.313   8.860   6.557
 6682OM     OM1 6682   3.378   8.832   6.806
 6683OM     OM1 6683   3.742   0.912   3.526
 6684OM     OM1 6684   0.871   9.456   8.969
 6685OM     OM1 6685   7.690   8.974   3.615
 6686OM     OM1 6686   7.608   9.097   3.412
 6687OM     OM1 6687   0.365   9.334   0.127
 6688OM     OM1 6688   4.529   9.411   7.877
 6689OM     OM1 6689   4.363   9.258   7.744
 6690OM     OM1 6690   4.388   9.241   8.009
 6691OM     OM1 6691   9.058   1.120   9.479
 6692OM     OM1 6692   8.935   0.957   9.324
 6693OM     OM1 6693   9.000   0.891   9.579
 6694OM     OM1 6694   8.799   1.042   9.513
 6695OM     OM1 6695   2.404   0.998   4.751
 6696OM     OM1 6696   2.535   0.823   4.605
 6697OM     OM1 6697   2.289   0.907   4.531
 6698OM     OM1 6698   2.495   1.063   4.515
 6699OM     OM1 6699   1.166   0.508   0.813
 6700OM     OM1 6700   0.911   0.447   0.803
 6701OM     OM1 6701   1.021   0.559   1.020
 6702OM     OM1 6702   0.977   0.697   0.810
 6703OM     OM1 6703   3.293   0.062   7.373
 6704OM     OM1 6704   3.338   0.213   7.579
 6705OM     OM1 6705   3.437   0.962   2.199
 6706OM     OM1 6706   3.215   0.823   2.194
 6707OM     OM1 6707   3.185   0.519   4.509
 6708OM     OM1 6708   3.087   0.618   4.286
 6709OM     OM1 6709   0.677   1.094   3.190
 6710OM     OM1 6710   0.562   1.022   2.979
 6711OM     OM1 6711   7.353   9.356   2.386
 6712OM     OM1 6712   9.210   8.962   2.314
 6713OM     OM1 6713   9.046   9.116   2.445
 6714OM     OM1 6714   9.002   9.082   2.196
 6715OM     OM1 6715   9.212   9.223   2.265
 6716OM     OM1 6716   7.453   0.060   3.632
 6717OM     OM1 6717   6.501   0.456   0.385
 6718OM     OM1 6718   6.727   0.586   0.377
 6719OM     OM1 6719   6.594   0.554   0.157
 6720OM     OM1 6720   6.716   0.352   0.274
 6721OM     OM1 6721   4.889   8.412   4.776
 6722OM     OM1 6722   4.692   8.411   4.957
 6723OM     OM1 6723   4.682   8.559   4.734
 6724OM     OM1 6724   2.524   0.675   8.610
 6725OM     OM1 6725   7.325   8.386   7.492
 6726OM     OM1 6726   3.095   8.375   7.778
 6727OM     OM1 6727   4.684   9.321   6.074
 6728OM     OM1 6728   4.812   9.420   5.872
 6729OM     OM1 6729   2.742   0.582   1.566
 6730OM     OM1 6730   2.599   0.704   1.373
 6731OM     OM1 6731   2.833   0.616   1.326
 6732OM     OM1 6732   3.320   0.866   0.948
 6733OM     OM1 6733   3.155   1.074   0.921
 6734OM     OM1 6734   6.894   8.443   6.057
 6735OM     OM1 6735   7.096   8.344   5.904
 6736OM     OM1 6736   3.877   0.988   8.796
 6737OM     OM1 6737   4.082   1.292   9.079
 6738OM     OM1 6738   8.267   0.167   1.220
 6739OM     OM1 6739   8.516   0.166   1.286
 6740OM     OM1 6740   8.420   9.548   1.212
 6741OM     OM1 6741   1.566   1.296   5.925
 6742OM     OM1 6742   1.507   1.125   6.120
 6743OM     OM1 6743   3.147   0.740   7.430
 6744OM     OM1 6744   3.374   0.827   7.347
 6745OM     OM1 6745   3.297   0.581   7.281
 6746OM     OM1 6746   7.162   1.184   2.601
 6747OM     OM1 6747   7.242   0.920   2.555
 6748OM     OM1 6748   1.774   0.818   6.968
 6749OM     OM1 6749   1.735   0.760   6.728
 6750OM     OM1 6750   1.751   1.010   6.789
 6751OM     OM1 6751   1.535   0.888   6.863
 6752OM     OM1 6752   0.099   0.326   5.154
 6753OM     OM1 6753   0.082   0.585   5.213
 6754OM     OM1 6754   0.135   0.409   5.399
 6755OM     OM1 6755   9.507   0.407   5.295
 6756OM     OM1 6756   8.383   1.146   4.462
 6757OM     OM1 6757   8.636   1.125   4.480
 6758OM     OM1 6758   6.551   0.909   7.751
 6759OM     OM1 6759   6.997   1.030   9.452
 6760OM     OM1 6760   6.849   0.828   9.425
 6761OM     OM1 6761   6.989   0.849   0.043
 6762OM     OM1 6762   1.582   9.243   7.138
 6763OM     OM1 6763   1.490   9.124   6.915
 6764OM     OM1 6764   1.382   9.449   7.009
 6765OM     OM1 6765   1.851   8.801   3.668
 6766OM     OM1 6766   2.304   8.869   3.750
 6767OM     OM1 6767   2.073   8.909   3.643
 6768OM     OM1 6768   3.619   0.831   4.550
 6769OM     OM1 6769   3.419   0.638   4.545
 6770OM     OM1 6770   3.634   0.598   4.672
 6771OM     OM1 6771   1.762   8.928   6.813
 6772OM     OM1 6772   1.619   8.716   6.816
 6773OM     OM1 6773   1.516   8.946   6.735
 6774OM     OM1 6774   2.216   0.622   7.096
 6775OM     OM1 6775   2.044   0.800   7.006
 6776OM     OM1 6776   2.254   0.760   6.865
 6777OM     OM1 6777   1.407   0.184   5.776
 6778OM     OM1 6778   1.694   0.054   5.864
 6779OM     OM1 6779   1.515   0.014   5.603
 6780OM     OM1 6780   5.161   9.149   6.520
 6781OM     OM1 6781   5.214   8.942   6.378
 6782OM     OM1 6782   5.066   8.994   6.173
 6783OM     OM1 6783   1.089   1.176   1.986
 6784OM     OM1 6784   1.286   1.178   1.818
 6785OM     OM1 6785   0.860   0.238   9.269
 6786OM     OM1 6786   0.599   0.314   9.433
 6787OM     OM1 6787   0.985   0.359   9.489
 6788OM     OM1 6788   7.790   0.161   9.146
 6789OM     OM1 6789   7.647   0.334   9.272
 6790OM     OM1 6790   7.598   0.292   9.019
 6791OM     OM1 6791   8.042   0.350   7.037
 6792OM     OM1 6792   7.865   0.150   6.981
 6793OM     OM1 6793   8.037   0.219   6.811
 6794OM     OM1 6794   2.472   0.573   0.409
 6795OM     OM1 6795   2.519   0.998   0.360
 6796OM     OM1 6796   1.365   0.237   1.519
 6797OM     OM1 6797   1.257   0.328   1.728
 6798OM     OM1 6798   1.472   0.578   6.870
 6799OM     OM1 6799   1.679   0.423   6.801
 6800OM     OM1 6800   1.619   0.452   7.048
 6801OM     OM1 6801   4.124   9.062   6.616
 6802OM     OM1 6802   4.216   8.947   6.835
 6803OM     OM1 6803   4.167   9.204   6.826
 6804OM     OM1 6804   5.450   8.950   8.567
 6805OM     OM1 6805   5.457   9.118   8.780
 6806OM     OM1 6806   5.661   9.076   8.639
 6807OM     OM1 6807   9.143   0.353   4.479
 6808OM     OM1 6808   9.260   0.421   4.709
 6809OM     OM1 6809   9.060   0.248   4.695
 6810OM     OM1 6810   6.215   8.444   9.466
 6811OM     OM1 6811   1.677   0.618   1.357
 6812OM     OM1 6812   2.233   8.645   5.118
 6813OM     OM1 6813   2.039   8.568   7.791
 6814OM     OM1 6814   2.145   8.700   7.591
 6815OM     OM1 6815   5.263   9.394   0.694
 6816OM     OM1 6816   5.099   9.569   0.590
 6817OM     OM1 6817   6.740   9.466   0.130
 6818OM     OM1 6818   6.973   9.340   0.092
 6819OM     OM1 6819   5.475   0.152   5.851
 6820OM     OM1 6820   5.417   9.503   5.851
 6821OM     OM1 6821   5.559   0.002   6.050
 6822OM     OM1 6822   5.304   0.045   6.034
 6823OM     OM1 6823   5.558   8.476   9.052
 6824OM     OM1 6824   5.510   8.450   8.802
 6825OM     OM1 6825   1.384   8.370   5.529
 6826OM     OM1 6826   1.196   8.541   5.529
 6827OM     OM1 6827   1.157   8.309   5.638
 6828OM     OM1 6828   6.750   9.366   3.626
 6829OM     OM1 6829   6.615   9.513   3.470
 6830OM     OM1 6830   6.639   9.270   3.407
 6831OM     OM1 6831   0.636   9.164   3.441
 6832OM     OM1 6832   0.885   9.176   3.340
 6833OM     OM1 6833   6.327   9.018   0.978
 6834OM     OM1 6834   6.450   8.896   1.170
 6835OM     OM1 6835   3.632   1.235   1.660
 6836OM     OM1 6836   3.981   1.343   1.568
 6837OM     OM1 6837   3.840   1.131   1.586
 6838OM     OM1 6838   3.316   0.932   0.214
 6839OM     OM1 6839   3.449   0.726   0.295
 6840OM     OM1 6840   6.537   9.340   4.870
 6841OM     OM1 6841   4.143   8.743   6.700
 6842OM     OM1 6842   4.374   8.743   6.800
 6843OM     OM1 6843   9.045   8.418   3.357
 6844OM     OM1 6844   9.156   8.526   3.567
 6845OM     OM1 6845   2.523   0.498   5.076
 6846OM     OM1 6846   2.402   0.516   5.314
 6847OM     OM1 6847   2.280   0.422   5.110
 6848OM     OM1 6848   2.489   0.292   5.224
 6849OM     OM1 6849   6.857   0.053   7.447
 6850OM     OM1 6850   6.979   0.269   7.372
 6851OM     OM1 6851   6.721   0.227   7.302
 6852OM     OM1 6852   9.183   0.839   1.834
 6853OM     OM1 6853   9.008   0.637   1.815
 6854OM     OM1 6854   8.493   1.334   3.820
 6855OM     OM1 6855   8.580   1.097   3.741
 6856OM     OM1 6856   4.816   0.105   1.751
 6857OM     OM1 6857   5.017   0.239   1.855
 6858OM     OM1 6858   4.798   0.238   1.978
 6859OM     OM1 6859   4.818   0.367   1.744
 6860OM     OM1 6860   3.358   9.559   6.202
 6861OM     OM1 6861   3.841   9.589   6.097
 6862OM     OM1 6862   3.516   9.375   6.312
 6863OM     OM1 6863   4.789   0.257   4.893
 6864OM     OM1 6864   9.122   9.102   1.091
 6865OM     OM1 6865   9.215   9.019   1.324
 6866OM     OM1 6866   9.366   9.171   1.177
 6867OM     OM1 6867   7.782   0.793   8.704
 6868OM     OM1 6868   7.788   1.156   8.998
 6869OM     OM1 6869   7.758   0.913   8.931
 6870OM     OM1 6870   1.196   0.443   3.295
 6871OM     OM1 6871   1.230   0.359   3.026
 6872OM     OM1 6872   9.006   9.138   3.295
 6873OM     OM1 6873   9.154   9.004   3.463
 6874OM     OM1 6874   9.130   8.927   3.214
 6875OM     OM1 6875   2.328   0.005   4.455
 6876OM     OM1 6876   2.278   9.380   4.577
 6877OM     OM1 6877   2.165   0.010   4.656
 6878OM     OM1 6878   3.657   9.210   1.878
 6879OM     OM1 6879   3.543   9.093   2.069
 6880OM     OM1 6880   7.007   8.783   8.749
 6881OM     OM1 6881   6.837   8.806   8.550
 6882OM     OM1 6882   7.092   8.874   8.516
 6883OM     OM1 6883   0.307   0.811   3.719
 6884OM     OM1 6884   0.168   0.673   3.550
 6885OM     OM1 6885   4.691   9.293   3.530
 6886OM     OM1 6886   4.449   9.215   3.507
 6887OM     OM1 6887   2.392   0.506   6.638
 6888OM     OM1 6888   9.278   0.354   9.273
 6889OM     OM1 6889   9.578   8.371   6.697
 6890OM     OM1 6890   0.169   8.524   6.829
 6891OM     OM1 6891   2.698   0.986   7.306
 6892OM     OM1 6892   2.570   1.203   7.382
 6893OM     OM1 6893   1.418   0.767   2.420
 6894OM     OM1 6894   1.227   0.890   2.311
 6895OM     OM1 6895   5.018   9.520   0.082
 6896OM     OM1 6896   5.217   0.054   0.156
 6897OM     OM1 6897   5.146   0.307   0.147
 6898OM     OM1 6898   5.049   9.570   0.337
 6899OM     OM1 6899   0.515   8.256   1.212
 6900OM     OM1 6900   0.438   8.485   1.115
 6901OM     OM1 6901   2.755   1.319   8.350
 6902OM     OM1 6902   6.592   0.079   1.232
 6903OM     OM1 6903   6.734   9.492   1.327
 6904OM     OM1 6904   6.478   9.508   1.387
 6905OM     OM1 6905   1.794   9.386   8.454
 6906OM     OM1 6906   3.920   8.736   1.327
 6907OM     OM1 6907   3.719   8.600   1.435
 6908OM     OM1 6908   3.784   8.831   1.524
 6909OM     OM1 6909   3.941   8.628   1.571
 6910OM     OM1 6910   2.166   0.899   4.294
 6911OM     OM1 6911   3.562   8.670   7.750
 6912OM     OM1 6912   3.424   8.502   7.908
 6913OM     OM1 6913   5.444   8.404   7.621
 6914OM     OM1 6914   5.383   8.601   7.473
 6915OM     OM1 6915   5.514   8.409   7.351
 6916OM     OM1 6916   1.713   8.568   3.709
 6917OM     OM1 6917   1.656   8.419   3.919
 6918OM     OM1 6918   5.167   9.419   2.575
 6919OM     OM1 6919   4.919   9.329   2.550
 6920OM     OM1 6920   5.090   9.229   2.731
 6921OM     OM1 6921   1.875   8.284   6.207
 6922OM     OM1 6922   0.042   8.711   7.988
 6923OM     OM1 6923   0.269   8.696   7.846
 6924OM     OM1 6924   0.380   8.464   7.812
 6925OM     OM1 6925   0.578   9.457   0.148
 6926OM     OM1 6926   6.284   8.367   0.909
 6927OM     OM1 6927   4.230   1.093   2.444
 6928OM     OM1 6928   4.428   1.089   2.277
 6929OM     OM1 6929   4.204   0.962   2.214
 6930OM     OM1 6930   7.070   9.534   8.791
 6931OM     OM1 6931   3.786   8.342   5.174
 6932OM     OM1 6932   3.571   8.322   5.322
 6933OM     OM1 6933   0.396   9.111   3.549
 6934OM     OM1 6934   0.556   8.918   3.459
 6935OM     OM1 6935   1.710   8.726   8.134
 6936OM     OM1 6936   1.579   8.600   8.327
 6937OM     OM1 6937   1.826   8.692   8.356
 6938OM     OM1 6938   3.143   8.473   3.136
 6939OM     OM1 6939   3.296   8.319   2.968
 6940OM     OM1 6940   3.418   8.466   3.140
 6941OM     OM1 6941   0.064   0.061   5.627
 6942OM     OM1 6942   9.452   9.567   5.535
 6943OM     OM1 6943   9.511   0.204   5.461
 6944OM     OM1 6944   2.183   9.327   7.954
 6945OM     OM1 6945   2.067   9.277   7.737
 6946OM     OM1 6946   0.778   0.856   3.249
 6947OM     OM1 6947   0.827   0.619   3.356
 6948OM     OM1 6948   7.524   8.843   9.486
 6949OM     OM1 6949   7.669   8.752   9.287
 6950OM     OM1 6950   7.665   8.615   9.514
 6951OM     OM1 6951   9.306   0.975   7.288
 6952OM     OM1 6952   9.441   0.882   7.094
 6953OM     OM1 6953   9.249   0.732   7.205
 6954OM     OM1 6954   9.473   0.764   7.325
 6955OM     OM1 6955   9.538   0.470   6.617
 6956OM     OM1 6956   9.362   0.319   6.745
 6957OM     OM1 6957   9.368   0.567   6.784
 6958OM     OM1 6958   6.626   0.270   8.988
 6959OM     OM1 6959   6.601   9.558   9.098
 6960OM     OM1 6960   0.373   1.078   5.503
 6961OM     OM1 6961   0.214   8.360   6.645
 6962OM     OM1 6962   6.623   0.339   1.224
 6963OM     OM1 6963   6.800   0.393   1.047
 6964OM     OM1 6964   6.677   0.504   0.850
 6965OM     OM1 6965   5.453   9.388   3.423
 6966OM     OM1 6966   5.656   9.189   3.807
 6967OM     OM1 6967   5.606   9.369   3.629
 6968OM     OM1 6968   8.756   1.094   2.510
 6969OM     OM1 6969   8.878   0.914   2.366
 6970OM     OM1 6970   6.345   0.068   6.515
 6971OM     OM1 6971   6.302   9.586   6.111
 6972OM     OM1 6972   2.934   0.450   8.395
 6973OM     OM1 6973   2.695   0.495   8.315
 6974OM     OM1 6974   2.761   0.570   8.555
 6975OM     OM1 6975   3.349   8.837   8.442
 6976OM     OM1 6976   3.125   8.943   8.394
 6977OM     OM1 6977   3.325   9.048   8.269
 6978OM     OM1 6978   6.700   8.361   7.691
 6979OM     OM1 6979   8.465   0.603   1.237
 6980OM     OM1 6980   8.266   0.659   1.070
 6981OM     OM1 6981   8.330   0.411   1.140
 6982OM     OM1 6982   0.870   9.504   5.692
 6983OM     OM1 6983   1.064   9.325   5.664
 6984OM     OM1 6984   9.334   0.040   5.004
 6985OM     OM1 6985   9.325   9.480   5.210
 6986OM     OM1 6986   9.105   9.581   5.104
 6987OM     OM1 6987   6.868   8.459   5.363
 6988OM     OM1 6988   6.930   8.335   5.581
 6989OM     OM1 6989   8.480   0.219   4.725
 6990OM     OM1 6990   8.644   0.419   4.773
 6991OM     OM1 6991   1.077   8.815   7.454
 6992OM     OM1 6992   0.894   8.716   7.305
 6993OM     OM1 6993   9.096   0.219   8.195
 6994OM     OM1 6994   9.364   0.194   8.181
 6995OM     OM1 6995   3.028   9.419   4.825
 6996OM     OM1 6996   3.132   0.048   4.914
 6997OM     OM1 6997   9.248   1.258   9.360
 6998OM     OM1 6998   7.305   0.891   0.285
 6999OM     OM1 6999   7.189   0.708   0.149
 7000OM     OM1 7000   0.735   0.913   1.490
 7001OM     OM1 7001   9.160   8.475   2.527
 7002OM     OM1 7002   9.222   0.328   3.342
 7003OM     OM1 7003   7.192   0.436   9.172
 7004OM     OM1 7004   6.948   0.503   9.120
 7005OM     OM1 7005   7.079   0.383   8.933
 7006OM     OM1 7006   3.278   0.675   1.126
 7007OM     OM1 7007   2.034   0.988   5.614
 7008OM     OM1 7008   2.067   1.246   5.607
 7009OM     OM1 7009   2.064   1.111   5.383
 7010OM     OM1 7010   3.703   9.043   2.511
 7011OM     OM1 7011   3.698   8.981   2.261
 7012OM     OM1 7012   3.883   8.892   2.432
 7013OM     OM1 7013   7.107   0.269   2.110
 7014OM     OM1 7014   6.937   0.390   2.273
 7015OM     OM1 7015   6.950   0.134   2.259
 7016OM     OM1 7016   7.150   0.265   2.373
 7017OM     OM1 7017   7.105   9.235   5.675
 7018OM     OM1 7018   6.860   9.202   5.751
 7019OM     OM1 7019   5.936   1.159   8.918
 7020OM     OM1 7020   6.081   1.259   9.117
 7021OM     OM1 7021   8.212   0.754   7.089
 7022OM     OM1 7022   8.224   0.508   7.166
 7023OM     OM1 7023   8.398   0.711   7.257
 7024OM     OM1 7024   2.050   0.592   3.967
 7025OM     OM1 7025   2.138   0.837   4.045
 7026OM     OM1 7026   2.199   0.625   4.174
 7027OM     OM1 7027   1.953   0.710   4.171
 7028OM     OM1 7028   2.154   0.602   6.577
 7029OM     OM1 7029   2.092   0.793   6.400
 7030OM     OM1 7030   2.237   0.841   6.615
 7031OM     OM1 7031   1.986   0.779   6.649
 7032OM     OM1 7032   3.224   0.121   4.147
 7033OM     OM1 7033   3.146   0.356   4.113
 7034OM     OM1 7034   3.026   0.224   4.292
 7035OM     OM1 7035   5.283   8.541   3.408
 7036OM     OM1 7036   5.215   8.377   3.598
 7037OM     OM1 7037   5.247   8.293   3.335
 7038OM     OM1 7038   8.741   9.025   8.579
 7039OM     OM1 7039   8.937   9.051   8.417
 7040OM     OM1 7040   8.902   8.835   8.560
 7041OM     OM1 7041   8.975   9.045   8.690
 7042OM     OM1 7042   3.197   8.914   4.835
 7043OM     OM1 7043   3.280   8.988   4.596
 7044OM     OM1 7044   3.792   8.916   5.053
 7045OM     OM1 7045   3.851   8.737   4.863
 7046OM     OM1 7046   4.006   8.939   4.917
 7047OM     OM1 7047   5.904   9.315   3.196
 7048OM     OM1 7048   6.127   9.429   3.119
 7049OM     OM1 7049   6.052   9.186   3.037
 7050OM     OM1 7050   6.131   9.230   3.284
 7051OM     OM1 7051   7.718   9.461   1.068
 7052OM     OM1 7052   2.508   8.370   0.589
 7053OM     OM1 7053   4.911   0.498   4.154
 7054OM     OM1 7054   5.040   0.337   4.006
 7055OM     OM1 7055   0.737   0.898   3.934
 7056OM     OM1 7056   8.867   0.072   4.649
 7057OM     OM1 7057   8.671   9.534   4.522
 7058OM     OM1 7058   5.566   0.251   2.316
 7059OM     OM1 7059   5.652   0.023   2.384
 7060OM     OM1 7060   5.647   0.215   2.565
 7061OM     OM1 7061   3.345   1.014   4.050
 7062OM     OM1 7062   3.573   0.915   4.033
 7063OM     OM1 7063   3.324   0.971   4.313
 7064OM     OM1 7064   3.539   1.174   4.097
 7065OM     OM1 7065   8.240   8.359   1.664
 7066OM     OM1 7066   8.032   8.221   1.626
 7067OM     OM1 7067   5.540   8.685   3.925
 7068OM     OM1 7068   5.556   8.728   3.660
 7069OM     OM1 7069   5.570   8.927   3.818
 7070OM     OM1 7070   5.341   8.786   3.792
 7071OM     OM1 7071   9.311   8.648   5.408
 7072OM     OM1 7072   9.473   8.670   5.204
 7073OM     OM1 7073   9.442   8.442   5.339
 7074OM     OM1 7074   2.324   0.549   3.579
 7075OM     OM1 7075   2.282   0.800   3.603
 7076OM     OM1 7076   2.116   0.632   3.721
 7077OM     OM1 7077   7.664   9.043   7.575
 7078OM     OM1 7078   7.469   8.934   7.712
 7079OM     OM1 7079   0.455   9.564   4.716
 7080OM     OM1 7080   0.705   9.531   4.704
 7081OM     OM1 7081   0.565   9.486   4.495
 7082OM     OM1 7082   0.928   9.526   4.848
 7083OM     OM1 7083   7.663   8.853   5.528
 7084OM     OM1 7084   7.843   9.023   5.563
 7085OM     OM1 7085   5.086   0.880   0.562
 7086OM     OM1 7086   5.053   0.945   0.812
 7087OM     OM1 7087   2.727   9.443   4.035
 7088OM     OM1 7088   2.519   9.505   3.911
 7089OM     OM1 7089   2.618   0.078   4.079
 7090OM     OM1 7090   2.572   8.907   4.650
 7091OM     OM1 7091   2.687   9.091   5.069
 7092OM     OM1 7092   2.745   9.014   4.819
 7093OM     OM1 7093   2.813   8.837   4.629
 7094OM     OM1 7094   2.361   8.358   1.348
 7095OM     OM1 7095   3.893   0.716   5.211
 7096OM     OM1 7096   3.901   0.821   4.970
 7097OM     OM1 7097   4.082   0.884   5.149
 7098OM     OM1 7098   1.338   8.435   5.274
 7099OM     OM1 7099   6.469   8.400   9.490
 7100OM     OM1 7100   6.383   8.647   9.445
 7101OM     OM1 7101   5.342   8.953   4.361
 7102OM     OM1 7102   5.149   8.965   4.529
 7103OM     OM1 7103   4.710   9.182   1.986
 7104OM     OM1 7104   4.963   9.176   2.024
 7105OM     OM1 7105   4.925   8.922   5.982
 7106OM     OM1 7106   4.762   8.744   5.875
 7107OM     OM1 7107   4.744   8.809   6.127
 7108OM     OM1 7108   8.807   8.706   1.156
 7109OM     OM1 7109   8.588   8.573   1.139
 7110OM     OM1 7110   8.647   8.747   0.959
 7111OM     OM1 7111   8.583   8.830   1.209
 7112OM     OM1 7112   7.171   1.149   3.043
 7113OM     OM1 7113   6.988   1.333   3.073
 7114OM     OM1 7114   7.074   1.263   2.837
 7115OM     OM1 7115   1.968   9.564   7.249
 7116OM     OM1 7116   1.971   9.326   7.359
 7117OM     OM1 7117   2.194   9.449   7.287
 7118OM     OM1 7118   1.474   0.039   8.204
 7119OM     OM1 7119   1.505   0.289   8.283
 7120OM     OM1 7120   1.613   0.106   8.418
 7121OM     OM1 7121   7.228   0.314   9.403
 7122OM     OM1 7122   7.049   0.176   9.542
 7123OM     OM1 7123   7.299   0.089   9.513
 7124OM     OM1 7124   1.015   0.905   9.561
 7125OM     OM1 7125   1.248   0.908   0.076
 7126OM     OM1 7126   0.786   1.031   9.549
 7127OM     OM1 7127   1.400   1.067   7.551
 7128OM     OM1 7128   1.529   0.841   7.544
 7129OM     OM1 7129   1.335   0.861   7.716
 7130OM     OM1 7130   1.560   0.995   7.743
 7131OM     OM1 7131   4.909   8.804   7.323
 7132OM     OM1 7132   4.852   8.651   7.124
 7133OM     OM1 7133   8.472   0.888   8.110
 7134OM     OM1 7134   8.273   0.957   8.247
 7135OM     OM1 7135   2.370   8.739   8.671
 7136OM     OM1 7136   2.173   8.590   8.588
 7137OM     OM1 7137   2.227   8.809   8.462
 7138OM     OM1 7138   3.938   8.821   6.572
 7139OM     OM1 7139   3.711   8.882   6.470
 7140OM     OM1 7140   3.737   8.692   6.646
 7141OM     OM1 7141   6.785   8.292   0.543
 7142OM     OM1 7142   6.637   8.305   0.322
 7143OM     OM1 7143   1.167   0.932   6.589
 7144OM     OM1 7144   1.023   0.880   6.983
 7145OM     OM1 7145   0.908   0.959   6.532
 7146OM     OM1 7146   3.804   8.722   6.280
 7147OM     OM1 7147   3.847   8.607   6.049
 7148OM     OM1 7148   4.030   8.582   6.245
 7149OM     OM1 7149   5.133   0.626   7.690
 7150OM     OM1 7150   5.220   0.865   7.648
 7151OM     OM1 7151   5.318   0.722   7.850
 7152OM     OM1 7152   6.065   0.486   2.719
 7153OM     OM1 7153   6.985   1.187   0.637
 7154OM     OM1 7154   7.152   1.270   0.826
 7155OM     OM1 7155   2.720   0.231   5.345
 7156OM     OM1 7156   2.895   0.192   5.529
 7157OM     OM1 7157   2.995   0.226   5.296
 7158OM     OM1 7158   7.578   8.660   1.412
 7159OM     OM1 7159   7.701   8.458   1.290
 7160OM     OM1 7160   7.444   8.521   1.242
 7161OM     OM1 7161   7.649   8.678   1.165
 7162OM     OM1 7162   1.829   0.618   6.534
 7163OM     OM1 7163   1.897   0.554   6.769
 7164OM     OM1 7164   2.719   0.661   8.796
 7165OM     OM1 7165   2.949   0.618   8.918
 7166OM     OM1 7166   2.744   0.685   9.057
 7167OM     OM1 7167   7.119   0.426   0.634
 7168OM     OM1 7168   7.394   1.089   4.490
 7169OM     OM1 7169   7.446   1.096   4.234
 7170OM     OM1 7170   7.589   1.228   4.403
 7171OM     OM1 7171   7.279   8.420   6.966
 7172OM     OM1 7172   4.333   9.060   6.138
 7173OM     OM1 7173   4.271   9.060   5.884
 7174OM     OM1 7174   4.087   9.065   6.068
 7175OM     OM1 7175   7.006   9.167   5.060
 7176OM     OM1 7176   7.082   8.917   5.009
 7177OM     OM1 7177   6.904   9.048   4.861
 7178OM     OM1 7178   7.830   0.360   4.561
 7179OM     OM1 7179   7.960   0.172   4.457
 7180OM     OM1 7180   3.737   8.283   2.647
 7181OM     OM1 7181   5.407   1.043   8.527
 7182OM     OM1 7182   5.409   1.061   8.267
 7183OM     OM1 7183   0.506   9.493   2.276
 7184OM     OM1 7184   2.371   1.120   9.358
 7185OM     OM1 7185   2.591   1.034   9.454
 7186OM     OM1 7186   5.388   9.004   8.032
 7187OM     OM1 7187   5.210   8.806   7.963
 7188OM     OM1 7188   5.430   8.861   7.828
 7189OM     OM1 7189   5.440   8.761   8.074
 7190OM     OM1 7190   8.394   9.073   3.494
 7191OM     OM1 7191   8.223   8.988   3.294
 7192OM     OM1 7192   8.137   9.108   3.497
 7193OM     OM1 7193   8.243   8.874   3.536
 7194OM     OM1 7194   3.737   1.084   5.949
 7195OM     OM1 7195   3.546   1.029   6.107
 7196OM     OM1 7196   3.547   9.266   6.559
 7197OM     OM1 7197   3.745   9.421   6.568
 7198OM     OM1 7198   4.296   8.339   6.974
 7199OM     OM1 7199   5.539   8.611   1.305
 7200OM     OM1 7200   5.342   8.450   1.383
 7201OM     OM1 7201   3.029   9.154   7.799
 7202OM     OM1 7202   2.932   9.349   7.950
 7203OM     OM1 7203   6.270   0.759   8.830
 7204OM     OM1 7204   6.093   0.962   8.825
 7205OM     OM1 7205   2.413   0.602   1.227
 7206OM     OM1 7206   2.380   0.354   1.318
 7207OM     OM1 7207   5.866   9.221   4.714
 7208OM     OM1 7208   5.966   8.988   4.753
 7209OM     OM1 7209   2.680   8.371   6.902
 7210OM     OM1 7210   7.180   9.485   9.603
 7211OM     OM1 7211   7.442   9.472   9.559
 7212OM     OM1 7212   7.258   9.482   9.366
 7213OM     OM1 7213   1.584   9.480   3.819
 7214OM     OM1 7214   5.952   0.038   3.840
 7215OM     OM1 7215   6.225   0.113   3.836
 7216OM     OM1 7216   6.054   9.419   3.883
 7217OM     OM1 7217   5.638   1.281   2.952
 7218OM     OM1 7218   6.072   8.467   5.784
 7219OM     OM1 7219   5.861   8.420   5.656
 7220OM     OM1 7220   5.841   8.492   5.910
 7221OM     OM1 7221   5.899   8.669   5.737
 7222OM     OM1 7222   1.183   1.097   0.242
 7223OM     OM1 7223   1.176   1.289   0.407
 7224OM     OM1 7224   2.484   8.624   6.030
 7225OM     OM1 7225   2.666   8.693   5.857
 7226OM     OM1 7226   2.920   8.638   5.837
 7227OM     OM1 7227   1.015   0.255   1.664
 7228OM     OM1 7228   1.356   0.786   8.074
 7229OM     OM1 7229   1.127   0.920   7.985
 7230OM     OM1 7230   1.111   0.734   8.144
 7231OM     OM1 7231   1.201   0.703   7.887
 7232OM     OM1 7232   7.597   8.542   2.608
 7233OM     OM1 7233   7.596   8.807   2.594
 7234OM     OM1 7234   7.379   8.667   2.631
 7235OM     OM1 7235   2.898   9.428   1.325
 7236OM     OM1 7236   3.030   9.525   1.136
 7237OM     OM1 7237   3.057   0.296   1.321
 7238OM     OM1 7238   7.398   0.759   2.399
 7239OM     OM1 7239   7.371   0.699   2.648
 7240OM     OM1 7240   0.764   9.183   1.779
 7241OM     OM1 7241   0.570   9.341   1.756
 7242OM     OM1 7242   0.334   9.442   1.807
 7243OM     OM1 7243   7.065   8.882   2.119
 7244OM     OM1 7244   6.851   8.775   2.025
 7245OM     OM1 7245   4.701   0.975   9.112
 7246OM     OM1 7246   4.694   0.858   8.888
 7247OM     OM1 7247   3.102   8.607   4.304
 7248OM     OM1 7248   2.868   8.519   4.354
 7249OM     OM1 7249   2.991   8.657   4.537
 7250OM     OM1 7250   3.080   8.415   4.478
 7251OM     OM1 7251   1.975   8.757   1.174
 7252OM     OM1 7252   1.845   8.963   1.111
 7253OM     OM1 7253   8.328   8.725   3.743
 7254OM     OM1 7254   1.052   0.941   0.844
 7255OM     OM1 7255   9.593   8.595   9.360
 7256OM     OM1 7256   9.440   8.753   9.488
 7257OM     OM1 7257   6.425   1.284   2.067
 7258OM     OM1 7258   2.216   8.920   0.110
 7259OM     OM1 7259   2.263   9.179   0.096
 7260OM     OM1 7260   9.513   8.845   4.097
 7261OM     OM1 7261   9.464   9.062   3.977
 7262OM     OM1 7262   4.951   8.424   5.388
 7263OM     OM1 7263   4.821   8.337   5.182
 7264OM     OM1 7264   5.070   8.399   5.150
 7265OM     OM1 7265   7.423   0.420   5.530
 7266OM     OM1 7266   7.393   0.631   5.389
 7267OM     OM1 7267   2.299   8.553   4.260
 7268OM     OM1 7268   0.038   1.315   8.923
 7269OM     OM1 7269   6.637   0.571   2.571
 7270OM     OM1 7270   6.504   0.382   2.462
 7271OM     OM1 7271   7.999   9.148   5.383
 7272OM     OM1 7272   8.099   9.001   5.192
 7273OM     OM1 7273   8.140   9.249   5.181
 7274OM     OM1 7274   8.247   9.113   5.386
 7275OM     OM1 7275   9.012   0.143   1.303
 7276OM     OM1 7276   9.239   0.073   1.216
 7277OM     OM1 7277   8.108   0.739   0.881
 7278OM     OM1 7278   7.941   1.176   0.843
 7279OM     OM1 7279   8.049   0.959   0.762
 7280OM     OM1 7280   7.789   0.967   0.802
 7281OM     OM1 7281   1.124   9.139   9.031
 7282OM     OM1 7282   1.180   9.371   8.921
 7283OM     OM1 7283   1.059   9.467   9.401
 7284OM     OM1 7284   0.123   1.099   9.038
 7285OM     OM1 7285   0.287   1.295   8.970
 7286OM     OM1 7286   0.106   1.329   9.169
 7287OM     OM1 7287   1.321   1.321   0.634
 7288OM     OM1 7288   1.188   1.426   0.829
 7289OM     OM1 7289   4.506   8.706   0.020
 7290OM     OM1 7290   4.395   8.820   9.415
 7291OM     OM1 7291   4.440   8.491   9.495
 7292OM     OM1 7292   8.927   9.395   3.678
 7293OM     OM1 7293   8.703   9.375   3.784
 7294OM     OM1 7294   8.846   9.582   3.862
 7295OM     OM1 7295   5.472   0.325   0.406
 7296OM     OM1 7296   5.544   0.459   0.620
 7297OM     OM1 7297   5.291   0.425   0.566
 7298OM     OM1 7298   4.334   9.571   7.356
 7299OM     OM1 7299   4.142   0.118   7.444
 7300OM     OM1 7300   4.222   0.166   7.206
 7301OM     OM1 7301   5.292   8.292   1.587
 7302OM     OM1 7302   5.151   8.170   1.770
 7303OM     OM1 7303   0.512   8.925   2.096
 7304OM     OM1 7304   0.570   9.002   1.851
 7305OM     OM1 7305   0.345   9.076   1.948
 7306OM     OM1 7306   0.633   9.238   4.579
 7307OM     OM1 7307   0.616   8.996   4.695
 7308OM     OM1 7308   0.804   9.039   4.523
 7309OM     OM1 7309   5.428   8.326   2.367
 7310OM     OM1 7310   5.292   8.340   2.588
 7311OM     OM1 7311   5.553   8.255   2.583
 7312OM     OM1 7312   5.490   8.499   2.561
 7313OM     OM1 7313   5.560   0.729   7.951
 7314OM     OM1 7314   5.469   0.512   7.853
 7315OM     OM1 7315   6.102   0.691   7.643
 7316OM     OM1 7316   6.329   0.763   7.764
 7317OM     OM1 7317   3.178   0.969   9.061
 7318OM     OM1 7318   3.299   0.776   8.924
 7319OM     OM1 7319   0.596   0.788   4.369
 7320OM     OM1 7320   0.404   0.785   4.188
 7321OM     OM1 7321   5.803   8.957   1.529
 7322OM     OM1 7322   5.581   9.022   1.434
 7323OM     OM1 7323   0.405   0.746   6.981
 7324OM     OM1 7324   0.253   0.539   7.042
 7325OM     OM1 7325   0.535   0.604   6.806
 7326OM     OM1 7326   7.742   9.229   4.306
 7327OM     OM1 7327   7.590   9.123   4.638
 7328OM     OM1 7328   7.753   9.298   4.564
 7329OM     OM1 7329   1.039   0.120   9.413
 7330OM     OM1 7330   5.471   0.059   1.902
 7331OM     OM1 7331   4.126   8.846   1.206
 7332OM     OM1 7332   3.895   8.973   1.217
 7333OM     OM1 7333   3.913   8.762   1.065
 7334OM     OM1 7334   6.996   8.788   7.629
 7335OM     OM1 7335   7.160   8.655   7.489
 7336OM     OM1 7336   7.116   8.584   7.750
 7337OM     OM1 7337   7.259   8.784   7.685
 7338OM     OM1 7338   3.105   9.171   2.329
 7339OM     OM1 7339   3.294   8.984   2.303
 7340OM     OM1 7340   3.076   8.957   2.174
 7341OM     OM1 7341   4.948   8.352   3.147
 7342OM     OM1 7342   4.760   8.308   3.319
 7343OM     OM1 7343   4.768   8.334   3.576
 7344OM     OM1 7344   4.818   8.540   3.423
 7345OM     OM1 7345   8.286   0.825   6.844
 7346OM     OM1 7346   8.146   0.653   6.725
 7347OM     OM1 7347   8.405   0.623   6.741
 7348OM     OM1 7348   0.213   1.002   9.255
 7349OM     OM1 7349   0.092   0.829   9.096
 7350OM     OM1 7350   0.315   0.925   9.024
 7351OM     OM1 7351   4.610   9.236   1.668
 7352OM     OM1 7352   4.663   9.262   1.429
 7353OM     OM1 7353   4.515   9.052   1.498
 7354OM     OM1 7354   2.788   0.230   7.931
 7355OM     OM1 7355   2.974   0.411   7.974
 7356OM     OM1 7356   2.724   0.438   8.064
 7357OM     OM1 7357   1.590   9.443   7.321
 7358OM     OM1 7358   1.213   9.546   7.187
 7359OM     OM1 7359   1.368   9.338   7.240
 7360OM     OM1 7360   4.233   0.254   8.062
 7361OM     OM1 7361   4.453   0.410   8.047
 7362OM     OM1 7362   4.220   0.488   7.958
 7363OM     OM1 7363   1.514   1.367   8.660
 7364OM     OM1 7364   1.318   1.204   8.676
 7365OM     OM1 7365   1.452   1.236   8.884
 7366OM     OM1 7366   0.392   0.405   5.437
 7367OM     OM1 7367   5.253   9.093   2.515
 7368OM     OM1 7368   5.244   8.806   2.869
 7369OM     OM1 7369   0.137   8.390   9.116
 7370OM     OM1 7370   2.670   9.541   3.106
 7371OM     OM1 7371   2.364   9.485   3.344
 7372OM     OM1 7372   2.468   0.043   2.970
 7373OM     OM1 7373   0.614   0.436   9.209
 7374OM     OM1 7374   0.810   0.772   9.465
 7375OM     OM1 7375   8.882   8.524   5.877
 7376OM     OM1 7376   9.083   8.389   5.981
 7377OM     OM1 7377   0.879   0.409   8.292
 7378OM     OM1 7378   0.952   0.157   8.313
 7379OM     OM1 7379   0.975   0.284   8.082
 7380OM     OM1 7380   0.739   0.225   8.176
 7381OM     OM1 7381   6.770   0.515   5.312
 7382OM     OM1 7382   6.587   0.338   5.300
 7383OM     OM1 7383   6.310   0.795   8.121
 7384OM     OM1 7384   2.225   9.377   3.142
 7385OM     OM1 7385   2.268   9.277   2.898
 7386OM     OM1 7386   2.149   9.138   3.082
 7387OM     OM1 7387   2.031   9.340   2.963
 7388OM     OM1 7388   1.463   9.318   8.591
 7389OM     OM1 7389   1.673   9.225   8.735
 7390OM     OM1 7390   8.301   0.321   7.015
 7391OM     OM1 7391   8.176   0.256   7.238
 7392OM     OM1 7392   0.980   8.772   3.304
 7393OM     OM1 7393   1.072   8.826   3.071
 7394OM     OM1 7394   0.849   8.843   5.527
 7395OM     OM1 7395   0.954   8.953   5.320
 7396OM     OM1 7396   1.038   8.713   5.399
 7397OM     OM1 7397   5.617   0.463   2.169
 7398OM     OM1 7398   5.602   0.534   1.921
 7399OM     OM1 7399   9.085   8.350   0.494
 7400OM     OM1 7400   8.877   8.504   0.547
 7401OM     OM1 7401   7.456   9.227   3.804
 7402OM     OM1 7402   7.541   9.302   3.558
 7403OM     OM1 7403   7.578   9.455   3.753
 7404OM     OM1 7404   7.701   9.210   3.732
 7405OM     OM1 7405   5.321   9.388   8.128
 7406OM     OM1 7406   5.542   9.404   8.267
 7407OM     OM1 7407   5.309   9.357   8.372
 7408OM     OM1 7408   2.839   1.064   0.478
 7409OM     OM1 7409   2.984   0.813   0.141
 7410OM     OM1 7410   2.861   0.802   0.522
 7411OM     OM1 7411   0.993   9.469   0.403
 7412OM     OM1 7412   1.238   9.381   0.467
 7413OM     OM1 7413   1.135   9.576   0.593
 7414OM     OM1 7414   8.130   0.664   3.304
 7415OM     OM1 7415   7.080   9.060   8.138
 7416OM     OM1 7416   6.836   8.990   8.195
 7417OM     OM1 7417   8.462   8.526   3.643
 7418OM     OM1 7418   3.537   0.510   6.662
 7419OM     OM1 7419   3.749   0.515   6.792
 7420OM     OM1 7420   3.537   0.445   6.920
 7421OM     OM1 7421   7.287   9.371   5.556
 7422OM     OM1 7422   7.412   9.603   5.542
 7423OM     OM1 7423   3.064   9.191   5.724
 7424OM     OM1 7424   3.009   0.683   9.535
 7425OM     OM1 7425   3.226   0.791   0.026
 7426OM     OM1 7426   3.112   0.592   0.157
 7427OM     OM1 7427   1.307   8.382   6.752
 7428OM     OM1 7428   1.112   8.499   6.880
 7429OM     OM1 7429   1.140   8.521   6.619
 7430OM     OM1 7430   2.806   8.589   4.700
 7431OM     OM1 7431   3.176   8.667   4.941
 7432OM     OM1 7432   2.995   8.755   4.784
 7433OM     OM1 7433   5.724   1.262   7.457
 7434OM     OM1 7434   8.578   0.511   6.222
 7435OM     OM1 7435   8.569   0.582   6.479
 7436OM     OM1 7436   8.554   0.752   6.289
 7437OM     OM1 7437   5.514   9.580   4.690
 7438OM     OM1 7438   5.611   9.548   4.926
 7439OM     OM1 7439   5.474   0.162   4.859
 7440OM     OM1 7440   5.040   8.401   2.668
 7441OM     OM1 7441   5.090   8.338   2.424
 7442OM     OM1 7442   5.225   1.099   8.698
 7443OM     OM1 7443   0.603   9.322   6.248
 7444OM     OM1 7444   0.366   9.432   6.236
 7445OM     OM1 7445   0.567   9.559   6.359
 7446OM     OM1 7446   2.202   8.680   3.598
 7447OM     OM1 7447   3.039   8.765   2.636
 7448OM     OM1 7448   3.244   8.794   2.477
 7449OM     OM1 7449   3.299   8.304   8.071
 7450OM     OM1 7450   3.241   8.553   8.083
 7451OM     OM1 7451   8.903   9.362   9.376
 7452OM     OM1 7452   8.782   8.946   9.499
 7453OM     OM1 7453   8.832   9.088   9.299
 7454OM     OM1 7454   2.952   0.800   2.168
 7455OM     OM1 7455   3.114   0.707   1.983
 7456OM     OM1 7456   3.076   0.970   2.026
 7457OM     OM1 7457   5.078   1.247   4.011
 7458OM     OM1 7458   4.990   1.008   4.048
 7459OM     OM1 7459   0.236   8.638   1.158
 7460OM     OM1 7460   0.104   8.604   1.382
 7461OM     OM1 7461   9.592   8.720   1.195
 7462OM     OM1 7462   5.598   0.592   0.841
 7463OM     OM1 7463   5.570   0.785   1.021
 7464OM     OM1 7464   6.634   8.752   2.175
 7465OM     OM1 7465   6.588   8.706   2.424
 7466OM     OM1 7466   6.381   8.760   2.276
 7467OM     OM1 7467   0.417   9.440   0.355
 7468OM     OM1 7468   0.516   9.214   0.295
 7469OM     OM1 7469   6.019   0.723   8.831
 7470OM     OM1 7470   7.866   8.327   1.449
 7471OM     OM1 7471   1.577   9.094   1.039
 7472OM     OM1 7472   2.169   1.274   6.820
 7473OM     OM1 7473   7.763   9.093   5.319
 7474OM     OM1 7474   0.980   8.569   0.501
 7475OM     OM1 7475   1.084   8.753   0.640
 7476OM     OM1 7476   1.087   8.531   0.747
 7477OM     OM1 7477   0.851   8.626   0.725
 7478OM     OM1 7478   8.384   0.402   8.032
 7479OM     OM1 7479   0.586   0.127   4.196
 7480OM     OM1 7480   0.547   0.063   3.935
 7481OM     OM1 7481   1.163   0.662   5.926
 7482OM     OM1 7482   1.020   0.792   5.760
 7483OM     OM1 7483   0.898   0.600   5.870
 7484OM     OM1 7484   4.359   0.437   4.525
 7485OM     OM1 7485   3.012   8.449   2.039
 7486OM     OM1 7486   2.940   8.490   1.790
 7487OM     OM1 7487   2.139   8.853   6.620
 7488OM     OM1 7488   2.060   8.615   6.589
 7489OM     OM1 7489   2.184   8.745   6.392
 7490OM     OM1 7490   9.257   8.351   0.686
 7491OM     OM1 7491   9.258   8.606   0.625
 7492OM     OM1 7492   9.218   8.529   0.874
 7493OM     OM1 7493   3.284   1.276   8.786
 7494OM     OM1 7494   3.261   1.032   8.682
 7495OM     OM1 7495   1.375   0.781   6.502
 7496OM     OM1 7496   1.131   0.779   6.401
 7497OM     OM1 7497   6.845   0.988   4.859
 7498OM     OM1 7498   3.171   9.595   9.605
 7499OM     OM1 7499   3.195   0.161   0.208
 7500OM     OM1 7500   3.392   0.004   0.142
 7501OM     OM1 7501   3.167   9.510   0.242
 7502OM     OM1 7502   5.951   9.315   2.570
 7503OM     OM1 7503   6.196   9.314   2.678
 7504OM     OM1 7504   5.991   9.300   2.820
 7505OM     OM1 7505   9.564   8.821   7.524
 7506OM     OM1 7506   0.070   8.828   7.749
 7507OM     OM1 7507   6.016   8.816   7.379
 7508OM     OM1 7508   6.229   8.689   7.442
 7509OM     OM1 7509   6.307   8.473   7.314
 7510OM     OM1 7510   4.153   1.436   7.857
 7511OM     OM1 7511   6.424   0.661   3.219
 7512OM     OM1 7512   6.277   0.723   2.993
 7513OM     OM1 7513   8.502   0.727   5.017
 7514OM     OM1 7514   8.313   0.588   4.901
 7515OM     OM1 7515   8.338   1.056   4.918
 7516OM     OM1 7516   8.365   0.808   6.137
 7517OM     OM1 7517   8.567   0.982   6.160
 7518OM     OM1 7518   3.122   0.132   9.393
 7519OM     OM1 7519   3.164   0.382   9.292
 7520OM     OM1 7520   4.584   9.356   6.497
 7521OM     OM1 7521   4.444   9.217   6.323
 7522OM     OM1 7522   4.207   9.098   6.359
 7523OM     OM1 7523   7.189   8.799   0.646
 7524OM     OM1 7524   6.970   8.694   0.723
 7525OM     OM1 7525   7.154   8.543   0.600
 7526OM     OM1 7526   6.048   9.517   6.163
 7527OM     OM1 7527   6.120   9.584   5.917
 7528OM     OM1 7528   6.628   8.369   8.126
 7529OM     OM1 7529   6.715   8.385   8.374
 7530OM     OM1 7530   8.664   9.465   5.229
 7531OM     OM1 7531   8.475   9.474   5.424
 7532OM     OM1 7532   8.612   0.076   5.349
 7533OM     OM1 7533   5.788   0.960   8.460
 7534OM     OM1 7534   5.934   1.074   8.657
 7535OM     OM1 7535   0.016   0.479   2.733
 7536OM     OM1 7536   3.205   9.285   8.246
 7537OM     OM1 7537   3.462   9.264   8.228
 7538OM     OM1 7538   8.360   0.060   4.891
 7539OM     OM1 7539   6.973   0.916   4.623
 7540OM     OM1 7540   6.889   0.737   4.763
 7541OM     OM1 7541   5.692   9.408   3.325
 7542OM     OM1 7542   5.497   9.521   3.204
 7543OM     OM1 7543   5.513   9.261   3.203
 7544OM     OM1 7544   7.178   9.055   9.359
 7545OM     OM1 7545   2.548   0.914   2.988
 7546OM     OM1 7546   2.793   0.903   3.061
 7547OM     OM1 7547   9.389   8.646   3.614
 7548OM     OM1 7548   3.777   0.442   6.292
 7549OM     OM1 7549   3.832   0.528   6.537
 7550OM     OM1 7550   3.937   0.646   6.333
 7551OM     OM1 7551   8.300   8.317   5.141
 7552OM     OM1 7552   8.348   8.551   5.060
 7553OM     OM1 7553   1.444   9.412   6.525
 7554OM     OM1 7554   1.418   9.522   6.757
 7555OM     OM1 7555   6.396   8.929   8.693
 7556OM     OM1 7556   0.690   0.746   5.843
 7557OM     OM1 7557   0.794   0.624   5.633
 7558OM     OM1 7558   0.658   0.489   5.802
 7559OM     OM1 7559   5.908   8.338   3.835
 7560OM     OM1 7560   1.027   0.545   4.898
 7561OM     OM1 7561   0.959   0.464   5.148
 7562OM     OM1 7562   0.910   0.323   4.940
 7563OM     OM1 7563   1.159   0.358   5.016
 7564OM     OM1 7564   9.514   0.241   7.641
 7565OM     OM1 7565   0.058   0.200   7.846
 7566OM     OM1 7566   7.657   0.098   3.777
 7567OM     OM1 7567   1.660   0.982   7.370
 7568OM     OM1 7568   1.545   1.183   7.250
 7569OM     OM1 7569   1.709   0.725   7.380
 7570OM     OM1 7570   6.341   9.321   9.402
 7571OM     OM1 7571   6.087   9.389   9.394
 7572OM     OM1 7572   5.985   9.156   9.430
 7573OM     OM1 7573   1.534   0.834   4.714
 7574OM     OM1 7574   1.535   0.581   4.753
 7575OM     OM1 7575   1.762   0.685   4.696
 7576OM     OM1 7576   8.888   9.095   1.556
 7577OM     OM1 7577   8.754   9.194   1.358
 7578OM     OM1 7578   4.398   0.537   3.092
 7579OM     OM1 7579   1.936   8.537   9.280
 7580OM     OM1 7580   1.816   8.381   9.117
 7581OM     OM1 7581   1.990   8.546   9.019
 7582OM     OM1 7582   2.627   8.715   8.725
 7583OM     OM1 7583   2.528   9.232   1.471
 7584OM     OM1 7584   0.414   0.566   5.840
 7585OM     OM1 7585   0.173   0.566   5.919
 7586OM     OM1 7586   5.532   8.601   8.256
 7587OM     OM1 7587   5.413   8.834   8.329
 7588OM     OM1 7588   4.762   9.461   1.673
 7589OM     OM1 7589   4.507   9.474   1.641
 7590OM     OM1 7590   4.600   9.388   1.870
 7591OM     OM1 7591   8.114   9.493   5.133
 7592OM     OM1 7592   8.229   9.547   5.373
 7593OM     OM1 7593   8.342   9.601   5.147
 7594OM     OM1 7594   7.789   8.677   7.269
 7595OM     OM1 7595   7.624   8.867   7.199
 7596OM     OM1 7596   7.713   8.665   7.030
 7597OM     OM1 7597   5.207   8.454   6.696
 7598OM     OM1 7598   4.946   8.408   6.599
 7599OM     OM1 7599   2.540   0.651   2.974
 7600OM     OM1 7600   2.710   0.445   2.987
 7601OM     OM1 7601   7.396   0.528   6.687
 7602OM     OM1 7602   7.425   0.400   6.919
 7603OM     OM1 7603   4.098   8.877   3.192
 7604OM     OM1 7604   4.297   8.731   3.515
 7605OM     OM1 7605   4.289   8.703   3.252
 7606OM     OM1 7606   4.092   8.641   3.388
 7607OM     OM1 7607   9.243   9.078   6.870
 7608OM     OM1 7608   3.008   8.958   0.334
 7609OM     OM1 7609   3.247   8.932   0.422
 7610OM     OM1 7610   7.315   0.741   6.783
 7611OM     OM1 7611   1.540   1.106   4.359
 7612OM     OM1 7612   3.081   0.773   3.486
 7613OM     OM1 7613   3.102   1.024   3.360
 7614OM     OM1 7614   3.330   1.129   3.323
 7615OM     OM1 7615   3.594   8.804   7.083
 7616OM     OM1 7616   3.460   8.847   7.306
 7617OM     OM1 7617   3.347   8.863   7.062
 7618OM     OM1 7618   3.510   8.686   3.233
 7619OM     OM1 7619   3.382   8.893   3.160
 7620OM     OM1 7620   3.358   8.815   3.408
 7621OM     OM1 7621   7.801   0.560   0.258
 7622OM     OM1 7622   7.648   0.759   0.278
 7623OM     OM1 7623   7.772   0.653   0.499
 7624OM     OM1 7624   2.656   8.195   0.961
 7625OM     OM1 7625   2.876   8.279   0.839
 7626OM     OM1 7626   2.788   8.395   1.058
 7627OM     OM1 7627   2.933   8.298   6.888
 7628OM     OM1 7628   2.818   8.383   6.677
 7629OM     OM1 7629   4.818   9.164   2.379
 7630OM     OM1 7630   4.776   9.056   2.612
 7631OM     OM1 7631   4.787   8.891   2.418
 7632OM     OM1 7632   2.701   8.814   4.302
 7633OM     OM1 7633   2.461   8.744   4.204
 7634OM     OM1 7634   2.513   8.740   4.462
 7635OM     OM1 7635   2.625   8.570   4.291
 7636OM     OM1 7636   6.244   1.253   6.618
 7637OM     OM1 7637   7.482   1.099   7.284
 7638OM     OM1 7638   7.683   1.169   7.143
 7639OM     OM1 7639   7.721   1.103   7.406
 7640OM     OM1 7640   5.464   0.742   1.972
 7641OM     OM1 7641   5.719   0.769   1.926
 7642OM     OM1 7642   2.325   9.493   0.941
 7643OM     OM1 7643   2.128   9.380   0.797
 7644OM     OM1 7644   7.762   8.672   5.145
 7645OM     OM1 7645   7.802   8.781   4.913
 7646OM     OM1 7646   7.627   8.701   4.744
 7647OM     OM1 7647   8.037   9.572   3.525
 7648OM     OM1 7648   8.250   9.567   3.672
 7649OM     OM1 7649   5.567   0.374   2.768
 7650OM     OM1 7650   5.557   0.593   2.918
 7651OM     OM1 7651   7.971   0.080   2.015
 7652OM     OM1 7652   7.995   9.461   2.144
 7653OM     OM1 7653   7.968   0.075   2.280
 7654OM     OM1 7654   6.941   0.535   3.318
 7655OM     OM1 7655   0.706   9.173   4.155
 7656OM     OM1 7656   0.362   8.888   3.960
 7657OM     OM1 7657   1.318   8.476   1.260
 7658OM     OM1 7658   1.240   8.675   0.913
 7659OM     OM1 7659   8.303   8.761   0.812
 7660OM     OM1 7660   8.061   8.815   0.904
 7661OM     OM1 7661   0.887   8.311   7.673
 7662OM     OM1 7662   0.637   8.370   7.609
 7663OM     OM1 7663   1.122   8.328   7.783
 7664OM     OM1 7664   8.811   1.266   1.045
 7665OM     OM1 7665   1.779   8.481   7.787
 7666OM     OM1 7666   1.843   8.290   7.636
 7667OM     OM1 7667   5.166   8.756   1.727
 7668OM     OM1 7668   0.471   8.750   1.094
 7669OM     OM1 7669   0.260   8.795   0.844
 7670OM     OM1 7670   3.766   0.747   5.430
 7671OM     OM1 7671   3.329   0.783   5.502
 7672OM     OM1 7672   3.461   0.717   5.299
 7673OM     OM1 7673   3.961   8.745   3.595
 7674OM     OM1 7674   0.076   9.313   2.378
 7675OM     OM1 7675   9.350   9.246   5.334
 7676OM     OM1 7676   9.338   9.331   5.574
 7677OM     OM1 7677   9.415   9.086   5.527
 7678OM     OM1 7678   3.018   8.842   6.955
 7679OM     OM1 7679   3.073   8.596   6.866
 7680OM     OM1 7680   2.959   8.616   7.092
 7681OM     OM1 7681   3.202   0.796   6.502
 7682OM     OM1 7682   3.123   0.615   6.682
 7683OM     OM1 7683   2.175   0.074   9.562
 7684OM     OM1 7684   2.423   9.592   9.586
 7685OM     OM1 7685   2.229   9.438   0.054
 7686OM     OM1 7686   7.165   8.309   8.775
 7687OM     OM1 7687   7.118   8.388   9.487
 7688OM     OM1 7688   7.285   8.491   0.047
 7689OM     OM1 7689   6.386   0.418   2.986
 7690OM     OM1 7690   6.647   0.435   2.928
 7691OM     OM1 7691   2.520   0.632   4.774
 7692OM     OM1 7692   2.742   0.764   4.766
 7693OM     OM1 7693   6.673   9.120   8.040
 7694OM     OM1 7694   6.359   9.154   8.230
 7695OM     OM1 7695   6.607   9.107   8.289
 7696OM     OM1 7696   6.497   9.317   8.399
 7697OM     OM1 7697   8.072   9.114   6.544
 7698OM     OM1 7698   7.862   9.234   6.451
 7699OM     OM1 7699   8.095   9.182   6.805
 7700OM     OM1 7700   7.903   0.243   3.174
 7701OM     OM1 7701   8.081   0.155   2.989
 7702OM     OM1 7702   0.816   0.239   4.240
 7703OM     OM1 7703   0.619   0.304   4.393
 7704OM     OM1 7704   5.154   0.316   3.776
 7705OM     OM1 7705   4.923   0.440   3.797
 7706OM     OM1 7706   9.405   8.821   0.668
 7707OM     OM1 7707   9.326   8.757   0.425
 7708OM     OM1 7708   6.248   1.255   8.347
 7709OM     OM1 7709   6.307   1.043   8.187
 7710OM     OM1 7710   6.068   1.109   8.231
 7711OM     OM1 7711   5.385   8.368   7.886
 7712OM     OM1 7712   5.226   8.384   8.096
 7713OM     OM1 7713   0.286   0.893   3.270
 7714OM     OM1 7714   0.369   1.134   3.341
 7715OM     OM1 7715   6.298   0.540   3.640
 7716OM     OM1 7716   6.297   0.443   3.877
 7717OM     OM1 7717   6.252   0.696   3.846
 7718OM     OM1 7718   3.894   9.200   3.942
 7719OM     OM1 7719   3.696   9.356   3.878
 7720OM     OM1 7720   3.885   9.314   3.704
 7721OM     OM1 7721   9.370   8.767   0.153
 7722OM     OM1 7722   6.602   9.447   2.503
 7723OM     OM1 7723   6.769   9.574   2.341
 7724OM     OM1 7724   6.867   9.443   2.540
 7725OM     OM1 7725   6.733   0.057   2.582
 7726OM     OM1 7726   8.692   1.041   1.059
 7727OM     OM1 7727   8.455   1.000   1.152
 7728OM     OM1 7728   8.614   0.805   1.071
 7729OM     OM1 7729   4.401   1.040   1.213
 7730OM     OM1 7730   4.166   1.118   1.152
 7731OM     OM1 7731   9.514   0.445   9.306
 7732OM     OM1 7732   9.008   1.340   7.548
 7733OM     OM1 7733   9.210   1.208   7.630
 7734OM     OM1 7734   9.148   1.178   7.377
 7735OM     OM1 7735   6.353   0.465   1.401
 7736OM     OM1 7736   6.404   0.229   1.320
 7737OM     OM1 7737   6.512   0.317   1.540
 7738OM     OM1 7738   6.909   0.395   0.804
 7739OM     OM1 7739   6.877   0.290   1.264
 7740OM     OM1 7740   6.703   0.243   0.860
 7741OM     OM1 7741   3.664   8.668   2.225
 7742OM     OM1 7742   3.472   8.601   2.062
 7743OM     OM1 7743   3.419   8.753   2.284
 7744OM     OM1 7744   3.554   8.844   2.088
 7745OM     OM1 7745   4.478   9.336   5.220
 7746OM     OM1 7746   3.564   0.313   1.339
 7747OM     OM1 7747   3.731   0.485   1.430
 7748OM     OM1 7748   3.474   0.458   1.535
 7749OM     OM1 7749   3.664   0.282   1.573
 7750OM     OM1 7750   2.314   9.587   2.766
 7751OM     OM1 7751   2.379   9.348   2.678
 7752OM     OM1 7752   4.382   0.478   1.900
 7753OM     OM1 7753   4.574   0.353   1.790
 7754OM     OM1 7754   4.481   0.287   2.036
 7755OM     OM1 7755   9.199   0.811   5.508
 7756OM     OM1 7756   9.449   0.904   5.537
 7757OM     OM1 7757   9.269   0.910   5.728
 7758OM     OM1 7758   5.297   0.830   7.104
 7759OM     OM1 7759   5.132   0.965   7.416
 7760OM     OM1 7760   7.426   0.451   9.279
 7761OM     OM1 7761   7.696   0.180   9.560
 7762OM     OM1 7762   1.116   1.107   8.805
 7763OM     OM1 7763   1.081   1.263   8.600
 7764OM     OM1 7764   0.903   1.004   8.717
 7765OM     OM1 7765   8.880   8.760   0.594
 7766OM     OM1 7766   8.877   8.756   0.206
 7767OM     OM1 7767   9.133   8.780   0.265
 7768OM     OM1 7768   5.292   9.287   2.349
 7769OM     OM1 7769   6.335   8.395   4.897
 7770OM     OM1 7770   6.317   8.231   5.112
 7771OM     OM1 7771   3.893   1.238   0.872
 7772OM     OM1 7772   3.831   1.276   0.627
 7773OM     OM1 7773   3.852   1.035   0.712
 7774OM     OM1 7774   9.003   0.665   7.125
 7775OM     OM1 7775   9.154   0.443   6.814
 7776OM     OM1 7776   9.211   0.651   6.969
 7777OM     OM1 7777   8.144   0.735   6.017
 7778OM     OM1 7778   2.361   0.495   8.855
 7779OM     OM1 7779   2.519   0.555   9.052
 7780OM     OM1 7780   7.964   9.307   4.413
 7781OM     OM1 7781   7.773   9.230   4.817
 7782OM     OM1 7782   7.853   9.075   4.489
 7783OM     OM1 7783   1.212   1.223   8.386
 7784OM     OM1 7784   0.946   0.996   8.152
 7785OM     OM1 7785   0.964   1.159   8.371
 7786OM     OM1 7786   7.368   0.907   4.076
 7787OM     OM1 7787   7.626   0.949   4.092
 7788OM     OM1 7788   8.993   8.404   0.944
 7789OM     OM1 7789   9.019   8.654   1.010
 7790OM     OM1 7790   9.000   8.587   0.760
 7791OM     OM1 7791   2.827   0.214   2.725
 7792OM     OM1 7792   8.570   9.104   9.276
 7793OM     OM1 7793   9.005   9.432   4.917
 7794OM     OM1 7794   8.994   0.076   4.884
 7795OM     OM1 7795   8.844   9.580   5.069
 7796OM     OM1 7796   1.496   0.478   5.541
 7797OM     OM1 7797   1.734   0.521   5.469
 7798OM     OM1 7798   5.451   9.213   7.898
 7799OM     OM1 7799   5.559   9.187   8.140
 7800OM     OM1 7800   8.875   1.249   3.177
 7801OM     OM1 7801   9.497   0.748   5.134
 7802OM     OM1 7802   0.044   0.640   4.965
 7803OM     OM1 7803   7.825   0.589   4.415
 7804OM     OM1 7804   6.621   0.597   4.787
 7805OM     OM1 7805   8.412   1.450   9.197
 7806OM     OM1 7806   8.360   1.326   8.981
 7807OM     OM1 7807   8.308   8.285   4.543
 7808OM     OM1 7808   2.568   9.333   0.653
 7809OM     OM1 7809   2.586   9.175   0.439
 7810OM     OM1 7810   2.489   9.084   0.664
 7811OM     OM1 7811   2.353   9.258   0.525
 7812OM     OM1 7812   1.332   1.259   4.354
 7813OM     OM1 7813   1.409   1.383   4.568
 7814OM     OM1 7814   0.079   8.913   1.351
 7815OM     OM1 7815   0.299   8.836   1.469
 7816OM     OM1 7816   2.343   8.761   8.075
 7817OM     OM1 7817   2.187   8.902   8.221
 7818OM     OM1 7818   4.091   1.311   6.370
 7819OM     OM1 7819   3.929   1.106   6.359
 7820OM     OM1 7820   5.339   0.204   3.623
 7821OM     OM1 7821   2.219   9.391   3.872
 7822OM     OM1 7822   2.175   9.184   4.039
 7823OM     OM1 7823   0.134   9.578   7.906
 7824OM     OM1 7824   0.229   0.092   7.685
 7825OM     OM1 7825   0.309   0.168   7.927
 7826OM     OM1 7826   0.374   0.371   2.729
 7827OM     OM1 7827   0.466   0.278   2.491
 7828OM     OM1 7828   7.893   0.321   0.206
 7829OM     OM1 7829   7.885   0.086   0.099
 7830OM     OM1 7830   2.186   8.879   3.129
 7831OM     OM1 7831   2.214   9.056   3.319
 7832OM     OM1 7832   5.808   0.823   2.901
 7833OM     OM1 7833   5.764   0.638   3.069
 7834OM     OM1 7834   4.368   1.124   5.412
 7835OM     OM1 7835   4.205   1.194   5.608
 7836OM     OM1 7836   4.464   1.192   5.649
 7837OM     OM1 7837   6.225   9.216   6.850
 7838OM     OM1 7838   6.347   9.445   6.865
 7839OM     OM1 7839   4.231   9.147   5.636
 7840OM     OM1 7840   4.041   0.008   0.722
 7841OM     OM1 7841   4.049   0.245   0.831
 7842OM     OM1 7842   6.469   8.293   0.120
 7843OM     OM1 7843   0.947   8.280   7.329
 7844OM     OM1 7844   0.679   8.346   7.361
 7845OM     OM1 7845   0.845   8.476   7.207
 7846OM     OM1 7846   9.568   1.006   1.062
 7847OM     OM1 7847   0.134   0.853   1.189
 7848OM     OM1 7848   9.561   0.864   1.378
 7849OM     OM1 7849   0.186   1.000   1.391
 7850OM     OM1 7850   0.126   8.706   4.098
 7851OM     OM1 7851   0.023   8.345   4.148
 7852OM     OM1 7852   0.117   8.482   3.955
 7853OM     OM1 7853   6.839   0.214   7.084
 7854OM     OM1 7854   3.866   0.885   7.681
 7855OM     OM1 7855   4.033   0.940   7.858
 7856OM     OM1 7856   1.751   0.591   6.287
 7857OM     OM1 7857   1.576   0.614   6.481
 7858OM     OM1 7858   1.724   0.820   6.416
 7859OM     OM1 7859   5.136   1.326   3.174
 7860OM     OM1 7860   4.958   8.333   7.692
 7861OM     OM1 7861   5.203   8.456   7.719
 7862OM     OM1 7862   0.630   1.139   9.383
 7863OM     OM1 7863   0.635   1.269   9.152
 7864OM     OM1 7864   0.431   1.129   9.233
 7865OM     OM1 7865   2.180   0.802   0.614
 7866OM     OM1 7866   2.309   0.606   0.739
 7867OM     OM1 7867   2.065   0.577   0.644
 7868OM     OM1 7868   2.117   0.728   0.859
 7869OM     OM1 7869   3.119   8.910   7.761
 7870OM     OM1 7870   3.138   9.099   7.569
 7871OM     OM1 7871   4.681   9.233   4.521
 7872OM     OM1 7872   4.705   9.243   4.779
 7873OM     OM1 7873   8.439   8.686   6.178
 7874OM     OM1 7874   8.614   8.523   6.271
 7875OM     OM1 7875   9.401   0.812   7.778
 7876OM     OM1 7876   9.399   0.904   8.029
 7877OM     OM1 7877   9.309   1.053   7.830
 7878OM     OM1 7878   3.674   0.985   1.729
 7879OM     OM1 7879   3.556   0.947   1.964
 7880OM     OM1 7880   3.705   0.760   1.867
 7881OM     OM1 7881   3.690   0.312   5.800
 7882OM     OM1 7882   3.688   0.096   5.643
 7883OM     OM1 7883   2.202   8.991   2.263
 7884OM     OM1 7884   2.079   8.841   2.086
 7885OM     OM1 7885   2.240   9.024   2.004
 7886OM     OM1 7886   4.683   0.357   3.739
 7887OM     OM1 7887   4.517   0.175   3.669
 7888OM     OM1 7888   4.440   0.374   3.832
 7889OM     OM1 7889   5.562   9.125   1.191
 7890OM     OM1 7890   5.551   9.353   1.058
 7891OM     OM1 7891   5.390   9.146   1.004
 7892OM     OM1 7892   5.529   8.733   6.675
 7893OM     OM1 7893   5.550   8.700   6.931
 7894OM     OM1 7894   5.698   8.878   6.811
 7895OM     OM1 7895   1.980   1.121   6.718
 7896OM     OM1 7896   1.796   1.043   6.539
 7897OM     OM1 7897   1.767   1.258   6.681
 7898OM     OM1 7898   8.656   0.598   8.532
 7899OM     OM1 7899   8.559   0.725   8.312
 7900OM     OM1 7900   8.710   0.519   8.290
 7901OM     OM1 7901   2.944   0.592   0.632
 7902OM     OM1 7902   8.496   9.516   4.099
 7903OM     OM1 7903   8.581   9.400   4.315
 7904OM     OM1 7904   9.373   9.262   0.603
 7905OM     OM1 7905   9.527   9.049   0.628
 7906OM     OM1 7906   8.004   0.193   9.005
 7907OM     OM1 7907   8.027   0.142   9.266
 7908OM     OM1 7908   3.322   1.347   7.167
 7909OM     OM1 7909   2.014   8.385   8.521
 7910OM     OM1 7910   2.208   8.450   8.366
 7911OM     OM1 7911   7.934   0.619   2.698
 7912OM     OM1 7912   7.810   0.770   2.874
 7913OM     OM1 7913   4.281   0.969   7.953
 7914OM     OM1 7914   4.097   0.834   8.070
 7915OM     OM1 7915   4.201   0.737   7.851
 7916OM     OM1 7916   5.517   0.573   4.164
 7917OM     OM1 7917   5.385   0.414   4.015
 7918OM     OM1 7918   2.924   0.418   0.213
 7919OM     OM1 7919   2.978   0.602   0.381
 7920OM     OM1 7920   3.150   0.398   0.331
 7921OM     OM1 7921   0.007   8.792   3.632
 7922OM     OM1 7922   9.460   8.815   3.423
 7923OM     OM1 7923   6.274   9.383   1.506
 7924OM     OM1 7924   6.143   9.289   1.716
 7925OM     OM1 7925   6.047   9.261   1.463
 7926OM     OM1 7926   1.558   8.699   7.544
 7927OM     OM1 7927   2.815   0.919   6.134
 7928OM     OM1 7928   2.561   0.836   6.169
 7929OM     OM1 7929   0.106   9.532   6.796
 7930OM     OM1 7930   0.297   0.047   6.677
 7931OM     OM1 7931   0.049   0.081   6.588
 7932OM     OM1 7932   6.991   8.545   4.717
 7933OM     OM1 7933   6.847   8.366   4.593
 7934OM     OM1 7934   5.000   0.560   2.043
 7935OM     OM1 7935   4.753   0.635   2.117
 7936OM     OM1 7936   4.862   0.736   1.907
 7937OM     OM1 7937   5.900   8.974   6.937
 7938OM     OM1 7938   5.879   8.722   6.918
 7939OM     OM1 7939   5.941   8.863   6.705
 7940OM     OM1 7940   2.221   8.731   0.288
 7941OM     OM1 7941   2.367   8.627   0.470
 7942OM     OM1 7942   8.369   0.786   5.891
 7943OM     OM1 7943   7.321   0.503   2.808
 7944OM     OM1 7944   7.432   0.731   2.896
 7945OM     OM1 7945   2.918   8.413   6.434
 7946OM     OM1 7946   6.714   8.887   2.727
 7947OM     OM1 7947   6.924   8.746   2.807
 7948OM     OM1 7948   6.782   8.676   2.599
 7949OM     OM1 7949   8.488   9.050   7.903
 7950OM     OM1 7950   3.672   8.764   0.667
 7951OM     OM1 7951   8.321   9.148   8.436
 7952OM     OM1 7952   8.109   9.021   8.322
 7953OM     OM1 7953   8.347   8.908   8.342
 7954OM     OM1 7954   4.666   8.570   1.295
 7955OM     OM1 7955   6.307   9.551   7.732
 7956OM     OM1 7956   5.048   1.102   6.314
 7957OM     OM1 7957   5.624   0.604   4.838
 7958OM     OM1 7958   5.697   0.526   4.594
 7959OM     OM1 7959   5.858   0.498   4.802
 7960OM     OM1 7960   8.334   9.414   6.073
 7961OM     OM1 7961   8.312   9.164   6.125
 7962OM     OM1 7962   4.225   9.429   4.570
 7963OM     OM1 7963   4.791   0.532   6.095
 7964OM     OM1 7964   4.862   0.767   6.025
 7965OM     OM1 7965   4.602   0.669   5.996
 7966OM     OM1 7966   4.795   0.589   5.842
 7967OM     OM1 7967   1.611   0.325   7.278
 7968OM     OM1 7968   1.782   0.531   7.234
 7969OM     OM1 7969   8.252   9.015   4.468
 7970OM     OM1 7970   8.205   9.253   4.370
 7971OM     OM1 7971   8.104   9.028   4.264
 7972OM     OM1 7972   8.227   9.077   1.541
 7973OM     OM1 7973   8.092   9.153   1.746
 7974OM     OM1 7974   8.290   9.298   1.665
 7975OM     OM1 7975   6.211   9.078   4.735
 7976OM     OM1 7976   6.165   8.831   4.817
 7977OM     OM1 7977   3.019   9.115   7.333
 7978OM     OM1 7978   2.327   1.270   5.612
 7979OM     OM1 7979   2.590   1.293   5.610
 7980OM     OM1 7980   2.450   1.373   5.402
 7981OM     OM1 7981   1.500   1.197   1.115
 7982OM     OM1 7982   3.325   9.318   1.094
 7983OM     OM1 7983   3.395   9.445   1.315
 7984OM     OM1 7984   6.324   9.553   2.987
 7985OM     OM1 7985   6.356   9.326   3.114
 7986OM     OM1 7986   1.691   9.567   8.610
 7987OM     OM1 7987   1.919   0.001   8.478
 7988OM     OM1 7988   1.907   9.461   8.690
 7989OM     OM1 7989   9.261   0.907   6.256
 7990OM     OM1 7990   9.261   1.130   6.139
 7991OM     OM1 7991   9.289   1.125   6.402
 7992OM     OM1 7992   1.934   0.414   0.862
 7993OM     OM1 7993   1.846   0.442   0.628
 7994OM     OM1 7994   5.643   9.361   7.555
 7995OM     OM1 7995   4.823   0.305   8.134
 7996OM     OM1 7996   4.690   0.524   8.079
 7997OM     OM1 7997   4.807   0.410   7.884
 7998OM     OM1 7998   2.445   0.776   3.183
 7999OM     OM1 7999   2.443   0.883   3.424
 8000OM     OM1 8000   2.668   0.782   3.314
 8001OM     OM1 8001   5.340   9.154   9.319
 8002OM     OM1 8002   5.178   9.353   9.311
 8003OM     OM1 8003   5.432   9.398   9.244
 8004OM     OM1 8004   4.195   9.075   8.024
 8005OM     OM1 8005   4.200   8.897   7.836
 8006OM     OM1 8006   4.066   9.117   7.798
 8007OM     OM1 8007   3.975   8.946   7.973
 8008OM     OM1 8008   0.432   8.656   1.324
 8009OM     OM1 8009   0.564   8.839   1.457
 8010OM     OM1 8010   7.320   0.891   1.490
 8011OM     OM1 8011   7.263   1.010   1.717
 8012OM     OM1 8012   9.212   8.294   0.226
 8013OM     OM1 8013   9.112   8.300   9.600
 8014OM     OM1 8014   8.289   0.818   4.790
 8015OM     OM1 8015   6.658   8.962   2.027
 8016OM     OM1 8016   6.398   8.988   2.038
 8017OM     OM1 8017   6.532   9.206   2.005
 8018OM     OM1 8018   6.530   9.017   1.819
 8019OM     OM1 8019   0.114   0.775   3.092
 8020OM     OM1 8020   0.018   0.693   2.871
 8021OM     OM1 8021   9.467   0.838   3.036
 8022OM     OM1 8022   9.524   0.599   3.101
 8023OM     OM1 8023   3.389   0.926   8.472
 8024OM     OM1 8024   3.643   0.976   8.469
 8025OM     OM1 8025   6.669   0.211   5.089
 8026OM     OM1 8026   6.912   0.224   5.016
 8027OM     OM1 8027   6.715   0.374   4.892
 8028OM     OM1 8028   3.946   1.084   3.548
 8029OM     OM1 8029   2.692   0.895   4.180
 8030OM     OM1 8030   2.493   1.041   4.070
 8031OM     OM1 8031   2.570   0.800   3.983
 8032OM     OM1 8032   2.715   1.012   3.944
 8033OM     OM1 8033   6.957   9.289   2.725
 8034OM     OM1 8034   6.734   9.146   2.747
 8035OM     OM1 8035   6.822   9.294   2.943
 8036OM     OM1 8036   8.501   9.057   4.665
 8037OM     OM1 8037   8.747   9.117   4.609
 8038OM     OM1 8038   4.296   0.498   2.527
 8039OM     OM1 8039   4.070   0.396   2.606
 8040OM     OM1 8040   1.360   0.407   4.849
 8041OM     OM1 8041   1.329   0.168   4.946
 8042OM     OM1 8042   7.634   0.132   5.590
 8043OM     OM1 8043   4.859   8.163   0.402
 8044OM     OM1 8044   4.728   8.235   0.596
 8045OM     OM1 8045   0.948   8.230   4.377
 8046OM     OM1 8046   9.570   0.614   1.961
 8047OM     OM1 8047   3.625   8.928   5.702
 8048OM     OM1 8048   3.754   9.054   5.517
 8049OM     OM1 8049   2.191   0.857   5.770
 8050OM     OM1 8050   2.371   1.009   5.902
 8051OM     OM1 8051   6.032   9.278   1.195
 8052OM     OM1 8052   5.948   9.060   1.339
 8053OM     OM1 8053   5.445   8.642   4.882
 8054OM     OM1 8054   5.691   8.573   4.809
 8055OM     OM1 8055   1.866   0.381   2.099
 8056OM     OM1 8056   1.765   0.199   2.250
 8057OM     OM1 8057   1.603   0.374   2.118
 8058OM     OM1 8058   0.281   1.171   7.567
 8059OM     OM1 8059   0.469   1.111   7.733
 8060OM     OM1 8060   9.200   8.703   2.385
 8061OM     OM1 8061   9.031   8.525   2.301
 8062OM     OM1 8062   5.461   8.818   7.577
 8063OM     OM1 8063   5.484   0.504   9.018
 8064OM     OM1 8064   0.975   0.224   2.142
 8065OM     OM1 8065   0.833   0.298   1.934
 8066OM     OM1 8066   1.081   0.218   1.909
 8067OM     OM1 8067   5.597   1.418   6.750
 8068OM     OM1 8068   0.391   0.977   6.596
 8069OM     OM1 8069   0.236   0.868   6.432
 8070OM     OM1 8070   3.881   0.450   0.814
 8071OM     OM1 8071   3.803   0.210   0.769
 8072OM     OM1 8072   4.714   9.337   6.710
 8073OM     OM1 8073   3.155   9.228   3.535
 8074OM     OM1 8074   9.600   9.525   6.396
 8075OM     OM1 8075   8.174   8.921   7.521
 8076OM     OM1 8076   8.427   8.921   7.442
 8077OM     OM1 8077   8.281   9.146   7.456
 8078OM     OM1 8078   5.649   0.547   7.548
 8079OM     OM1 8079   5.711   0.726   7.736
 8080OM     OM1 8080   5.863   0.700   7.526
 8081OM     OM1 8081   7.533   1.340   6.519
 8082OM     OM1 8082   0.809   0.857   0.928
 8083OM     OM1 8083   0.859   0.878   0.673
 8084OM     OM1 8084   1.116   1.188   0.836
 8085OM     OM1 8085   2.270   9.162   1.785
 8086OM     OM1 8086   2.478   9.068   1.931
 8087OM     OM1 8087   8.730   8.719   0.000
 8088OM     OM1 8088   8.715   8.755   9.345
 8089OM     OM1 8089   3.064   0.836   2.777
 8090OM     OM1 8090   3.278   0.941   2.682
 8091OM     OM1 8091   8.653   1.271   0.240
 8092OM     OM1 8092   8.618   1.176   0.008
 8093OM     OM1 8093   8.868   1.245   0.103
 8094OM     OM1 8094   5.470   8.488   6.693
 8095OM     OM1 8095   5.368   8.302   6.850
 8096OM     OM1 8096   7.219   8.449   6.522
 8097OM     OM1 8097   7.367   8.359   6.323
 8098OM     OM1 8098   0.014   0.024   0.100
 8099OM     OM1 8099   0.080   0.401   0.406
 8100OM     OM1 8100   0.192   9.544   0.287
 8101OM     OM1 8101   0.095   0.173   0.290
 8102OM     OM1 8102   7.440   9.456   8.472
 8103OM     OM1 8103   7.268   0.041   8.463
 8104OM     OM1 8104   7.306   9.527   8.686
 8105OM     OM1 8105   0.894   8.444   9.123
 8106OM     OM1 8106   1.123   8.495   9.020
 8107OM     OM1 8107   7.657   8.793   0.474
 8108OM     OM1 8108   0.842   0.206   3.651
 8109OM     OM1 8109   0.897   0.436   3.540
 8110OM     OM1 8110   0.838   0.421   3.799
 8111OM     OM1 8111   6.118   1.145   5.933
 8112OM     OM1 8112   5.912   1.011   5.914
 8113OM     OM1 8113   9.247   0.773   5.027
 8114OM     OM1 8114   9.229   0.541   4.935
 8115OM     OM1 8115   8.868   0.483   5.203
 8116OM     OM1 8116   0.409   8.581   6.914
 8117OM     OM1 8117   0.662   9.356   0.707
 8118OM     OM1 8118   0.512   9.174   0.791
 8119OM     OM1 8119   8.520   0.794   4.301
 8120OM     OM1 8120   8.628   0.802   4.059
 8121OM     OM1 8121   8.394   0.685   4.099
 8122OM     OM1 8122   6.033   0.279   3.909
 8123OM     OM1 8123   1.838   9.042   1.354
 8124OM     OM1 8124   1.787   9.205   1.153
 8125OM     OM1 8125   0.332   9.344   3.465
 8126OM     OM1 8126   0.285   9.596   3.505
 8127OM     OM1 8127   1.795   9.380   8.905
 8128OM     OM1 8128   1.848   9.123   8.914
 8129OM     OM1 8129   1.613   9.209   8.986
 8130OM     OM1 8130   9.474   0.493   4.842
 8131OM     OM1 8131   9.316   0.295   4.926
 8132OM     OM1 8132   1.837   9.066   4.501
 8133OM     OM1 8133   1.943   8.823   4.473
 8134OM     OM1 8134   4.948   1.150   3.234
 8135OM     OM1 8135   5.186   1.072   3.227
 8136OM     OM1 8136   1.165   0.313   7.907
 8137OM     OM1 8137   1.335   0.163   8.028
 8138OM     OM1 8138   1.278   0.403   8.122
 8139OM     OM1 8139   1.158   0.435   4.426
 8140OM     OM1 8140   1.078   0.420   4.671
 8141OM     OM1 8141   1.266   0.249   4.587
 8142OM     OM1 8142   6.925   8.522   8.434
 8143OM     OM1 8143   9.439   8.556   8.022
 8144OM     OM1 8144   9.559   8.653   8.228
 8145OM     OM1 8145   1.707   0.000   7.499
 8146OM     OM1 8146   2.089   0.170   1.708
 8147OM     OM1 8147   2.060   0.181   1.450
 8148OM     OM1 8148   5.799   0.912   6.230
 8149OM     OM1 8149   5.697   0.718   6.111
 8150OM     OM1 8150   1.051   0.861   8.881
 8151OM     OM1 8151   1.364   0.017   3.874
 8152OM     OM1 8152   1.391   9.373   3.959
 8153OM     OM1 8153   6.081   1.230   4.682
 8154OM     OM1 8154   4.236   9.555   2.633
 8155OM     OM1 8155   4.278   0.139   2.827
 8156OM     OM1 8156   4.356   9.350   2.536
 8157OM     OM1 8157   4.367   9.493   2.843
 8158OM     OM1 8158   5.851   8.599   3.836
 8159OM     OM1 8159   6.022   8.491   3.677
 8160OM     OM1 8160   8.440   0.442   2.773
 8161OM     OM1 8161   8.413   0.765   2.854
 8162OM     OM1 8162   8.290   0.626   2.673
 8163OM     OM1 8163   6.042   8.872   1.509
 8164OM     OM1 8164   5.876   8.804   1.323
 8165OM     OM1 8165   3.219   0.065   3.223
 8166OM     OM1 8166   3.036   0.413   3.368
 8167OM     OM1 8167   5.616   0.091   6.297
 8168OM     OM1 8168   0.750   8.808   4.825
 8169OM     OM1 8169   5.606   0.134   5.617
 8170OM     OM1 8170   5.675   0.254   5.390
 8171OM     OM1 8171   5.601   0.005   5.392
 8172OM     OM1 8172   4.537   8.307   5.937
 8173OM     OM1 8173   4.709   8.195   6.096
 8174OM     OM1 8174   4.588   8.391   6.188
 8175OM     OM1 8175   1.011   0.901   6.207
 8176OM     OM1 8176   0.781   0.908   6.314
 8177OM     OM1 8177   0.808   0.864   6.049
 8178OM     OM1 8178   0.845   1.098   6.151
 8179OM     OM1 8179   3.847   9.087   1.532
 8180OM     OM1 8180   3.800   9.291   1.675
 8181OM     OM1 8181   3.883   9.331   1.438
 8182OM     OM1 8182   4.050   9.232   1.617
 8183OM     OM1 8183   6.427   9.513   4.379
 8184OM     OM1 8184   6.610   9.326   4.362
 8185OM     OM1 8185   8.927   9.345   3.162
 8186OM     OM1 8186   8.225   9.409   3.875
 8187OM     OM1 8187   8.382   0.014   3.893
 8188OM     OM1 8188   8.450   9.419   3.740
 8189OM     OM1 8189   1.571   8.924   4.293
 8190OM     OM1 8190   1.388   8.791   4.416
 8191OM     OM1 8191   1.512   8.984   4.550
 8192OM     OM1 8192   5.439   9.232   7.233
 8193OM     OM1 8193   5.333   9.208   7.011
 8194OM     OM1 8194   5.317   9.000   7.164
 8195OM     OM1 8195   0.990   0.115   7.883
 8196OM     OM1 8196   0.918   0.362   7.836
 8197OM     OM1 8197   2.182   0.383   6.735
 8198OM     OM1 8198   4.857   8.229   2.425
 8199OM     OM1 8199   6.896   0.186   0.160
 8200OM     OM1 8200   6.667   0.106   0.218
 8201OM     OM1 8201   6.832   0.158   0.412
 8202OM     OM1 8202   3.657   0.018   0.167
 8203OM     OM1 8203   8.168   8.822   3.111
 8204OM     OM1 8204   8.059   9.063   3.089
 8205OM     OM1 8205   4.278   9.032   4.228
 8206OM     OM1 8206   4.043   9.057   4.111
 8207OM     OM1 8207   4.261   9.121   3.986
 8208OM     OM1 8208   2.894   9.205   4.926
 8209OM     OM1 8209   2.996   9.389   5.073
 8210OM     OM1 8210   3.208   8.450   8.707
 8211OM     OM1 8211   5.111   0.621   0.565
 8212OM     OM1 8212   5.715   8.369   4.221
 8213OM     OM1 8213   5.826   8.395   4.675
 8214OM     OM1 8214   3.250   9.055   3.007
 8215OM     OM1 8215   3.509   8.992   2.969
 8216OM     OM1 8216   7.346   9.105   8.145
 8217OM     OM1 8217   7.229   8.944   8.304
 8218OM     OM1 8218   8.659   8.688   3.088
 8219OM     OM1 8219   8.909   8.596   3.088
 8220OM     OM1 8220   7.821   9.012   1.573
 8221OM     OM1 8221   2.231   8.520   8.118
 8222OM     OM1 8222   4.722   8.439   7.701
 8223OM     OM1 8223   0.242   8.717   2.652
 8224OM     OM1 8224   0.001   8.720   2.745
 8225OM     OM1 8225   0.046   8.855   2.530
 8226OM     OM1 8226   4.345   0.141   9.226
 8227OM     OM1 8227   4.424   9.596   9.025
 8228OM     OM1 8228   4.528   0.230   9.051
 8229OM     OM1 8229   4.531   8.713   1.760
 8230OM     OM1 8230   4.377   8.879   1.635
 8231OM     OM1 8231   4.296   8.761   1.861
 8232OM     OM1 8232   4.320   8.625   1.639
 8233OM     OM1 8233   8.820   1.005   8.224
 8234OM     OM1 8234   8.936   1.236   8.263
 8235OM     OM1 8235   1.377   8.748   7.991
 8236OM     OM1 8236   1.157   8.889   7.939
 8237OM     OM1 8237   3.881   1.436   1.329
 8238OM     OM1 8238   8.169   9.089   9.002
 8239OM     OM1 8239   8.343   9.190   9.180
 8240OM     OM1 8240   2.075   8.945   0.554
 8241OM     OM1 8241   1.821   8.985   0.759
 8242OM     OM1 8242   2.047   8.858   0.792
 8243OM     OM1 8243   0.123   9.158   7.971
 8244OM     OM1 8244   9.600   9.380   7.994
 8245OM     OM1 8245   9.469   9.157   7.963
 8246OM     OM1 8246   0.894   1.281   6.329
 8247OM     OM1 8247   8.639   1.164   3.255
 8248OM     OM1 8248   6.778   0.133   9.538
 8249OM     OM1 8249   6.094   0.774   6.537
 8250OM     OM1 8250   6.257   0.699   6.732
 8251OM     OM1 8251   6.101   0.522   6.634
 8252OM     OM1 8252   5.999   0.734   6.764
 8253OM     OM1 8253   9.041   0.812   3.270
 8254OM     OM1 8254   9.210   0.801   3.458
 8255OM     OM1 8255   8.959   0.719   3.494
 8256OM     OM1 8256   0.401   0.337   7.093
 8257OM     OM1 8257   0.624   0.430   7.194
 8258OM     OM1 8258   0.632   0.242   7.010
 8259OM     OM1 8259   4.694   1.214   7.732
 8260OM     OM1 8260   6.006   0.006   5.185
 8261OM     OM1 8261   5.827   9.480   5.051
 8262OM     OM1 8262   1.652   8.214   2.940
 8263OM     OM1 8263   5.541   0.115   4.338
 8264OM     OM1 8264   5.542   9.483   4.453
 8265OM     OM1 8265   0.711   8.251   3.120
 8266OM     OM1 8266   2.541   0.724   1.897
 8267OM     OM1 8267   2.723   0.882   1.788
 8268OM     OM1 8268   2.728   0.831   2.047
 8269OM     OM1 8269   0.432   0.479   3.433
 8270OM     OM1 8270   0.346   0.240   3.515
 8271OM     OM1 8271   0.187   0.429   3.443
 8272OM     OM1 8272   7.902   0.142   5.588
 8273OM     OM1 8273   8.937   8.836   7.989
 8274OM     OM1 8274   2.800   9.313   3.071
 8275OM     OM1 8275   8.177   1.169   6.259
 8276OM     OM1 8276   4.776   8.344   9.427
 8277OM     OM1 8277   9.489   0.730   3.925
 8278OM     OM1 8278   0.270   0.428   4.127
 8279OM     OM1 8279   9.500   0.502   3.798
 8280OM     OM1 8280   0.782   8.529   4.485
 8281OM     OM1 8281   6.398   9.532   2.636
 8282OM     OM1 8282   6.447   9.280   2.644
 8283OM     OM1 8283   6.344   9.232   2.878
 8284OM     OM1 8284   5.004   9.550   1.681
 8285OM     OM1 8285   5.178   9.356   1.665
 8286OM     OM1 8286   5.234   9.560   1.813
 8287OM     OM1 8287   5.047   9.392   1.890
 8288OM     OM1 8288   1.425   8.415   8.423
 8289OM     OM1 8289   1.547   8.288   8.616
 8290OM     OM1 8290   5.753   8.244   2.762
 8291OM     OM1 8291   5.776   8.420   2.948
 8292OM     OM1 8292   6.891   9.296   3.354
 8293OM     OM1 8293   7.039   9.501   3.304
 8294OM     OM1 8294   5.018   1.343   9.244
 8295OM     OM1 8295   1.597   1.044   6.365
 8296OM     OM1 8296   1.638   1.280   6.276
 8297OM     OM1 8297   7.920   0.044   1.337
 8298OM     OM1 8298   3.590   8.293   6.507
 8299OM     OM1 8299   8.393   1.091   2.810
 8300OM     OM1 8300   8.589   0.948   2.889
 8301OM     OM1 8301   8.480   1.106   3.060
 8302OM     OM1 8302   7.174   8.672   5.041
 8303OM     OM1 8303   7.064   8.729   5.260
 8304OM     OM1 8304   7.000   8.501   5.150
 8305OM     OM1 8305   1.781   0.626   9.368
 8306OM     OM1 8306   1.764   0.453   9.174
 8307OM     OM1 8307   3.862   0.961   3.975
 8308OM     OM1 8308   3.970   1.126   3.808
 8309OM     OM1 8309   4.843   9.471   5.622
 8310OM     OM1 8310   4.683   0.012   5.460
 8311OM     OM1 8311   4.875   9.467   5.362
 8312OM     OM1 8312   7.040   0.968   2.911
 8313OM     OM1 8313   6.805   0.963   2.800
 8314OM     OM1 8314   6.846   0.558   2.816
 8315OM     OM1 8315   6.750   1.120   2.997
 8316OM     OM1 8316   0.765   9.558   8.749
 8317OM     OM1 8317   0.819   0.203   8.767
 8318OM     OM1 8318   0.628   0.119   8.593
 8319OM     OM1 8319   0.870   0.074   8.544
 8320OM     OM1 8320   2.813   9.058   0.485
 8321OM     OM1 8321   2.863   0.968   4.348
 8322OM     OM1 8322   2.933   0.782   4.168
 8323OM     OM1 8323   4.923   0.053   9.480
 8324OM     OM1 8324   4.740   0.035   9.305
 8325OM     OM1 8325   7.969   9.351   3.906
 8326OM     OM1 8326   8.099   9.266   3.700
 8327OM     OM1 8327   2.887   8.468   5.297
 8328OM     OM1 8328   3.136   8.516   5.373
 8329OM     OM1 8329   2.985   8.697   5.241
 8330OM     OM1 8330   3.089   8.501   5.121
 8331OM     OM1 8331   2.632   1.247   7.639
 8332OM     OM1 8332   2.668   1.132   7.878
 8333OM     OM1 8333   8.535   8.912   1.459
 8334OM     OM1 8334   8.736   8.898   1.620
 8335OM     OM1 8335   8.580   8.689   1.582
 8336OM     OM1 8336   9.055   0.530   3.645
 8337OM     OM1 8337   9.193   0.433   3.841
 8338OM     OM1 8338   9.127   0.282   3.637
 8339OM     OM1 8339   9.317   0.458   3.621
 8340OM     OM1 8340   7.066   0.873   6.676
 8341OM     OM1 8341   7.149   0.890   6.918
 8342OM     OM1 8342   9.096   9.494   9.264
 8343OM     OM1 8343   5.447   0.228   9.344
 8344OM     OM1 8344   5.576   0.281   9.117
 8345OM     OM1 8345   5.554   0.038   9.208
 8346OM     OM1 8346   5.835   0.438   5.470
 8347OM     OM1 8347   5.804   0.533   5.701
 8348OM     OM1 8348   1.790   8.892   8.827
 8349OM     OM1 8349   1.705   8.654   8.769
 8350OM     OM1 8350   1.811   8.816   8.580
 8351OM     OM1 8351   6.835   9.218   1.507
 8352OM     OM1 8352   7.085   9.206   1.471
 8353OM     OM1 8353   6.963   9.426   1.418
 8354OM     OM1 8354   5.863   1.270   2.811
 8355OM     OM1 8355   5.285   0.856   2.374
 8356OM     OM1 8356   5.289   0.876   2.117
 8357OM     OM1 8357   4.894   9.023   0.531
 8358OM     OM1 8358   5.092   9.014   0.373
 8359OM     OM1 8359   2.554   1.085   6.607
 8360OM     OM1 8360   2.509   0.970   6.378
 8361OM     OM1 8361   2.408   1.197   6.427
 8362OM     OM1 8362   6.601   8.491   2.571
 8363OM     OM1 8363   7.961   1.283   3.907
 8364OM     OM1 8364   7.834   1.057   3.977
 8365OM     OM1 8365   8.008   1.170   4.143
 8366OM     OM1 8366   8.500   0.433   8.662
 8367OM     OM1 8367   8.599   0.237   8.798
 8368OM     OM1 8368   7.543   1.344   7.976
 8369OM     OM1 8369   7.305   1.283   8.048
 8370OM     OM1 8370   7.497   1.120   8.112
 8371OM     OM1 8371   6.250   8.374   5.948
 8372OM     OM1 8372   7.063   8.396   9.238
 8373OM     OM1 8373   3.828   1.270   1.133
 8374OM     OM1 8374   6.491   0.954   7.122
 8375OM     OM1 8375   6.326   1.116   7.238
 8376OM     OM1 8376   9.460   1.003   0.078
 8377OM     OM1 8377   9.125   0.947   0.384
 8378OM     OM1 8378   8.411   9.200   2.973
 8379OM     OM1 8379   3.317   0.206   2.695
 8380OM     OM1 8380   3.279   9.585   2.580
 8381OM     OM1 8381   5.915   8.474   5.411
 8382OM     OM1 8382   1.266   9.398   7.746
 8383OM     OM1 8383   1.270   9.533   7.529
 8384OM     OM1 8384   6.352   8.692   1.324
 8385OM     OM1 8385   7.236   0.994   1.259
 8386OM     OM1 8386   5.745   0.268   8.080
 8387OM     OM1 8387   5.619   0.054   8.044
 8388OM     OM1 8388   5.530   0.273   7.926
 8389OM     OM1 8389   9.543   8.462   9.584
 8390OM     OM1 8390   7.925   8.782   9.241
 8391OM     OM1 8391   8.114   8.614   9.154
 8392OM     OM1 8392   6.173   8.921   7.557
 8393OM     OM1 8393   6.044   8.842   7.771
 8394OM     OM1 8394   8.293   9.528   2.557
 8395OM     OM1 8395   8.453   0.116   2.478
 8396OM     OM1 8396   8.462   9.489   2.349
 8397OM     OM1 8397   6.734   0.800   2.467
 8398OM     OM1 8398   6.764   1.068   2.427
 8399OM     OM1 8399   7.312   8.938   6.452
 8400OM     OM1 8400   7.189   9.010   6.668
 8401OM     OM1 8401   6.684   8.758   3.550
 8402OM     OM1 8402   6.496   8.600   3.477
 8403OM     OM1 8403   0.875   0.087   0.460
 8404OM     OM1 8404   8.340   1.228   9.289
 8405OM     OM1 8405   8.256   1.423   9.437
 8406OM     OM1 8406   4.458   1.132   8.070
 8407OM     OM1 8407   4.284   1.224   7.913
 8408OM     OM1 8408   7.543   9.523   6.648
 8409OM     OM1 8409   7.735   9.595   6.818
 8410OM     OM1 8410   7.771   9.449   6.585
 8411OM     OM1 8411   4.499   0.343   3.486
 8412OM     OM1 8412   0.022   1.334   7.897
 8413OM     OM1 8413   9.431   1.273   8.375
 8414OM     OM1 8414   9.425   1.051   8.245
 8415OM     OM1 8415   1.988   8.577   5.523
 8416OM     OM1 8416   2.214   8.663   5.612
 8417OM     OM1 8417   2.139   8.701   5.357
 8418OM     OM1 8418   1.300   8.583   7.037
 8419OM     OM1 8419   1.139   8.747   6.904
 8420OM     OM1 8420   1.054   8.611   7.116
 8421OM     OM1 8421   4.285   0.455   9.370
 8422OM     OM1 8422   3.888   0.465   0.104
 8423OM     OM1 8423   8.734   0.243   9.015
 8424OM     OM1 8424   8.760   0.042   8.844
 8425OM     OM1 8425   8.535   0.069   8.970
 8426OM     OM1 8426   1.396   1.248   3.943
 8427OM     OM1 8427   1.374   1.099   4.155
 8428OM     OM1 8428   1.296   0.997   3.929
 8429OM     OM1 8429   5.302   8.448   9.051
 8430OM     OM1 8430   5.202   8.584   9.378
 8431OM     OM1 8431   5.411   8.451   9.281
 8432OM     OM1 8432   1.886   0.774   7.201
 8433OM     OM1 8433   1.938   0.630   7.421
 8434OM     OM1 8434   2.817   0.350   3.210
 8435OM     OM1 8435   2.884   0.248   2.973
 8436OM     OM1 8436   3.006   0.480   3.118
 8437OM     OM1 8437   7.291   0.834   8.045
 8438OM     OM1 8438   7.168   1.290   8.266
 8439OM     OM1 8439   7.220   1.066   8.145
 8440OM     OM1 8440   1.242   0.752   9.002
 8441OM     OM1 8441   1.439   0.750   8.839
 8442OM     OM1 8442   6.170   9.312   8.171
 8443OM     OM1 8443   1.210   0.217   3.965
 8444OM     OM1 8444   1.938   1.296   8.973
 8445OM     OM1 8445   5.789   0.364   7.656
 8446OM     OM1 8446   5.946   0.229   7.499
 8447OM     OM1 8447   6.041   0.331   7.722
 8448OM     OM1 8448   8.546   0.687   9.044
 8449OM     OM1 8449   8.359   0.743   9.244
 8450OM     OM1 8450   8.366   0.777   9.515
 8451OM     OM1 8451   5.719   9.019   2.227
 8452OM     OM1 8452   5.964   9.059   2.305
 8453OM     OM1 8453   5.785   9.216   2.394
 8454OM     OM1 8454   5.773   8.833   2.395
 8455OM     OM1 8455   3.445   9.062   6.928
 8456OM     OM1 8456   5.189   8.830   6.782
 8457OM     OM1 8457   0.687   0.411   0.665
 8458OM     OM1 8458   0.562   0.632   0.656
 8459OM     OM1 8459   3.269   1.259   0.345
 8460OM     OM1 8460   2.578   0.793   9.520
 8461OM     OM1 8461   2.577   0.690   9.268
 8462OM     OM1 8462   3.928   9.350   0.962
 8463OM     OM1 8463   3.871   9.428   1.199
 8464OM     OM1 8464   4.104   9.488   1.069
 8465OM     OM1 8465   9.315   9.286   4.540
 8466OM     OM1 8466   9.351   9.276   4.281
 8467OM     OM1 8467   7.697   0.649   8.107
 8468OM     OM1 8468   1.917   0.679   7.676
 8469OM     OM1 8469   1.788   0.872   7.568
 8470OM     OM1 8470   1.782   0.875   7.820
 8471OM     OM1 8471   2.013   0.918   7.703
 8472OM     OM1 8472   4.719   8.778   4.584
 8473OM     OM1 8473   2.483   8.446   9.091
 8474OM     OM1 8474   2.608   8.526   8.896
 8475OM     OM1 8475   3.636   8.471   3.300
 8476OM     OM1 8476   6.715   0.209   1.663
 8477OM     OM1 8477   6.704   0.464   1.669
 8478OM     OM1 8478   0.957   9.227   2.126
 8479OM     OM1 8479   1.012   9.040   1.946
 8480OM     OM1 8480   0.766   9.088   2.004
 8481OM     OM1 8481   7.515   0.931   0.139
 8482OM     OM1 8482   7.468   1.081   0.350
 8483OM     OM1 8483   5.448   1.087   9.581
 8484OM     OM1 8484   1.252   9.162   6.254
 8485OM     OM1 8485   1.472   9.188   6.391
 8486OM     OM1 8486   6.499   0.356   7.888
 8487OM     OM1 8487   6.251   0.286   7.867
 8488OM     OM1 8488   6.436   0.161   7.731
 8489OM     OM1 8489   3.886   1.055   8.498
 8490OM     OM1 8490   4.143   0.984   8.523
 8491OM     OM1 8491   4.021   0.920   8.311
 8492OM     OM1 8492   3.726   8.511   7.545
 8493OM     OM1 8493   7.004   8.351   0.660
 8494OM     OM1 8494   7.268   8.304   0.624
 8495OM     OM1 8495   0.366   0.088   3.734
 8496OM     OM1 8496   0.613   0.103   3.682
 8497OM     OM1 8497   7.345   1.237   7.671
 8498OM     OM1 8498   7.244   1.173   7.186
 8499OM     OM1 8499   7.142   1.083   7.660
 8500OM     OM1 8500   7.292   1.107   7.451
 8501OM     OM1 8501   2.518   1.269   5.174
 8502OM     OM1 8502   4.211   9.358   7.288
 8503OM     OM1 8503   4.369   9.338   7.492
 8504OM     OM1 8504   4.462   9.361   7.252
 8505OM     OM1 8505   3.317   8.863   0.880
 8506OM     OM1 8506   3.163   8.868   1.086
 8507OM     OM1 8507   0.644   0.691   7.229
 8508OM     OM1 8508   8.655   0.633   6.005
 8509OM     OM1 8509   8.706   0.890   5.965
 8510OM     OM1 8510   8.897   0.715   5.976
 8511OM     OM1 8511   8.961   1.220   7.016
 8512OM     OM1 8512   9.183   1.144   7.124
 8513OM     OM1 8513   2.737   9.334   8.424
 8514OM     OM1 8514   1.236   0.325   8.374
 8515OM     OM1 8515   1.303   0.288   8.622
 8516OM     OM1 8516   1.118   0.137   8.511
 8517OM     OM1 8517   9.469   9.369   1.622
 8518OM     OM1 8518   1.897   1.161   2.495
 8519OM     OM1 8519   5.528   0.345   7.669
 8520OM     OM1 8520   8.267   8.125   5.318
 8521OM     OM1 8521   0.462   8.877   2.980
 8522OM     OM1 8522   0.256   8.979   3.116
 8523OM     OM1 8523   6.183   8.657   1.513
 8524OM     OM1 8524   6.082   8.740   1.743
 8525OM     OM1 8525   6.018   0.434   0.618
 8526OM     OM1 8526   6.259   0.479   0.510
 8527OM     OM1 8527   6.125   0.679   0.606
 8528OM     OM1 8528   6.847   0.044   1.501
 8529OM     OM1 8529   6.942   0.037   1.262
 8530OM     OM1 8530   8.984   8.709   5.716
 8531OM     OM1 8531   9.230   8.736   5.645
 8532OM     OM1 8532   2.984   9.404   2.284
 8533OM     OM1 8533   2.810   9.596   2.231
 8534OM     OM1 8534   3.017   9.572   2.076
 8535OM     OM1 8535   3.732   8.748   8.749
 8536OM     OM1 8536   3.555   8.740   8.554
 8537OM     OM1 8537   3.616   8.966   8.660
 8538OM     OM1 8538   3.025   9.092   1.038
 8539OM     OM1 8539   2.906   8.863   1.018
 8540OM     OM1 8540   0.634   8.968   7.352
 8541OM     OM1 8541   0.503   9.082   7.150
 8542OM     OM1 8542   0.681   8.905   7.101
 8543OM     OM1 8543   6.162   8.843   6.822
 8544OM     OM1 8544   6.247   8.940   7.049
 8545OM     OM1 8545   6.104   8.721   7.040
 8546OM     OM1 8546   5.270   0.203   9.545
 8547OM     OM1 8547   8.488   8.841   9.424
 8548OM     OM1 8548   8.359   9.061   9.407
 8549OM     OM1 8549   8.500   9.012   0.021
 8550OM     OM1 8550   0.954   1.282   4.561
 8551OM     OM1 8551   2.651   9.217   2.416
 8552OM     OM1 8552   2.436   9.076   2.354
 8553OM     OM1 8553   2.592   9.151   2.157
 8554OM     OM1 8554   2.363   1.056   3.616
 8555OM     OM1 8555   2.194   0.974   3.440
 8556OM     OM1 8556   3.741   9.054   7.947
 8557OM     OM1 8557   3.873   9.093   8.164
 8558OM     OM1 8558   5.363   0.817   2.621
 8559OM     OM1 8559   5.574   0.870   2.772
 8560OM     OM1 8560   9.288   0.088   3.711
 8561OM     OM1 8561   9.051   0.109   3.810
 8562OM     OM1 8562   0.180   1.162   1.586
 8563OM     OM1 8563   9.205   0.908   8.199
 8564OM     OM1 8564   6.544   1.164   2.375
 8565OM     OM1 8565   6.460   1.018   2.583
 8566OM     OM1 8566   3.308   0.490   4.736
 8567OM     OM1 8567   5.593   9.475   5.172
 8568OM     OM1 8568   7.145   8.550   3.413
 8569OM     OM1 8569   7.170   8.360   3.244
 8570OM     OM1 8570   3.162   1.034   6.376
 8571OM     OM1 8571   3.042   1.069   6.153
 8572OM     OM1 8572   3.298   0.989   6.172
 8573OM     OM1 8573   6.838   1.195   8.887
 8574OM     OM1 8574   6.651   1.051   9.000
 8575OM     OM1 8575   0.597   0.073   8.330
 8576OM     OM1 8576   4.956   0.160   7.469
 8577OM     OM1 8577   4.838   9.556   7.344
 8578OM     OM1 8578   4.844   9.575   7.602
 8579OM     OM1 8579   4.698   0.142   7.475
 8580OM     OM1 8580   4.014   9.049   5.501
 8581OM     OM1 8581   3.995   9.154   5.731
 8582OM     OM1 8582   8.200   0.951   5.797
 8583OM     OM1 8583   6.608   0.786   9.008
 8584OM     OM1 8584   6.493   0.621   8.847
 8585OM     OM1 8585   6.761   0.614   8.893
 8586OM     OM1 8586   4.340   9.087   0.921
 8587OM     OM1 8587   4.123   9.199   0.849
 8588OM     OM1 8588   6.071   1.143   5.233
 8589OM     OM1 8589   6.031   0.966   5.052
 8590OM     OM1 8590   4.680   8.794   3.845
 8591OM     OM1 8591   4.500   8.796   3.660
 8592OM     OM1 8592   4.733   8.693   3.608
 8593OM     OM1 8593   9.350   0.707   1.408
 8594OM     OM1 8594   0.016   0.456   1.719
 8595OM     OM1 8595   9.498   0.673   1.725
 8596OM     OM1 8596   8.406   8.653   2.444
 8597OM     OM1 8597   8.641   8.774   2.450
 8598OM     OM1 8598   8.607   8.579   2.290
 8599OM     OM1 8599   0.648   0.929   6.552
 8600OM     OM1 8600   0.540   0.859   6.782
 8601OM     OM1 8601   0.564   1.113   6.719
 8602OM     OM1 8602   0.156   9.518   8.152
 8603OM     OM1 8603   9.542   0.023   8.084
 8604OM     OM1 8604   2.468   9.222   4.665
 8605OM     OM1 8605   8.816   0.393   2.521
 8606OM     OM1 8606   8.948   0.617   2.492
 8607OM     OM1 8607   8.781   0.559   2.306
 8608OM     OM1 8608   8.700   0.612   2.553
 8609OM     OM1 8609   1.844   8.780   0.932
 8610OM     OM1 8610   8.603   0.210   0.168
 8611OM     OM1 8611   8.381   0.116   0.044
 8612OM     OM1 8612   8.209   0.354   0.043
 8613OM     OM1 8613   7.893   0.030   9.454
 8614OM     OM1 8614   8.147   0.069   9.500
 8615OM     OM1 8615   1.460   9.572   4.886
 8616OM     OM1 8616   1.544   0.082   5.103
 8617OM     OM1 8617   1.780   1.358   5.048
 8618OM     OM1 8618   1.943   1.274   5.228
 8619OM     OM1 8619   1.965   1.109   3.482
 8620OM     OM1 8620   2.016   0.984   3.255
 8621OM     OM1 8621   9.273   8.327   3.262
 8622OM     OM1 8622   5.547   8.905   4.222
 8623OM     OM1 8623   5.861   9.068   4.273
 8624OM     OM1 8624   5.762   9.224   4.464
 8625OM     OM1 8625   0.539   9.499   4.959
 8626OM     OM1 8626   6.491   9.445   1.637
 8627OM     OM1 8627   6.578   9.433   1.886
 8628OM     OM1 8628   6.714   9.558   1.698
 8629OM     OM1 8629   6.701   9.298   1.708
 8630OM     OM1 8630   7.196   1.071   9.276
 8631OM     OM1 8631   0.162   8.982   6.245
 8632OM     OM1 8632   0.313   9.185   6.199
 8633OM     OM1 8633   0.286   8.992   6.024
 8634OM     OM1 8634   3.594   1.348   1.888
 8635OM     OM1 8635   3.443   1.402   2.085
 8636OM     OM1 8636   3.561   1.170   2.087
 8637OM     OM1 8637   8.559   8.723   7.295
 8638OM     OM1 8638   8.514   8.956   7.200
 8639OM     OM1 8639   8.314   8.795   7.256
 8640OM     OM1 8640   2.283   9.443   8.156
 8641OM     OM1 8641   5.640   9.118   5.628
 8642OM     OM1 8642   5.719   9.343   5.530
 8643OM     OM1 8643   4.282   9.349   1.641
 8644OM     OM1 8644   4.322   9.551   1.475
 8645OM     OM1 8645   2.310   1.003   1.305
 8646OM     OM1 8646   2.492   0.860   1.201
 8647OM     OM1 8647   0.705   8.381   1.365
 8648OM     OM1 8648   0.734   8.332   1.123
 8649OM     OM1 8649   0.050   0.334   5.897
 8650OM     OM1 8650   0.035   0.074   5.888
 8651OM     OM1 8651   7.257   0.372   2.592
 8652OM     OM1 8652   5.891   0.226   8.290
 8653OM     OM1 8653   1.597   0.659   8.092
 8654OM     OM1 8654   1.668   0.485   8.264
 8655OM     OM1 8655   4.359   0.627   3.857
 8656OM     OM1 8656   4.424   0.835   3.708
 8657OM     OM1 8657   7.800   8.389   2.599
 8658OM     OM1 8658   7.856   8.316   2.852
 8659OM     OM1 8659   4.375   8.711   2.103
 8660OM     OM1 8660   1.027   9.083   3.135
 8661OM     OM1 8661   1.044   9.337   3.221
 8662OM     OM1 8662   1.773   8.668   5.395
 8663OM     OM1 8663   1.542   8.783   5.384
 8664OM     OM1 8664   1.605   8.643   5.181
 8665OM     OM1 8665   1.551   8.521   5.398
 8666OM     OM1 8666   5.543   9.024   3.281
 8667OM     OM1 8667   5.295   9.128   3.188
 8668OM     OM1 8668   5.349   8.666   3.194
 8669OM     OM1 8669   2.921   9.431   0.217
 8670OM     OM1 8670   9.424   9.001   4.643
 8671OM     OM1 8671   9.481   8.768   4.734
 8672OM     OM1 8672   5.019   8.469   2.926
 8673OM     OM1 8673   1.634   8.747   2.277
 8674OM     OM1 8674   1.830   8.846   2.409
 8675OM     OM1 8675   3.241   0.741   3.688
 8676OM     OM1 8676   3.050   0.571   3.663
 8677OM     OM1 8677   2.965   0.801   3.714
 8678OM     OM1 8678   0.250   0.336   1.697
 8679OM     OM1 8679   5.298   0.584   6.833
 8680OM     OM1 8680   5.087   0.475   6.966
 8681OM     OM1 8681   1.292   9.404   2.806
 8682OM     OM1 8682   1.263   9.556   2.605
 8683OM     OM1 8683   1.236   9.305   2.578
 8684OM     OM1 8684   1.046   9.418   2.705
 8685OM     OM1 8685   0.151   0.125   2.150
 8686OM     OM1 8686   1.618   8.744   7.900
 8687OM     OM1 8687   1.787   8.931   7.974
 8688OM     OM1 8688   3.211   0.126   6.670
 8689OM     OM1 8689   3.255   0.036   6.427
 8690OM     OM1 8690   5.654   9.403   8.032
 8691OM     OM1 8691   9.059   0.480   2.675
 8692OM     OM1 8692   9.016   0.418   2.913
 8693OM     OM1 8693   8.920   0.268   2.716
 8694OM     OM1 8694   9.167   0.253   2.777
 8695OM     OM1 8695   5.043   0.385   0.639
 8696OM     OM1 8696   8.132   8.813   7.887
 8697OM     OM1 8697   0.622   8.775   5.648
 8698OM     OM1 8698   8.612   0.406   1.316
 8699OM     OM1 8699   8.772   0.214   1.363
 8700OM     OM1 8700   7.302   1.202   9.078
 8701OM     OM1 8701   7.107   1.218   8.911
 8702OM     OM1 8702   7.530   0.530   7.427
 8703OM     OM1 8703   7.342   0.483   7.610
 8704OM     OM1 8704   5.966   0.312   1.109
 8705OM     OM1 8705   5.931   0.226   1.351
 8706OM     OM1 8706   4.714   9.330   7.269
 8707OM     OM1 8707   7.935   8.484   6.455
 8708OM     OM1 8708   7.919   8.602   6.679
 8709OM     OM1 8709   7.866   8.343   6.673
 8710OM     OM1 8710   9.516   8.970   0.867
 8711OM     OM1 8711   0.052   8.822   0.709
 8712OM     OM1 8712   6.388   0.239   3.998
 8713OM     OM1 8713   0.636   1.160   4.642
 8714OM     OM1 8714   0.501   1.046   4.836
 8715OM     OM1 8715   2.241   1.073   4.123
 8716OM     OM1 8716   5.129   9.212   8.500
 8717OM     OM1 8717   4.871   9.247   8.467
 8718OM     OM1 8718   4.972   9.148   8.696
 8719OM     OM1 8719   3.745   0.124   4.242
 8720OM     OM1 8720   3.741   0.123   4.500
 8721OM     OM1 8721   1.341   0.555   6.388
 8722OM     OM1 8722   1.308   0.409   6.187
 8723OM     OM1 8723   8.920   0.965   7.484
 8724OM     OM1 8724   8.807   0.912   7.706
 8725OM     OM1 8725   8.909   1.150   7.676
 8726OM     OM1 8726   4.642   9.504   9.102
 8727OM     OM1 8727   4.473   9.348   8.962
 8728OM     OM1 8728   9.285   0.437   4.281
 8729OM     OM1 8729   9.502   0.348   4.175
 8730OM     OM1 8730   9.330   0.519   4.051
 8731OM     OM1 8731   0.435   8.446   8.696
 8732OM     OM1 8732   0.355   8.528   8.463
 8733OM     OM1 8733   5.165   9.327   2.116
 8734OM     OM1 8734   7.804   0.666   8.930
 8735OM     OM1 8735   7.773   0.967   9.184
 8736OM     OM1 8736   4.732   0.337   7.645
 8737OM     OM1 8737   6.208   9.267   9.197
 8738OM     OM1 8738   6.477   0.543   3.442
 8739OM     OM1 8739   6.678   0.594   3.286
 8740OM     OM1 8740   6.550   0.787   3.417
 8741OM     OM1 8741   8.282   0.602   5.156
 8742OM     OM1 8742   2.399   9.469   3.693
 8743OM     OM1 8743   2.590   9.303   3.763
 8744OM     OM1 8744   1.898   0.365   5.586
 8745OM     OM1 8745   1.978   0.541   5.410
 8746OM     OM1 8746   1.049   8.964   6.776
 8747OM     OM1 8747   0.803   0.527   1.150
 8748OM     OM1 8748   0.572   0.448   1.073
 8749OM     OM1 8749   0.642   0.712   1.073
 8750OM     OM1 8750   1.945   9.421   2.724
 8751OM     OM1 8751   0.688   0.215   1.114
 8752OM     OM1 8752   0.139   9.489   9.145
 8753OM     OM1 8753   9.508   9.365   9.179
 8754OM     OM1 8754   3.506   9.280   4.407
 8755OM     OM1 8755   3.615   9.068   4.510
 8756OM     OM1 8756   3.644   9.300   4.632
 8757OM     OM1 8757   0.266   0.040   8.988
 8758OM     OM1 8758   2.715   9.485   0.364
 8759OM     OM1 8759   2.741   9.517   0.631
 8760OM     OM1 8760   3.452   8.202   5.550
 8761OM     OM1 8761   3.324   8.324   5.366
 8762OM     OM1 8762   2.454   0.621   4.128
 8763OM     OM1 8763   5.891   8.708   7.184
 8764OM     OM1 8764   0.930   0.670   6.248
 8765OM     OM1 8765   1.188   0.719   6.165
 8766OM     OM1 8766   1.293   0.566   2.541
 8767OM     OM1 8767   1.295   0.590   2.281
 8768OM     OM1 8768   0.364   9.039   8.629
 8769OM     OM1 8769   0.591   9.162   8.688
 8770OM     OM1 8770   5.018   9.561   5.789
 8771OM     OM1 8771   5.031   0.223   5.754
 8772OM     OM1 8772   0.746   0.505   6.127
 8773OM     OM1 8773   4.661   0.928   7.280
 8774OM     OM1 8774   4.439   0.870   7.148
 8775OM     OM1 8775   8.532   0.095   6.365
 8776OM     OM1 8776   8.445   0.034   6.119
 8777OM     OM1 8777   2.418   1.086   5.007
 8778OM     OM1 8778   7.929   0.802   3.382
 8779OM     OM1 8779   7.955   0.571   3.493
 8780OM     OM1 8780   8.875   0.756   3.993
 8781OM     OM1 8781   9.069   0.576   4.017
 8782OM     OM1 8782   8.838   0.502   3.915
 8783OM     OM1 8783   1.714   9.293   9.421
 8784OM     OM1 8784   1.909   9.447   9.347
 8785OM     OM1 8785   4.110   1.136   3.101
 8786OM     OM1 8786   3.756   9.340   9.263
 8787OM     OM1 8787   3.901   9.533   9.177
 8788OM     OM1 8788   1.686   9.053   2.485
 8789OM     OM1 8789   1.931   9.020   2.573
 8790OM     OM1 8790   4.348   0.718   1.456
 8791OM     OM1 8791   4.266   0.486   1.515
 8792OM     OM1 8792   4.477   0.523   1.361
 8793OM     OM1 8793   3.009   8.466   1.174
 8794OM     OM1 8794   3.261   8.412   1.188
 8795OM     OM1 8795   0.340   9.272   2.822
 8796OM     OM1 8796   6.829   9.266   6.679
 8797OM     OM1 8797   6.864   9.399   6.463
 8798OM     OM1 8798   5.159   0.960   1.043
 8799OM     OM1 8799   5.286   1.185   0.969
 8800OM     OM1 8800   6.585   9.113   8.680
 8801OM     OM1 8801   6.428   9.084   8.478
 8802OM     OM1 8802   6.599   8.899   8.531
 8803OM     OM1 8803   7.582   9.100   5.130
 8804OM     OM1 8804   7.348   9.138   5.217
 8805OM     OM1 8805   3.997   9.567   2.010
 8806OM     OM1 8806   4.205   0.084   2.093
 8807OM     OM1 8807   3.972   0.222   2.065
 8808OM     OM1 8808   4.229   8.693   0.410
 8809OM     OM1 8809   7.242   8.919   5.305
 8810OM     OM1 8810   7.462   8.992   5.411
 8811OM     OM1 8811   7.247   9.130   5.464
 8812OM     OM1 8812   4.665   0.466   9.071
 8813OM     OM1 8813   6.302   8.403   5.681
 8814OM     OM1 8814   6.489   0.571   9.534
 8815OM     OM1 8815   2.335   8.406   6.345
 8816OM     OM1 8816   2.426   8.695   6.274
 8817OM     OM1 8817   5.388   9.142   6.404
 8818OM     OM1 8818   3.787   0.369   6.035
 8819OM     OM1 8819   3.780   0.189   6.229
 8820OM     OM1 8820   1.418   9.531   0.357
 8821OM     OM1 8821   1.345   8.386   2.286
 8822OM     OM1 8822   9.453   1.330   9.218
 8823OM     OM1 8823   3.153   8.744   8.235
 8824OM     OM1 8824   3.009   8.690   8.031
 8825OM     OM1 8825   3.714   0.750   3.905
 8826OM     OM1 8826   5.662   8.846   3.439
 8827OM     OM1 8827   2.672   8.574   9.285
 8828OM     OM1 8828   2.855   8.388   9.348
 8829OM     OM1 8829   2.739   8.416   9.103
 8830OM     OM1 8830   5.431   0.270   8.904
 8831OM     OM1 8831   7.368   9.491   2.612
 8832OM     OM1 8832   7.287   0.124   2.555
 8833OM     OM1 8833   7.474   0.107   2.733
 8834OM     OM1 8834   7.239   0.014   2.795
 8835OM     OM1 8835   2.957   8.848   0.559
 8836OM     OM1 8836   2.295   9.273   6.720
 8837OM     OM1 8837   8.228   9.516   0.286
 8838OM     OM1 8838   8.582   0.080   9.257
 8839OM     OM1 8839   8.382   9.584   9.137
 8840OM     OM1 8840   8.366   0.081   9.385
 8841OM     OM1 8841   4.315   1.270   6.831
 8842OM     OM1 8842   4.369   1.039   6.956
 8843OM     OM1 8843   5.718   8.573   6.612
 8844OM     OM1 8844   5.495   8.582   6.456
 8845OM     OM1 8845   4.115   9.286   6.487
 8846OM     OM1 8846   3.992   9.496   6.553
 8847OM     OM1 8847   4.418   0.657   9.278
 8848OM     OM1 8848   4.409   0.729   0.096
 8849OM     OM1 8849   9.043   0.357   2.242
 8850OM     OM1 8850   9.120   0.162   5.706
 8851OM     OM1 8851   0.831   8.316   4.171
 8852OM     OM1 8852   3.729   8.892   9.066
 8853OM     OM1 8853   3.754   9.147   9.078
 8854OM     OM1 8854   3.605   9.053   8.899
 8855OM     OM1 8855   3.885   9.302   2.643
 8856OM     OM1 8856   3.635   9.203   2.899
 8857OM     OM1 8857   3.732   9.321   3.110
 8858OM     OM1 8858   7.124   0.241   4.400
 8859OM     OM1 8859   7.332   0.115   4.316
 8860OM     OM1 8860   7.212   0.043   4.539
 8861OM     OM1 8861   7.854   0.755   5.359
 8862OM     OM1 8862   7.852   0.587   5.159
 8863OM     OM1 8863   8.063   0.579   5.312
 8864OM     OM1 8864   0.818   8.508   1.809
 8865OM     OM1 8865   0.783   8.367   2.044
 8866OM     OM1 8866   6.337   8.449   1.434
 8867OM     OM1 8867   6.123   8.381   1.316
 8868OM     OM1 8868   5.868   0.849   2.132
 8869OM     OM1 8869   3.172   1.259   9.488
 8870OM     OM1 8870   0.787   0.587   6.732
 8871OM     OM1 8871   0.639   0.370   6.779
 8872OM     OM1 8872   8.541   9.505   5.923
 8873OM     OM1 8873   9.202   8.508   7.931
 8874OM     OM1 8874   9.097   8.385   8.131
 8875OM     OM1 8875   8.961   8.423   7.908
 8876OM     OM1 8876   6.343   1.225   4.666
 8877OM     OM1 8877   4.345   1.131   2.673
 8878OM     OM1 8878   3.823   8.349   8.529
 8879OM     OM1 8879   3.848   8.273   8.287
 8880OM     OM1 8880   6.938   9.208   1.753
 8881OM     OM1 8881   8.591   8.796   0.704
 8882OM     OM1 8882   8.567   9.052   0.715
 8883OM     OM1 8883   4.926   0.844   8.431
 8884OM     OM1 8884   4.912   9.366   4.225
 8885OM     OM1 8885   5.155   9.473   4.238
 8886OM     OM1 8886   3.734   0.288   5.285
 8887OM     OM1 8887   3.571   0.457   5.170
 8888OM     OM1 8888   3.284   0.548   8.777
 8889OM     OM1 8889   3.362   0.340   8.902
 8890OM     OM1 8890   3.104   0.401   8.868
 8891OM     OM1 8891   2.157   8.821   6.881
 8892OM     OM1 8892   2.173   9.053   6.783
 8893OM     OM1 8893   5.807   9.412   3.793
 8894OM     OM1 8894   5.582   0.346   3.867
 8895OM     OM1 8895   4.785   0.713   4.958
 8896OM     OM1 8896   7.919   8.952   7.569
 8897OM     OM1 8897   8.054   8.736   7.653
 8898OM     OM1 8898   7.979   8.760   7.415
 8899OM     OM1 8899   9.597   8.875   6.069
 8900OM     OM1 8900   4.918   0.653   4.361
 8901OM     OM1 8901   4.930   0.762   4.132
 8902OM     OM1 8902   0.033   8.905   3.251
 8903OM     OM1 8903   9.387   8.959   3.216
 8904OM     OM1 8904   7.876   0.216   2.479
 8905OM     OM1 8905   8.065   0.039   2.527
 8906OM     OM1 8906   8.111   0.265   2.405
 8907OM     OM1 8907   0.268   8.622   9.172
 8908OM     OM1 8908   4.049   1.245   1.346
 8909OM     OM1 8909   3.883   8.829   2.694
 8910OM     OM1 8910   3.753   8.972   2.868
 8911OM     OM1 8911   8.950   8.849   1.474
 8912OM     OM1 8912   8.978   8.911   1.720
 8913OM     OM1 8913   3.132   1.074   4.184
 8914OM     OM1 8914   3.588   8.982   4.274
 8915OM     OM1 8915   3.780   8.888   4.427
 8916OM     OM1 8916   2.037   8.299   1.301
 8917OM     OM1 8917   1.905   0.218   4.229
 8918OM     OM1 8918   2.200   0.042   1.908
 8919OM     OM1 8919   2.107   9.464   2.063
 8920OM     OM1 8920   2.178   9.398   1.819
 8921OM     OM1 8921   7.638   9.349   9.434
 8922OM     OM1 8922   7.679   9.227   9.206
 8923OM     OM1 8923   3.393   1.348   6.662
 8924OM     OM1 8924   7.863   9.045   8.231
 8925OM     OM1 8925   7.620   9.079   8.150
 8926OM     OM1 8926   7.828   9.105   7.976
 8927OM     OM1 8927   4.316   1.336   7.682
 8928OM     OM1 8928   9.179   8.238   1.220
 8929OM     OM1 8929   8.480   9.307   8.586
 8930OM     OM1 8930   8.448   8.884   2.775
 8931OM     OM1 8931   8.637   8.897   2.939
 8932OM     OM1 8932   8.685   8.902   2.672
 8933OM     OM1 8933   8.574   9.106   2.797
 8934OM     OM1 8934   3.401   9.356   0.842
 8935OM     OM1 8935   3.422   9.097   0.843
 8936OM     OM1 8936   5.517   0.400   4.467
 8937OM     OM1 8937   0.720   1.008   5.847
 8938OM     OM1 8938   0.659   1.263   5.884
 8939OM     OM1 8939   8.565   9.289   4.548
 8940OM     OM1 8940   0.537   0.405   6.004
 8941OM     OM1 8941   3.644   8.747   4.717
 8942OM     OM1 8942   2.168   8.283   3.011
 8943OM     OM1 8943   2.902   9.206   2.853
 8944OM     OM1 8944   2.736   9.162   2.660
 8945OM     OM1 8945   2.708   9.054   2.905
 8946OM     OM1 8946   2.893   8.970   2.737
 8947OM     OM1 8947   8.608   0.739   4.540
 8948OM     OM1 8948   8.790   0.913   4.514
 8949OM     OM1 8949   2.472   0.267   2.019
 8950OM     OM1 8950   2.347   0.264   2.248
 8951OM     OM1 8951   2.567   0.113   2.211
 8952OM     OM1 8952   2.591   0.364   2.227
 8953OM     OM1 8953   4.244   9.293   6.176
 8954OM     OM1 8954   1.789   1.134   3.686
 8955OM     OM1 8955   1.590   1.023   3.799
 8956OM     OM1 8956   1.645   1.269   3.865
 8957OM     OM1 8957   9.229   0.660   6.309
 8958OM     OM1 8958   9.385   0.718   6.120
 8959OM     OM1 8959   9.132   0.771   6.081
 8960OM     OM1 8960   9.116   9.484   6.601
 8961OM     OM1 8961   0.924   1.354   0.892
 8962OM     OM1 8962   8.773   8.318   5.191
 8963OM     OM1 8963   6.636   0.029   9.345
 8964OM     OM1 8964   1.363   9.252   9.066
 8965OM     OM1 8965   1.553   9.198   9.242
 8966OM     OM1 8966   1.552   9.426   9.109
 8967OM     OM1 8967   9.273   9.393   6.792
 8968OM     OM1 8968   2.411   8.692   5.789
 8969OM     OM1 8969   2.502   8.870   5.957
 8970OM     OM1 8970   7.663   0.914   5.451
 8971OM     OM1 8971   6.121   0.761   4.285
 8972OM     OM1 8972   6.361   0.885   4.296
 8973OM     OM1 8973   6.244   0.838   4.066
 8974OM     OM1 8974   5.194   1.200   5.341
 8975OM     OM1 8975   4.550   1.233   8.502
 8976OM     OM1 8976   2.808   9.040   7.193
 8977OM     OM1 8977   2.731   8.776   7.603
 8978OM     OM1 8978   2.761   8.581   7.448
 8979OM     OM1 8979   7.186   1.132   1.045
 8980OM     OM1 8980   7.018   1.143   1.250
 8981OM     OM1 8981   7.023   0.942   1.096
 8982OM     OM1 8982   8.170   9.394   7.425
 8983OM     OM1 8983   8.245   0.006   7.291
 8984OM     OM1 8984   0.059   8.583   4.757
 8985OM     OM1 8985   0.227   8.403   4.845
 8986OM     OM1 8986   0.697   0.409   8.841
 8987OM     OM1 8987   6.187   8.854   1.951
 8988OM     OM1 8988   6.213   9.114   1.911
 8989OM     OM1 8989   6.166   9.014   2.153
 8990OM     OM1 8990   1.707   1.103   7.936
 8991OM     OM1 8991   3.583   0.454   3.934
 8992OM     OM1 8992   3.806   0.413   3.793
 8993OM     OM1 8993   6.332   0.818   0.520
 8994OM     OM1 8994   6.105   0.937   0.622
 8995OM     OM1 8995   8.673   8.907   0.177
 8996OM     OM1 8996   2.478   0.442   8.185
 8997OM     OM1 8997   2.606   0.658   8.123
 8998OM     OM1 8998   6.347   9.372   2.434
 8999OM     OM1 8999   0.679   0.416   7.737
 9000OM     OM1 9000   0.809   0.594   7.864
 9001OM     OM1 9001   3.171   8.314   8.505
 9002OM     OM1 9002   0.975   8.639   9.445
 9003OM     OM1 9003   0.796   8.538   9.601
 9004OM     OM1 9004   0.803   8.460   9.352
 9005OM     OM1 9005   3.487   1.231   7.630
 9006OM     OM1 9006   7.641   0.381   8.773
 9007OM     OM1 9007   7.668   0.134   8.755
 9008OM     OM1 9008   7.682   0.266   8.533
 9009OM     OM1 9009   2.407   8.603   9.272
 9010OM     OM1 9010   1.047   8.352   8.028
 9011OM     OM1 9011   5.180   1.285   9.437
 9012OM     OM1 9012   5.144   1.184   0.086
 9013OM     OM1 9013   2.986   9.019   5.541
 9014OM     OM1 9014   2.972   8.951   5.283
 9015OM     OM1 9015   5.848   0.726   6.974
 9016OM     OM1 9016   5.744   0.675   7.205
 9017OM     OM1 9017   5.777   0.609   6.751
 9018OM     OM1 9018   7.898   0.840   4.424
 9019OM     OM1 9019   4.311   9.367   3.059
 9020OM     OM1 9020   3.227   0.856   8.044
 9021OM     OM1 9021   3.096   1.092   8.076
 9022OM     OM1 9022   3.606   0.112   0.916
 9023OM     OM1 9023   3.580   0.327   0.770
 9024OM     OM1 9024   3.856   8.478   4.291
 9025OM     OM1 9025   4.035   8.316   4.395
 9026OM     OM1 9026   4.775   0.799   1.667
 9027OM     OM1 9027   4.687   0.589   1.790
 9028OM     OM1 9028   4.617   0.826   1.880
 9029OM     OM1 9029   3.786   8.523   4.737
 9030OM     OM1 9030   3.878   8.729   4.601
 9031OM     OM1 9031   7.651   1.142   0.521
 9032OM     OM1 9032   7.847   1.287   0.435
 9033OM     OM1 9033   7.892   1.087   0.597
 9034OM     OM1 9034   0.079   8.588   1.651
 9035OM     OM1 9035   1.649   8.400   8.824
 9036OM     OM1 9036   6.045   0.045   0.018
 9037OM     OM1 9037   6.250   0.140   0.132
 9038OM     OM1 9038   0.593   0.240   5.454
 9039OM     OM1 9039   0.657   0.025   5.592
 9040OM     OM1 9040   1.841   9.169   6.863
 9041OM     OM1 9041   1.842   9.588   7.009
 9042OM     OM1 9042   1.856   9.426   6.800
 9043OM     OM1 9043   2.068   9.282   6.838
 9044OM     OM1 9044   3.782   0.565   9.116
 9045OM     OM1 9045   4.318   9.455   2.183
 9046OM     OM1 9046   2.306   0.844   6.266
 9047OM     OM1 9047   2.410   1.048   6.150
 9048OM     OM1 9048   9.182   1.302   8.297
 9049OM     OM1 9049   5.913   9.118   5.997
 9050OM     OM1 9050   5.889   9.303   6.183
 9051OM     OM1 9051   5.733   8.634   5.318
 9052OM     OM1 9052   5.996   8.701   5.324
 9053OM     OM1 9053   5.183   8.578   3.759
 9054OM     OM1 9054   7.665   1.291   7.765
 9055OM     OM1 9055   7.843   1.164   7.640
 9056OM     OM1 9056   8.774   8.554   5.646
 9057OM     OM1 9057   7.947   0.224   6.566
 9058OM     OM1 9058   8.202   0.153   6.626
 9059OM     OM1 9059   8.104   0.404   6.652
 9060OM     OM1 9060   3.188   0.820   4.148
 9061OM     OM1 9061   3.513   1.090   3.852
 9062OM     OM1 9062   2.597   0.020   4.434
 9063OM     OM1 9063   2.465   0.170   4.283
 9064OM     OM1 9064   2.458   0.201   4.552
 9065OM     OM1 9065   0.806   9.546   3.676
 9066OM     OM1 9066   2.213   0.496   7.332
 9067OM     OM1 9067   3.761   8.314   3.448
 9068OM     OM1 9068   5.254   0.016   2.714
 9069OM     OM1 9069   5.235   0.243   2.645
 9070OM     OM1 9070   3.381   0.002   7.728
 9071OM     OM1 9071   3.550   9.534   7.902
 9072OM     OM1 9072   6.015   0.979   6.377
 9073OM     OM1 9073   6.218   0.605   6.329
 9074OM     OM1 9074   3.043   0.465   5.838
 9075OM     OM1 9075   3.283   0.523   5.929
 9076OM     OM1 9076   0.646   0.651   2.657
 9077OM     OM1 9077   0.581   0.787   2.874
 9078OM     OM1 9078   0.756   0.587   2.879
 9079OM     OM1 9079   0.501   0.547   2.860
 9080OM     OM1 9080   3.221   9.115   9.049
 9081OM     OM1 9081   3.205   8.875   8.958
 9082OM     OM1 9082   3.316   8.801   9.349
 9083OM     OM1 9083   3.141   8.923   9.208
 9084OM     OM1 9084   6.760   0.572   2.340
 9085OM     OM1 9085   5.971   0.786   1.898
 9086OM     OM1 9086   0.855   8.754   1.099
 9087OM     OM1 9087   6.867   0.661   5.503
 9088OM     OM1 9088   4.402   1.200   1.419
 9089OM     OM1 9089   4.388   1.208   1.681
 9090OM     OM1 9090   4.577   1.328   1.548
 9091OM     OM1 9091   8.715   8.489   7.848
 9092OM     OM1 9092   8.517   8.329   7.844
 9093OM     OM1 9093   8.561   8.513   8.055
 9094OM     OM1 9094   8.687   8.513   8.287
 9095OM     OM1 9095   8.740   8.695   8.116
 9096OM     OM1 9096   3.399   8.938   8.796
 9097OM     OM1 9097   3.216   8.772   8.724
 9098OM     OM1 9098   4.866   8.398   6.036
 9099OM     OM1 9099   8.970   0.162   8.781
 9100OM     OM1 9100   8.964   9.521   8.711
 9101OM     OM1 9101   7.065   9.417   7.165
 9102OM     OM1 9102   6.968   9.194   7.077
 9103OM     OM1 9103   4.521   1.223   0.147
 9104OM     OM1 9104   4.669   1.240   0.368
 9105OM     OM1 9105   2.830   9.582   8.013
 9106OM     OM1 9106   3.059   9.479   8.131
 9107OM     OM1 9107   3.035   9.581   7.886
 9108OM     OM1 9108   2.925   0.027   9.537
 9109OM     OM1 9109   3.103   0.603   4.031
 9110OM     OM1 9110   5.234   8.487   8.340
 9111OM     OM1 9111   5.472   8.371   8.140
 9112OM     OM1 9112   5.147   8.627   8.136
 9113OM     OM1 9113   1.556   0.877   8.225
 9114OM     OM1 9114   0.567   0.190   7.721
 9115OM     OM1 9115   0.817   0.108   7.693
 9116OM     OM1 9116   0.626   9.546   7.666
 9117OM     OM1 9117   7.204   0.854   3.872
 9118OM     OM1 9118   7.160   1.048   4.026
 9119OM     OM1 9119   7.071   1.182   3.822
 9120OM     OM1 9120   7.145   0.795   4.124
 9121OM     OM1 9121   7.134   9.394   2.545
 9122OM     OM1 9122   6.959   9.209   2.486
 9123OM     OM1 9123   7.152   8.798   0.395
 9124OM     OM1 9124   7.288   8.653   0.238
 9125OM     OM1 9125   7.068   8.785   0.148
 9126OM     OM1 9126   7.126   8.990   9.604
 9127OM     OM1 9127   3.177   0.147   7.761
 9128OM     OM1 9128   2.936   0.143   7.682
 9129OM     OM1 9129   6.408   9.097   9.203
 9130OM     OM1 9130   2.779   9.081   4.572
 9131OM     OM1 9131   2.847   9.033   4.331
 9132OM     OM1 9132   3.043   9.067   4.509
 9133OM     OM1 9133   2.904   9.268   4.425
 9134OM     OM1 9134   0.833   9.578   0.234
 9135OM     OM1 9135   6.186   0.240   4.587
 9136OM     OM1 9136   6.170   0.390   4.374
 9137OM     OM1 9137   3.550   9.027   2.718
 9138OM     OM1 9138   3.471   8.922   2.484
 9139OM     OM1 9139   4.077   8.333   0.730
 9140OM     OM1 9140   4.141   8.320   0.979
 9141OM     OM1 9141   2.279   0.117   1.338
 9142OM     OM1 9142   4.561   9.362   2.967
 9143OM     OM1 9143   7.305   1.200   4.944
 9144OM     OM1 9144   7.244   1.120   4.700
 9145OM     OM1 9145   8.578   0.653   8.782
 9146OM     OM1 9146   9.197   9.561   8.828
 9147OM     OM1 9147   9.182   0.048   9.076
 9148OM     OM1 9148   9.328   9.447   9.017
 9149OM     OM1 9149   2.208   9.399   9.108
 9150OM     OM1 9150   2.388   9.291   9.258
 9151OM     OM1 9151   2.278   9.151   9.067
 9152OM     OM1 9152   3.659   0.268   7.060
 9153OM     OM1 9153   3.653   0.509   7.148
 9154OM     OM1 9154   3.434   0.384   7.157
 9155OM     OM1 9155   6.755   8.901   7.565
 9156OM     OM1 9156   7.002   0.239   8.314
 9157OM     OM1 9157   7.264   0.260   8.332
 9158OM     OM1 9158   6.713   0.831   8.482
 9159OM     OM1 9159   6.973   1.044   8.285
 9160OM     OM1 9160   3.207   0.385   1.510
 9161OM     OM1 9161   3.261   0.626   1.566
 9162OM     OM1 9162   3.332   0.528   1.337
 9163OM     OM1 9163   0.926   8.489   2.341
 9164OM     OM1 9164   0.746   8.315   2.299
 9165OM     OM1 9165   0.675   8.548   2.403
 9166OM     OM1 9166   0.759   0.144   6.793
 9167OM     OM1 9167   0.500   0.145   6.811
 9168OM     OM1 9168   4.533   8.373   8.329
 9169OM     OM1 9169   4.756   8.585   1.775
 9170OM     OM1 9170   8.516   0.377   2.472
 9171OM     OM1 9171   8.672   0.203   2.596
 9172OM     OM1 9172   3.493   8.403   2.822
 9173OM     OM1 9173   8.585   0.291   8.270
 9174OM     OM1 9174   8.781   0.219   7.896
 9175OM     OM1 9175   8.651   0.419   8.064
 9176OM     OM1 9176   4.573   0.818   8.671
 9177OM     OM1 9177   4.489   0.684   8.869
 9178OM     OM1 9178   1.359   0.573   6.646
 9179OM     OM1 9179   0.958   8.691   9.124
 9180OM     OM1 9180   1.313   8.419   8.882
 9181OM     OM1 9181   1.102   8.530   9.267
 9182OM     OM1 9182   7.045   0.861   7.711
 9183OM     OM1 9183   9.334   8.425   6.050
 9184OM     OM1 9184   9.479   8.645   6.032
 9185OM     OM1 9185   4.190   9.164   7.578
 9186OM     OM1 9186   4.371   9.418   8.442
 9187OM     OM1 9187   7.591   8.790   5.296
 9188OM     OM1 9188   1.393   0.613   6.050
 9189OM     OM1 9189   8.281   1.349   5.480
 9190OM     OM1 9190   8.275   1.240   5.241
 9191OM     OM1 9191   8.477   1.384   5.320
 9192OM     OM1 9192   2.826   8.643   1.129
 9193OM     OM1 9193   1.994   1.295   1.134
 9194OM     OM1 9194   9.335   1.367   5.109
 9195OM     OM1 9195   7.558   0.857   8.149
 9196OM     OM1 9196   5.512   0.206   4.089
 9197OM     OM1 9197   5.380   9.602   4.179
 9198OM     OM1 9198   3.807   0.928   0.301
 9199OM     OM1 9199   3.917   0.869   0.077
 9200OM     OM1 9200   4.042   0.806   0.310
 9201OM     OM1 9201   0.817   1.025   6.940
 9202OM     OM1 9202   1.044   1.144   6.983
 9203OM     OM1 9203   6.924   9.536   3.526
 9204OM     OM1 9204   6.881   0.108   3.327
 9205OM     OM1 9205   2.933   8.733   3.956
 9206OM     OM1 9206   2.816   8.920   4.093
 9207OM     OM1 9207   3.956   9.383   5.012
 9208OM     OM1 9208   3.861   9.306   4.786
 9209OM     OM1 9209   4.081   9.189   4.886
 9210OM     OM1 9210   9.037   1.090   5.393
 9211OM     OM1 9211   9.036   0.852   5.304
 9212OM     OM1 9212   8.829   1.016   5.260
 9213OM     OM1 9213   2.002   9.300   5.249
 9214OM     OM1 9214   9.313   9.066   7.357
 9215OM     OM1 9215   9.187   0.953   4.431
 9216OM     OM1 9216   8.856   1.112   4.367
 9217OM     OM1 9217   2.804   0.917   4.966
 9218OM     OM1 9218   2.662   1.132   5.000
 9219OM     OM1 9219   9.350   0.903   3.259
 9220OM     OM1 9220   3.649   0.224   8.571
 9221OM     OM1 9221   3.599   0.278   8.823
 9222OM     OM1 9222   4.155   0.718   6.472
 9223OM     OM1 9223   7.730   0.479   1.806
 9224OM     OM1 9224   7.854   0.707   1.825
 9225OM     OM1 9225   1.437   0.370   5.966
 9226OM     OM1 9226   5.968   9.231   0.952
 9227OM     OM1 9227   5.887   9.463   1.053
 9228OM     OM1 9228   1.179   0.072   1.722
 9229OM     OM1 9229   2.044   1.206   7.150
 9230OM     OM1 9230   1.804   1.162   7.248
 9231OM     OM1 9231   1.900   1.010   7.068
 9232OM     OM1 9232   3.853   0.639   4.790
 9233OM     OM1 9233   3.653   0.538   4.929
 9234OM     OM1 9234   2.253   0.897   7.809
 9235OM     OM1 9235   2.420   0.786   7.990
 9236OM     OM1 9236   1.644   0.073   2.083
 9237OM     OM1 9237   1.887   9.580   2.164
 9238OM     OM1 9238   7.671   0.781   0.945
 9239OM     OM1 9239   7.701   0.524   0.943
 9240OM     OM1 9240   9.389   8.659   2.883
 9241OM     OM1 9241   9.146   8.620   2.972
 9242OM     OM1 9242   9.270   8.853   3.011
 9243OM     OM1 9243   2.639   9.443   1.379
 9244OM     OM1 9244   2.713   9.367   1.142
 9245OM     OM1 9245   5.852   0.863   5.208
 9246OM     OM1 9246   5.838   0.910   5.470
 9247OM     OM1 9247   5.676   1.022   5.313
 9248OM     OM1 9248   9.074   8.657   8.610
 9249OM     OM1 9249   8.851   8.627   8.728
 9250OM     OM1 9250   8.854   8.593   8.474
 9251OM     OM1 9251   5.779   0.431   0.727
 9252OM     OM1 9252   5.980   0.309   0.844
 9253OM     OM1 9253   3.152   0.368   6.773
 9254OM     OM1 9254   7.561   8.358   8.166
 9255OM     OM1 9255   4.907   9.243   1.374
 9256OM     OM1 9256   4.733   9.256   1.186
 9257OM     OM1 9257   8.744   8.962   6.770
 9258OM     OM1 9258   8.622   8.890   6.559
 9259OM     OM1 9259   8.872   9.297   3.430
 9260OM     OM1 9260   9.026   9.165   3.608
 9261OM     OM1 9261   1.093   8.680   0.292
 9262OM     OM1 9262   1.230   8.829   0.446
 9263OM     OM1 9263   2.563   8.297   7.525
 9264OM     OM1 9264   2.811   8.329   7.453
 9265OM     OM1 9265   8.940   8.608   8.963
 9266OM     OM1 9266   5.139   0.309   1.643
 9267OM     OM1 9267   5.274   0.209   1.842
 9268OM     OM1 9268   5.162   0.457   1.856
 9269OM     OM1 9269   5.548   1.397   7.333
 9270OM     OM1 9270   5.360   1.181   0.205
 9271OM     OM1 9271   5.611   1.187   0.154
 9272OM     OM1 9272   3.852   8.997   5.290
 9273OM     OM1 9273   3.621   9.077   5.177
 9274OM     OM1 9274   3.850   9.174   5.111
 9275OM     OM1 9275   5.608   8.976   5.850
 9276OM     OM1 9276   0.515   1.252   6.509
 9277OM     OM1 9277   5.761   0.716   3.534
 9278OM     OM1 9278   5.935   9.098   0.076
 9279OM     OM1 9279   8.329   9.178   2.731
 9280OM     OM1 9280   8.118   9.200   2.884
 9281OM     OM1 9281   8.205   8.965   2.794
 9282OM     OM1 9282   6.883   9.094   6.860
 9283OM     OM1 9283   1.399   8.522   1.582
 9284OM     OM1 9284   1.202   8.248   1.312
 9285OM     OM1 9285   7.293   0.760   3.632
 9286OM     OM1 9286   9.452   8.382   0.205
 9287OM     OM1 9287   3.776   8.639   0.866
 9288OM     OM1 9288   3.969   8.518   1.003
 9289OM     OM1 9289   0.925   8.599   3.486
 9290OM     OM1 9290   1.144   8.738   3.494
 9291OM     OM1 9291   0.936   8.863   3.553
 9292OM     OM1 9292   1.796   9.165   5.351
 9293OM     OM1 9293   1.786   9.240   5.104
 9294OM     OM1 9294   7.326   8.583   7.312
 9295OM     OM1 9295   7.558   9.052   9.349
 9296OM     OM1 9296   7.368   9.062   9.529
 9297OM     OM1 9297   2.025   8.746   0.105
 9298OM     OM1 9298   1.880   8.622   9.529
 9299OM     OM1 9299   1.861   8.877   9.548
 9300OM     OM1 9300   2.547   9.395   8.825
 9301OM     OM1 9301   2.721   9.602   8.829
 9302OM     OM1 9302   5.527   9.451   7.337
 9303OM     OM1 9303   5.603   9.379   7.093
 9304OM     OM1 9304   7.869   9.193   2.931
 9305OM     OM1 9305   6.707   1.128   4.056
 9306OM     OM1 9306   6.638   0.969   3.866
 9307OM     OM1 9307   6.810   1.155   3.811
 9308OM     OM1 9308   3.139   0.537   9.088
 9309OM     OM1 9309   7.814   0.400   3.366
 9310OM     OM1 9310   0.657   0.331   5.000
 9311OM     OM1 9311   0.572   0.390   5.246
 9312OM     OM1 9312   0.999   8.750   4.868
 9313OM     OM1 9313   0.847   8.576   4.731
 9314OM     OM1 9314   0.808   8.606   4.982
 9315OM     OM1 9315   5.002   0.177   0.487
 9316OM     OM1 9316   4.807   0.348   0.528
 9317OM     OM1 9317   1.605   9.345   1.020
 9318OM     OM1 9318   0.808   9.463   2.795
 9319OM     OM1 9319   0.894   0.104   2.795
 9320OM     OM1 9320   0.716   0.029   2.965
 9321OM     OM1 9321   0.262   0.927   4.027
 9322OM     OM1 9322   0.489   0.817   3.950
 9323OM     OM1 9323   9.126   8.857   6.100
 9324OM     OM1 9324   2.161   8.899   7.133
 9325OM     OM1 9325   1.956   8.960   6.981
 9326OM     OM1 9326   6.784   0.373   8.357
 9327OM     OM1 9327   6.719   0.572   8.516
 9328OM     OM1 9328   7.684   8.794   1.609
 9329OM     OM1 9329   7.271   8.495   1.600
 9330OM     OM1 9330   3.047   0.587   2.850
 9331OM     OM1 9331   2.690   9.387   0.874
 9332OM     OM1 9332   2.780   9.176   0.987
 9333OM     OM1 9333   2.523   9.236   1.010
 9334OM     OM1 9334   0.409   0.285   4.537
 9335OM     OM1 9335   0.606   0.133   4.587
 9336OM     OM1 9336   8.289   8.907   4.698
 9337OM     OM1 9337   6.206   9.124   2.387
 9338OM     OM1 9338   6.152   8.866   2.358
 9339OM     OM1 9339   9.174   0.688   0.380
 9340OM     OM1 9340   2.166   0.701   2.195
 9341OM     OM1 9341   1.961   0.797   2.322
 9342OM     OM1 9342   7.273   9.367   1.563
 9343OM     OM1 9343   7.409   9.448   1.773
 9344OM     OM1 9344   0.099   1.059   9.536
 9345OM     OM1 9345   0.023   0.835   0.033
 9346OM     OM1 9346   2.926   0.124   4.081
 9347OM     OM1 9347   7.399   9.079   4.455
 9348OM     OM1 9348   7.456   1.453   7.753
 9349OM     OM1 9349   2.431   9.153   8.861
 9350OM     OM1 9350   3.028   9.078   7.073
 9351OM     OM1 9351   2.531   9.276   6.935
 9352OM     OM1 9352   2.701   9.407   7.071
 9353OM     OM1 9353   1.784   8.415   5.773
 9354OM     OM1 9354   1.784   9.187   7.930
 9355OM     OM1 9355   5.982   9.050   4.036
 9356OM     OM1 9356   6.068   8.906   4.234
 9357OM     OM1 9357   9.583   0.369   0.884
 9358OM     OM1 9358   8.019   0.680   1.140
 9359OM     OM1 9359   8.268   0.937   1.313
 9360OM     OM1 9360   8.141   0.894   1.093
 9361OM     OM1 9361   3.099   0.485   8.185
 9362OM     OM1 9362   9.044   1.035   4.221
 9363OM     OM1 9363   4.629   9.262   5.026
 9364OM     OM1 9364   4.863   9.171   4.972
 9365OM     OM1 9365   3.184   0.199   5.127
 9366OM     OM1 9366   2.968   0.240   4.987
 9367OM     OM1 9367   3.198   0.308   4.893
 9368OM     OM1 9368   3.125   8.773   5.929
 9369OM     OM1 9369   3.135   8.942   5.737
 9370OM     OM1 9370   2.731   0.576   0.469
 9371OM     OM1 9371   6.658   0.769   0.828
 9372OM     OM1 9372   6.656   0.613   0.624
 9373OM     OM1 9373   2.199   0.674   5.382
 9374OM     OM1 9374   2.187   0.993   9.510
 9375OM     OM1 9375   1.747   8.316   0.631
 9376OM     OM1 9376   9.310   0.910   3.989
 9377OM     OM1 9377   9.251   0.687   3.865
 9378OM     OM1 9378   1.567   0.147   2.949
 9379OM     OM1 9379   1.370   0.281   2.830
 9380OM     OM1 9380   1.213   9.392   2.087
 9381OM     OM1 9381   1.384   9.356   1.903
 9382OM     OM1 9382   1.534   0.216   5.451
 9383OM     OM1 9383   1.603   9.595   5.340
 9384OM     OM1 9384   1.863   8.681   7.936
 9385OM     OM1 9385   8.273   8.731   2.894
 9386OM     OM1 9386   8.293   8.586   3.116
 9387OM     OM1 9387   8.429   8.807   3.078
 9388OM     OM1 9388   7.595   1.123   5.908
 9389OM     OM1 9389   4.716   8.961   0.696
 9390OM     OM1 9390   4.823   9.200   0.711
 9391OM     OM1 9391   3.266   0.322   7.349
 9392OM     OM1 9392   1.565   0.629   8.647
 9393OM     OM1 9393   5.750   8.624   4.062
 9394OM     OM1 9394   5.525   8.530   4.157
 9395OM     OM1 9395   5.602   8.430   3.945
 9396OM     OM1 9396   6.740   9.385   6.219
 9397OM     OM1 9397   8.559   9.016   2.476
 9398OM     OM1 9398   8.508   9.233   2.336
 9399OM     OM1 9399   8.318   9.032   2.367
 9400OM     OM1 9400   4.592   9.326   0.717
 9401OM     OM1 9401   7.831   0.268   1.915
 9402OM     OM1 9402   1.032   1.236   8.131
 9403OM     OM1 9403   0.784   1.188   8.181
 9404OM     OM1 9404   7.629   0.731   0.013
 9405OM     OM1 9405   3.864   1.366   9.211
 9406OM     OM1 9406   5.394   0.248   0.165
 9407OM     OM1 9407   5.235   0.791   1.873
 9408OM     OM1 9408   5.246   0.621   2.057
 9409OM     OM1 9409   8.715   0.603   1.194
 9410OM     OM1 9410   7.272   0.451   6.227
 9411OM     OM1 9411   7.316   0.596   6.015
 9412OM     OM1 9412   6.928   8.931   7.049
 9413OM     OM1 9413   6.690   8.881   7.127
 9414OM     OM1 9414   5.270   8.932   9.477
 9415OM     OM1 9415   9.233   8.676   8.125
 9416OM     OM1 9416   9.193   8.682   8.391
 9417OM     OM1 9417   9.152   8.887   8.255
 9418OM     OM1 9418   8.989   8.701   8.207
 9419OM     OM1 9419   6.135   9.043   6.670
 9420OM     OM1 9420   5.082   9.127   5.930
 9421OM     OM1 9421   5.262   9.291   5.812
 9422OM     OM1 9422   5.007   9.303   5.755
 9423OM     OM1 9423   8.807   8.436   1.516
 9424OM     OM1 9424   8.977   8.368   1.327
 9425OM     OM1 9425   9.014   8.594   1.465
 9426OM     OM1 9426   1.956   0.084   9.413
 9427OM     OM1 9427   6.464   0.371   5.843
 9428OM     OM1 9428   2.550   0.554   0.655
 9429OM     OM1 9429   2.519   0.595   0.903
 9430OM     OM1 9430   1.608   1.234   9.367
 9431OM     OM1 9431   6.251   8.901   7.303
 9432OM     OM1 9432   2.635   9.459   5.723
 9433OM     OM1 9433   2.714   0.094   5.689
 9434OM     OM1 9434   2.171   0.010   3.231
 9435OM     OM1 9435   8.538   9.130   6.768
 9436OM     OM1 9436   8.304   9.212   6.660
 9437OM     OM1 9437   6.108   0.359   0.140
 9438OM     OM1 9438   9.440   0.119   4.777
 9439OM     OM1 9439   9.538   0.196   5.002
 9440OM     OM1 9440   0.554   0.004   6.608
 9441OM     OM1 9441   8.920   8.392   8.326
 9442OM     OM1 9442   3.958   0.271   5.430
 9443OM     OM1 9443   3.844   0.501   5.365
 9444OM     OM1 9444   8.899   1.101   1.230
 9445OM     OM1 9445   5.715   0.075   1.011
 9446OM     OM1 9446   5.967   0.090   0.971
 9447OM     OM1 9447   5.800   9.546   0.820
 9448OM     OM1 9448   3.225   8.490   7.573
 9449OM     OM1 9449   2.966   8.499   7.594
 9450OM     OM1 9450   3.132   8.641   7.759
 9451OM     OM1 9451   7.629   9.326   6.383
 9452OM     OM1 9452   7.723   0.098   6.578
 9453OM     OM1 9453   3.641   8.955   1.249
 9454OM     OM1 9454   3.753   9.200   1.263
 9455OM     OM1 9455   3.979   9.363   0.717
 9456OM     OM1 9456   4.870   8.315   9.134
 9457OM     OM1 9457   7.133   9.049   6.924
 9458OM     OM1 9458   6.941   8.324   1.950
 9459OM     OM1 9459   6.902   0.955   6.490
 9460OM     OM1 9460   7.110   1.105   6.570
 9461OM     OM1 9461   5.851   0.173   3.034
 9462OM     OM1 9462   5.735   0.177   2.804
 9463OM     OM1 9463   5.887   0.378   2.875
 9464OM     OM1 9464   6.313   8.362   4.637
 9465OM     OM1 9465   2.823   1.093   4.784
 9466OM     OM1 9466   1.474   0.822   3.905
 9467OM     OM1 9467   8.864   0.778   7.299
 9468OM     OM1 9468   8.777   0.550   7.191
 9469OM     OM1 9469   4.479   0.945   0.537
 9470OM     OM1 9470   4.655   0.834   0.686
 9471OM     OM1 9471   4.713   1.062   0.554
 9472OM     OM1 9472   8.820   8.981   2.471
 9473OM     OM1 9473   4.975   9.107   5.197
 9474OM     OM1 9474   4.956   9.350   5.133
 9475OM     OM1 9475   4.732   8.909   8.502
 9476OM     OM1 9476   4.581   9.104   8.587
 9477OM     OM1 9477   4.684   9.110   8.351
 9478OM     OM1 9478   2.875   1.060   1.884
 9479OM     OM1 9479   7.012   1.074   1.677
 9480OM     OM1 9480   6.866   0.892   1.575
 9481OM     OM1 9481   3.695   1.111   8.679
 9482OM     OM1 9482   7.129   8.640   2.679
 9483OM     OM1 9483   3.104   8.836   3.425
 9484OM     OM1 9484   1.674   9.470   5.118
 9485OM     OM1 9485   1.355   0.017   5.420
 9486OM     OM1 9486   5.253   9.212   0.057
 9487OM     OM1 9487   4.968   9.405   9.463
 9488OM     OM1 9488   9.443   0.663   6.471
 9489OM     OM1 9489   9.232   0.523   6.521
 9490OM     OM1 9490   7.698   0.071   1.216
 9491OM     OM1 9491   7.868   0.243   1.159
 9492OM     OM1 9492   5.326   1.320   7.226
 9493OM     OM1 9493   4.185   0.913   7.078
 9494OM     OM1 9494   7.733   0.324   6.437
 9495OM     OM1 9495   0.426   9.167   0.542
 9496OM     OM1 9496   7.996   9.318   4.965
 9497OM     OM1 9497   0.217   9.358   6.021
 9498OM     OM1 9498   0.119   9.347   6.257
 9499OM     OM1 9499   4.094   1.116   1.615
 9500OM     OM1 9500   5.198   1.262   4.498
 9501OM     OM1 9501   4.696   9.229   0.932
 9502OM     OM1 9502   4.509   9.157   1.104
 9503OM     OM1 9503   7.660   9.124   7.257
 9504OM     OM1 9504   8.992   8.487   4.729
 9505OM     OM1 9505   1.342   1.260   7.379
 9506OM     OM1 9506   1.165   1.166   7.546
 9507OM     OM1 9507   0.968   0.703   0.241
 9508OM     OM1 9508   0.882   0.592   0.010
 9509OM     OM1 9509   1.422   1.018   4.854
 9510OM     OM1 9510   4.563   8.462   0.121
 9511OM     OM1 9511   4.872   8.596   0.445
 9512OM     OM1 9512   4.687   8.744   0.549
 9513OM     OM1 9513   1.726   9.227   4.686
 9514OM     OM1 9514   1.577   9.447   4.697
 9515OM     OM1 9515   1.478   9.198   4.712
 9516OM     OM1 9516   1.619   9.308   4.911
 9517OM     OM1 9517   3.942   1.017   7.152
 9518OM     OM1 9518   6.954   9.041   2.288
 9519OM     OM1 9519   0.877   0.973   5.010
 9520OM     OM1 9520   5.101   8.425   1.461
 9521OM     OM1 9521   3.852   0.711   1.412
 9522OM     OM1 9522   8.540   0.225   2.881
 9523OM     OM1 9523   2.785   9.465   1.729
 9524OM     OM1 9524   3.017   9.435   1.852
 9525OM     OM1 9525   8.659   0.714   2.803
 9526OM     OM1 9526   7.091   0.921   1.881
 9527OM     OM1 9527   8.767   1.007   6.676
 9528OM     OM1 9528   8.720   0.784   6.554
 9529OM     OM1 9529   1.464   0.633   2.717
 9530OM     OM1 9530   1.246   0.504   2.798
 9531OM     OM1 9531   1.247   0.760   2.706
 9532OM     OM1 9532   3.119   0.097   3.912
 9533OM     OM1 9533   2.949   9.511   3.945
 9534OM     OM1 9534   2.922   9.382   4.183
 9535OM     OM1 9535   1.880   0.037   9.160
 9536OM     OM1 9536   7.635   0.128   8.057
 9537OM     OM1 9537   7.703   9.586   7.861
 9538OM     OM1 9538   6.373   8.912   9.390
 9539OM     OM1 9539   6.408   8.836   0.025
 9540OM     OM1 9540   0.770   0.133   4.842
 9541OM     OM1 9541   6.549   1.156   9.307
 9542OM     OM1 9542   6.326   1.181   9.176
 9543OM     OM1 9543   6.465   0.961   9.152
 9544OM     OM1 9544   6.348   1.014   9.382
 9545OM     OM1 9545   8.065   9.295   1.957
 9546OM     OM1 9546   1.901   0.232   5.813
 9547OM     OM1 9547   6.795   8.521   9.080
 9548OM     OM1 9548   6.988   8.390   8.964
 9549OM     OM1 9549   1.938   8.241   8.944
 9550OM     OM1 9550   4.793   0.869   2.869
 9551OM     OM1 9551   4.867   0.899   2.614
 9552OM     OM1 9552   0.676   9.041   1.337
 9553OM     OM1 9553   0.792   8.938   1.552
 9554OM     OM1 9554   0.792   8.801   1.337
 9555OM     OM1 9555   5.990   0.612   7.162
 9556OM     OM1 9556   6.558   8.503   6.351
 9557OM     OM1 9557   6.635   8.511   6.102
 9558OM     OM1 9558   7.788   1.438   3.801
 9559OM     OM1 9559   3.427   9.141   6.363
 9560OM     OM1 9560   3.693   9.189   6.364
 9561OM     OM1 9561   8.266   8.318   6.908
 9562OM     OM1 9562   8.262   8.379   6.644
 9563OM     OM1 9563   2.152   1.308   7.360
 9564OM     OM1 9564   3.080   8.722   8.502
 9565OM     OM1 9565   7.221   0.912   4.550
 9566OM     OM1 9566   7.414   0.936   4.724
 9567OM     OM1 9567   2.456   0.033   5.660
 9568OM     OM1 9568   5.999   8.300   2.883
 9569OM     OM1 9569   9.356   8.874   5.977
 9570OM     OM1 9570   9.544   8.783   5.820
 9571OM     OM1 9571   1.851   0.259   9.030
 9572OM     OM1 9572   1.654   9.240   4.441
 9573OM     OM1 9573   3.891   8.556   8.676
 9574OM     OM1 9574   4.125   8.459   1.625
 9575OM     OM1 9575   4.279   8.503   1.408
 9576OM     OM1 9576   2.735   8.524   2.837
 9577OM     OM1 9577   2.786   8.740   2.698
 9578OM     OM1 9578   1.586   8.456   4.177
 9579OM     OM1 9579   4.331   9.038   9.292
 9580OM     OM1 9580   7.867   0.028   8.859
 9581OM     OM1 9581   6.305   1.191   3.530
 9582OM     OM1 9582   6.115   1.040   3.611
 9583OM     OM1 9583   6.111   1.294   3.665
 9584OM     OM1 9584   7.075   8.797   3.426
 9585OM     OM1 9585   7.045   8.617   3.632
 9586OM     OM1 9586   4.151   0.596   7.231
 9587OM     OM1 9587   7.811   0.916   7.572
 9588OM     OM1 9588   0.629   0.731   7.999
 9589OM     OM1 9589   0.880   0.807   7.989
 9590OM     OM1 9590   0.801   0.590   8.126
 9591OM     OM1 9591   6.233   0.592   9.541
 9592OM     OM1 9592   6.179   0.835   9.468
 9593OM     OM1 9593   6.123   0.916   3.841
 9594OM     OM1 9594   6.388   0.909   3.864
 9595OM     OM1 9595   3.829   0.659   9.562
 9596OM     OM1 9596   3.673   0.624   0.166
 9597OM     OM1 9597   3.719   0.874   9.502
 9598OM     OM1 9598   9.064   8.549   2.045
 9599OM     OM1 9599   8.825   8.603   2.148
 9600OM     OM1 9600   7.669   0.729   5.063
 9601OM     OM1 9601   7.782   8.477   3.047
 9602OM     OM1 9602   7.972   8.309   3.090
 9603OM     OM1 9603   9.515   8.469   1.492
 9604OM     OM1 9604   6.340   9.185   0.026
 9605OM     OM1 9605   6.509   9.128   9.438
 9606OM     OM1 9606   9.334   8.367   0.439
 9607OM     OM1 9607   9.539   0.726   7.567
 9608OM     OM1 9608   9.284   0.668   7.600
 9609OM     OM1 9609   5.105   9.492   8.036
 9610OM     OM1 9610   5.208   9.274   7.933
 9611OM     OM1 9611   5.077   9.270   8.157
 9612OM     OM1 9612   4.599   0.301   1.366
 9613OM     OM1 9613   4.646   0.469   1.562
 9614OM     OM1 9614   7.622   8.623   3.837
 9615OM     OM1 9615   7.604   8.637   4.093
 9616OM     OM1 9616   0.452   8.684   2.799
 9617OM     OM1 9617   0.672   8.806   2.827
 9618OM     OM1 9618   9.017   0.623   3.081
 9619OM     OM1 9619   6.437   9.218   5.135
 9620OM     OM1 9620   3.774   9.056   4.112
 9621OM     OM1 9621   6.544   8.505   9.067
 9622OM     OM1 9622   8.075   8.224   0.156
 9623OM     OM1 9623   0.678   8.557   8.721
 9624OM     OM1 9624   0.792   8.637   8.493
 9625OM     OM1 9625   0.942   8.586   8.685
 9626OM     OM1 9626   5.868   0.362   5.234
 9627OM     OM1 9627   6.097   0.249   5.207
 9628OM     OM1 9628   5.998   0.409   5.015
 9629OM     OM1 9629   6.096   0.507   5.232
 9630OM     OM1 9630   8.393   0.894   4.508
 9631OM     OM1 9631   8.447   1.077   4.698
 9632OM     OM1 9632   8.367   8.832   6.556
 9633OM     OM1 9633   8.486   8.884   6.327
 9634OM     OM1 9634   8.216   8.980   6.707
 9635OM     OM1 9635   1.828   0.889   3.108
 9636OM     OM1 9636   1.569   0.920   3.111
 9637OM     OM1 9637   3.653   9.428   1.350
 9638OM     OM1 9638   2.660   0.882   7.980
 9639OM     OM1 9639   2.533   0.897   8.199
 9640OM     OM1 9640   0.138   8.957   4.047
 9641OM     OM1 9641   7.168   0.305   7.547
 9642OM     OM1 9642   4.127   8.455   1.202
 9643OM     OM1 9643   3.931   8.300   1.128
 9644OM     OM1 9644   3.991   1.326   5.001
 9645OM     OM1 9645   3.904   1.303   5.246
 9646OM     OM1 9646   4.928   8.854   4.448
 9647OM     OM1 9647   5.010   8.820   4.693
 9648OM     OM1 9648   8.198   1.245   0.858
 9649OM     OM1 9649   5.154   0.872   4.211
 9650OM     OM1 9650   5.233   1.020   4.405
 9651OM     OM1 9651   5.414   0.917   4.239
 9652OM     OM1 9652   2.969   1.153   1.076
 9653OM     OM1 9653   5.583   8.335   0.276
 9654OM     OM1 9654   8.668   1.126   0.455
 9655OM     OM1 9655   8.142   0.824   9.375
 9656OM     OM1 9656   8.344   0.974   9.361
 9657OM     OM1 9657   7.592   9.301   0.434
 9658OM     OM1 9658   3.998   0.881   1.561
 9659OM     OM1 9659   4.061   0.636   1.542
 9660OM     OM1 9660   3.853   0.689   1.676
 9661OM     OM1 9661   4.256   8.570   4.192
 9662OM     OM1 9662   4.012   8.588   4.125
 9663OM     OM1 9663   4.160   8.394   4.025
 9664OM     OM1 9664   4.872   8.945   5.377
 9665OM     OM1 9665   3.236   8.560   1.988
 9666OM     OM1 9666   3.049   8.703   2.101
 9667OM     OM1 9667   4.251   8.487   6.397
 9668OM     OM1 9668   4.348   8.365   6.611
 9669OM     OM1 9669   4.392   8.616   6.571
 9670OM     OM1 9670   4.515   8.451   6.422
 9671OM     OM1 9671   6.601   9.131   4.183
 9672OM     OM1 9672   8.585   8.229   5.355
 9673OM     OM1 9673   0.618   1.195   0.047
 9674OM     OM1 9674   6.235   8.583   4.754
 9675OM     OM1 9675   7.571   0.284   1.899
 9676OM     OM1 9676   1.296   9.499   8.077
 9677OM     OM1 9677   0.190   1.014   3.064
 9678OM     OM1 9678   0.326   1.232   3.046
 9679OM     OM1 9679   0.130   1.200   2.886
 9680OM     OM1 9680   9.438   9.234   4.761
 9681OM     OM1 9681   9.407   9.481   4.694
 9682OM     OM1 9682   9.195   9.339   4.761
 9683OM     OM1 9683   6.727   8.477   1.950
 9684OM     OM1 9684   2.614   9.031   4.204
 9685OM     OM1 9685   3.781   8.980   6.252
 9686OM     OM1 9686   3.560   8.814   6.278
 9687OM     OM1 9687   9.147   0.168   1.000
 9688OM     OM1 9688   9.109   0.388   0.886
 9689OM     OM1 9689   5.457   9.258   6.176
 9690OM     OM1 9690   9.395   8.231   6.580
 9691OM     OM1 9691   6.764   8.378   6.445
 9692OM     OM1 9692   8.716   0.351   0.354
 9693OM     OM1 9693   1.712   9.043   9.393
 9694OM     OM1 9694   5.376   0.254   5.630
 9695OM     OM1 9695   5.143   0.348   5.559
 9696OM     OM1 9696   2.045   8.919   0.299
 9697OM     OM1 9697   2.153   9.135   0.406
 9698OM     OM1 9698   3.956   8.715   4.352
 9699OM     OM1 9699   5.509   1.091   3.761
 9700OM     OM1 9700   5.505   1.030   4.017
 9701OM     OM1 9701   5.730   1.102   3.924
 9702OM     OM1 9702   9.280   9.185   3.614
 9703OM     OM1 9703   9.458   9.237   3.785
 9704OM     OM1 9704   9.351   9.440   3.690
 9705OM     OM1 9705   4.018   9.242   7.156
 9706OM     OM1 9706   4.260   9.242   7.060
 9707OM     OM1 9707   3.922   9.479   7.202
 9708OM     OM1 9708   3.071   8.448   6.653
 9709OM     OM1 9709   7.013   0.089   2.897
 9710OM     OM1 9710   7.695   0.574   6.448
 9711OM     OM1 9711   7.513   0.419   6.328
 9712OM     OM1 9712   8.495   8.587   0.819
 9713OM     OM1 9713   8.245   8.509   0.828
 9714OM     OM1 9714   1.177   8.577   2.290
 9715OM     OM1 9715   1.036   8.657   2.499
 9716OM     OM1 9716   2.732   0.461   0.973
 9717OM     OM1 9717   2.935   0.333   1.095
 9718OM     OM1 9718   6.301   0.315   0.315
 9719OM     OM1 9719   1.300   9.187   5.255
 9720OM     OM1 9720   1.102   9.237   5.417
 9721OM     OM1 9721   1.060   9.142   5.180
 9722OM     OM1 9722   8.500   0.628   8.075
 9723OM     OM1 9723   8.708   0.784   8.129
 9724OM     OM1 9724   9.271   8.554   0.268
 9725OM     OM1 9725   6.347   0.387   0.067
 9726OM     OM1 9726   8.651   9.062   6.998
 9727OM     OM1 9727   0.263   1.237   7.313
 9728OM     OM1 9728   7.921   0.586   6.590
 9729OM     OM1 9729   3.623   0.240   0.295
 9730OM     OM1 9730   3.515   0.476   0.301
 9731OM     OM1 9731   2.737   9.087   1.949
 9732OM     OM1 9732   5.173   1.160   6.764
 9733OM     OM1 9733   5.235   1.001   6.566
 9734OM     OM1 9734   4.999   1.100   6.571
 9735OM     OM1 9735   5.075   0.916   6.742
 9736OM     OM1 9736   2.457   9.165   7.156
 9737OM     OM1 9737   2.377   9.404   7.104
 9738OM     OM1 9738   2.282   9.201   6.968
 9739OM     OM1 9739   7.100   0.218   1.366
 9740OM     OM1 9740   6.415   8.463   8.002
 9741OM     OM1 9741   4.582   9.482   2.531
 9742OM     OM1 9742   7.541   8.563   6.886
 9743OM     OM1 9743   7.766   8.431   6.891
 9744OM     OM1 9744   5.445   1.133   5.339
 9745OM     OM1 9745   5.274   0.958   5.425
 9746OM     OM1 9746   7.034   0.904   8.077
 9747OM     OM1 9747   6.786   1.015   8.105
 9748OM     OM1 9748   7.465   0.683   2.155
 9749OM     OM1 9749   7.133   8.559   8.845
 9750OM     OM1 9750   7.223   8.378   9.025
 9751OM     OM1 9751   0.063   1.168   2.635
 9752OM     OM1 9752   0.111   0.929   2.543
 9753OM     OM1 9753   9.470   1.005   2.559
 9754OM     OM1 9754   5.153   9.237   0.950
 9755OM     OM1 9755   5.759   1.092   5.640
 9756OM     OM1 9756   5.954   1.143   5.464
 9757OM     OM1 9757   5.028   0.663   3.503
 9758OM     OM1 9758   5.158   0.812   3.325
 9759OM     OM1 9759   6.724   9.381   3.176
 9760OM     OM1 9760   6.572   9.304   2.986
 9761OM     OM1 9761   9.106   8.744   1.879
 9762OM     OM1 9762   9.206   0.225   1.845
 9763OM     OM1 9763   9.024   0.206   2.036
 9764OM     OM1 9764   6.926   1.164   6.066
 9765OM     OM1 9765   6.839   1.388   6.175
 9766OM     OM1 9766   9.080   8.400   3.106
 9767OM     OM1 9767   0.619   1.026   5.062
 9768OM     OM1 9768   0.819   1.192   5.131
 9769OM     OM1 9769   6.122   0.732   5.353
 9770OM     OM1 9770   6.034   0.716   5.103
 9771OM     OM1 9771   1.146   1.121   2.375
 9772OM     OM1 9772   1.036   1.004   2.181
 9773OM     OM1 9773   1.429   8.633   7.760
 9774OM     OM1 9774   5.724   1.189   5.871
 9775OM     OM1 9775   6.976   0.254   4.185
 9776OM     OM1 9776   1.108   0.276   2.805
 9777OM     OM1 9777   1.463   0.077   2.708
 9778OM     OM1 9778   4.937   8.560   9.402
 9779OM     OM1 9779   5.067   8.775   9.480
 9780OM     OM1 9780   6.445   0.221   1.063
 9781OM     OM1 9781   2.326   8.510   0.699
 9782OM     OM1 9782   2.171   8.707   0.616
 9783OM     OM1 9783   0.101   9.361   7.002
 9784OM     OM1 9784   0.120   9.385   7.270
 9785OM     OM1 9785   0.289   9.244   7.134
 9786OM     OM1 9786   3.580   0.411   9.053
 9787OM     OM1 9787   6.361   0.086   6.770
 9788OM     OM1 9788   6.570   9.564   6.825
 9789OM     OM1 9789   2.704   0.723   7.256
 9790OM     OM1 9790   2.856   0.591   3.311
 9791OM     OM1 9791   2.808   0.747   3.521
 9792OM     OM1 9792   2.919   0.835   3.277
 9793OM     OM1 9793   9.001   8.961   1.971
 9794OM     OM1 9794   1.676   8.937   1.550
 9795OM     OM1 9795   1.518   8.738   1.647
 9796OM     OM1 9796   9.482   1.029   0.819
 9797OM     OM1 9797   9.453   1.224   1.005
 9798OM     OM1 9798   7.421   0.715   7.286
 9799OM     OM1 9799   7.478   0.494   7.164
 9800OM     OM1 9800   0.262   0.165   1.905
 9801OM     OM1 9801   0.310   0.092   1.654
 9802OM     OM1 9802   7.060   1.060   5.875
 9803OM     OM1 9803   7.142   1.034   6.129
 9804OM     OM1 9804   2.667   8.383   5.407
 9805OM     OM1 9805   3.842   9.396   1.905
 9806OM     OM1 9806   3.405   8.628   1.801
 9807OM     OM1 9807   5.026   8.528   6.989
 9808OM     OM1 9808   8.934   8.416   9.458
 9809OM     OM1 9809   7.263   9.398   7.560
 9810OM     OM1 9810   7.018   9.485   7.562
 9811OM     OM1 9811   8.001   0.907   1.796
 9812OM     OM1 9812   8.109   0.679   1.860
 9813OM     OM1 9813   2.129   9.418   5.782
 9814OM     OM1 9814   1.931   9.582   5.803
 9815OM     OM1 9815   1.897   9.349   5.696
 9816OM     OM1 9816   0.241   9.280   8.162
 9817OM     OM1 9817   0.344   0.576   4.620
 9818OM     OM1 9818   0.127   0.540   4.753
 9819OM     OM1 9819   2.907   0.831   7.370
 9820OM     OM1 9820   2.934   0.639   7.536
 9821OM     OM1 9821   6.737   9.045   1.674
 9822OM     OM1 9822   8.759   8.391   1.057
 9823OM     OM1 9823   8.940   8.219   1.117
 9824OM     OM1 9824   1.352   8.550   8.214
 9825OM     OM1 9825   7.532   1.109   2.125
 9826OM     OM1 9826   2.208   9.390   6.027
 9827OM     OM1 9827   8.356   8.393   2.955
 9828OM     OM1 9828   8.214   8.344   3.176
 9829OM     OM1 9829   2.133   9.187   7.505
 9830OM     OM1 9830   2.323   9.274   7.670
 9831OM     OM1 9831   1.173   0.402   4.166
 9832OM     OM1 9832   1.060   0.170   4.175
 9833OM     OM1 9833   0.986   0.351   4.004
 9834OM     OM1 9834   6.598   8.929   9.270
 9835OM     OM1 9835   0.955   8.450   0.271
 9836OM     OM1 9836   8.505   9.382   2.120
 9837OM     OM1 9837   8.362   9.401   1.893
 9838OM     OM1 9838   8.245   9.395   2.120
 9839OM     OM1 9839   7.014   9.349   1.036
 9840OM     OM1 9840   7.183   9.381   0.841
 9841OM     OM1 9841   1.575   0.420   8.499
 9842OM     OM1 9842   1.504   0.400   8.747
 9843OM     OM1 9843   2.975   8.502   7.334
 9844OM     OM1 9844   3.011   8.359   7.122
 9845OM     OM1 9845   3.194   0.021   1.876
 9846OM     OM1 9846   3.303   0.249   1.802
 9847OM     OM1 9847   3.233   0.056   1.623
 9848OM     OM1 9848   7.332   9.311   4.016
 9849OM     OM1 9849   0.624   0.507   5.475
 9850OM     OM1 9850   0.860   0.539   5.387
 9851OM     OM1 9851   8.566   0.933   9.547
 9852OM     OM1 9852   5.942   1.404   1.698
 9853OM     OM1 9853   6.160   1.277   1.678
 9854OM     OM1 9854   1.988   0.191   3.305
 9855OM     OM1 9855   3.850   8.591   8.929
 9856OM     OM1 9856   3.760   8.656   9.167
 9857OM     OM1 9857   1.051   0.135   7.138
 9858OM     OM1 9858   2.905   8.382   0.010
 9859OM     OM1 9859   3.052   8.310   0.219
 9860OM     OM1 9860   1.156   0.554   8.305
 9861OM     OM1 9861   0.927   0.669   8.327
 9862OM     OM1 9862   3.194   9.482   0.949
 9863OM     OM1 9863   2.976   9.344   0.964
 9864OM     OM1 9864   5.316   8.823   7.356
 9865OM     OM1 9865   1.668   0.788   3.720
 9866OM     OM1 9866   1.861   0.638   3.795
 9867OM     OM1 9867   4.468   0.799   1.681
 9868OM     OM1 9868   4.459   0.951   1.461
 9869OM     OM1 9869   4.252   0.903   1.606
 9870OM     OM1 9870   3.204   9.001   6.892
 9871OM     OM1 9871   4.245   0.638   0.265
 9872OM     OM1 9872   4.425   0.470   0.166
 9873OM     OM1 9873   6.016   8.590   4.029
 9874OM     OM1 9874   5.908   8.817   3.973
 9875OM     OM1 9875   7.634   8.537   8.655
 9876OM     OM1 9876   7.769   8.717   8.520
 9877OM     OM1 9877   7.985   1.117   1.638
 9878OM     OM1 9878   7.919   0.878   1.545
 9879OM     OM1 9879   4.553   0.438   8.280
 9880OM     OM1 9880   1.314   0.774   6.804
 9881OM     OM1 9881   1.215   0.550   6.885
 9882OM     OM1 9882   2.213   8.732   6.135
 9883OM     OM1 9883   2.322   8.933   6.261
 9884OM     OM1 9884   6.221   0.276   6.648
 9885OM     OM1 9885   0.439   0.897   9.336
 9886OM     OM1 9886   1.163   9.305   7.967
 9887OM     OM1 9887   4.932   0.242   2.209
 9888OM     OM1 9888   5.076   0.418   2.576
 9889OM     OM1 9889   5.041   0.203   2.454
 9890OM     OM1 9890   5.629   9.208   6.375
 9891OM     OM1 9891   5.854   9.239   6.509
 9892OM     OM1 9892   5.630   9.207   6.626
 9893OM     OM1 9893   4.086   0.528   0.687
 9894OM     OM1 9894   4.191   0.671   0.510
 9895OM     OM1 9895   2.901   9.250   2.476
 9896OM     OM1 9896   9.150   0.295   6.605
 9897OM     OM1 9897   4.064   0.000   0.184
 9898OM     OM1 9898   3.870   0.143   0.275
 9899OM     OM1 9899   6.774   1.279   3.195
 9900OM     OM1 9900   8.085   0.362   1.168
 9901OM     OM1 9901   7.862   0.497   1.205
 9902OM     OM1 9902   7.929   0.421   0.964
 9903OM     OM1 9903   3.034   1.282   3.732
 9904OM     OM1 9904   2.875   1.262   3.511
 9905OM     OM1 9905   2.819   1.134   3.730
 9906OM     OM1 9906   1.268   9.391   5.522
 9907OM     OM1 9907   1.095   9.578   5.455
 9908OM     OM1 9908   6.974   8.915   0.853
 9909OM     OM1 9909   6.810   8.906   0.658
 9910OM     OM1 9910   7.320   8.422   9.257
 9911OM     OM1 9911   3.055   8.763   9.394
 9912OM     OM1 9912   7.641   9.316   8.561
 9913OM     OM1 9913   6.957   0.990   3.669
 9914OM     OM1 9914   5.526   8.795   0.257
 9915OM     OM1 9915   5.785   8.809   0.226
 9916OM     OM1 9916   5.036   9.310   2.329
 9917OM     OM1 9917   2.715   0.673   5.009
 9918OM     OM1 9918   2.764   0.418   5.004
 9919OM     OM1 9919   3.995   8.566   6.588
 9920OM     OM1 9920   4.137   8.713   6.432
 9921OM     OM1 9921   7.115   8.758   4.809
 9922OM     OM1 9922   3.572   0.341   6.180
 9923OM     OM1 9923   3.372   0.321   6.660
 9924OM     OM1 9924   7.842   9.166   7.442
 9925OM     OM1 9925   7.852   9.148   7.715
 9926OM     OM1 9926   8.001   0.937   1.309
 9927OM     OM1 9927   2.682   8.302   9.502
 9928OM     OM1 9928   7.506   9.507   7.538
 9929OM     OM1 9929   4.679   9.192   2.812
 9930OM     OM1 9930   2.484   8.355   0.852
 9931OM     OM1 9931   8.703   9.387   4.981
 9932OM     OM1 9932   8.578   0.003   5.034
 9933OM     OM1 9933   4.352   1.115   4.841
 9934OM     OM1 9934   7.852   0.533   0.725
 9935OM     OM1 9935   3.560   8.805   9.256
 9936OM     OM1 9936   0.138   9.546   4.388
 9937OM     OM1 9937   9.589   9.382   4.265
 9938OM     OM1 9938   6.251   0.503   7.718
 9939OM     OM1 9939   8.161   8.556   7.819
 9940OM     OM1 9940   8.040   8.889   8.122
 9941OM     OM1 9941   3.972   0.138   7.168
 9942OM     OM1 9942   3.755   0.030   7.091
 9943OM     OM1 9943   1.344   8.682   0.627
 9944OM     OM1 9944   6.081   0.664   7.386
 9945OM     OM1 9945   1.810   0.515   4.885
 9946OM     OM1 9946   1.613   0.356   4.847
 9947OM     OM1 9947   8.751   0.852   2.592
 9948OM     OM1 9948   8.977   0.974   2.595
 9949OM     OM1 9949   8.542   1.130   6.711
 9950OM     OM1 9950   8.486   1.241   6.473
 9951OM     OM1 9951   4.698   9.206   3.776
 9952OM     OM1 9952   4.501   9.218   3.945
 9953OM     OM1 9953   4.683   9.029   3.965
 9954OM     OM1 9954   4.751   9.271   4.025
 9955OM     OM1 9955   5.481   8.910   5.636
 9956OM     OM1 9956   1.520   0.157   8.668
 9957OM     OM1 9957   9.063   0.138   9.303
 9958OM     OM1 9958   0.898   9.542   3.137
 9959OM     OM1 9959   8.981   9.120   8.940
 9960OM     OM1 9960   9.067   9.344   8.865
 9961OM     OM1 9961   4.918   0.843   1.011
 9962OM     OM1 9962   8.544   8.439   1.539
 9963OM     OM1 9963   8.669   8.397   1.310
 9964OM     OM1 9964   7.630   8.529   3.243
 9965OM     OM1 9965   4.529   1.090   5.220
 9966OM     OM1 9966   4.267   1.079   5.173
 9967OM     OM1 9967   6.468   8.951   4.310
 9968OM     OM1 9968   4.752   0.074   8.230
 9969OM     OM1 9969   4.955   0.095   8.072
 9970OM     OM1 9970   1.474   9.192   6.657
 9971OM     OM1 9971   6.195   1.237   4.453
 9972OM     OM1 9972   6.197   1.015   4.607
 9973OM     OM1 9973   0.158   0.901   4.258
 9974OM     OM1 9974   0.145   8.711   3.840
 9975OM     OM1 9975   0.173   8.949   3.784
 9976OM     OM1 9976   2.344   0.475   7.564
 9977OM     OM1 9977   7.999   8.604   8.502
 9978OM     OM1 9978   8.375   8.420   8.752
 9979OM     OM1 9979   3.360   0.704   5.746
 9980OM     OM1 9980   3.482   0.696   5.963
 9981OM     OM1 9981   3.525   0.247   3.275
 9982OM     OM1 9982   5.454   8.717   4.403
 9983OM     OM1 9983   1.027   8.902   5.078
 9984OM     OM1 9984   1.138   0.746   0.442
 9985OM     OM1 9985   1.319   0.886   0.324
 9986OM     OM1 9986   0.202   9.517   7.488
 9987OM     OM1 9987   0.078   0.337   0.657
 9988OM     OM1 9988   6.488   9.093   4.908
 9989OM     OM1 9989   6.433   9.200   4.676
 9990OM     OM1 9990   1.400   1.290   0.891
 9991OM     OM1 9991   0.778   1.342   6.100
 9992OM     OM1 9992   0.647   1.201   6.282
 9993OM     OM1 9993   3.754   1.179   9.353
 9994OM     OM1 9994   4.143   1.047   9.460
 9995OM     OM1 9995   4.010   1.253   9.381
 9996OM     OM1 9996   5.494   0.007   1.097
 9997OM     OM1 9997   8.697   8.559   7.138
 9998OM     OM1 9998   8.647   8.510   7.396
 9999OM     OM1 9999   8.726   0.275   7.259
10000OM     OM110000   8.778   0.456   7.432
10001OM     OM110001   8.956   0.380   7.252
10002OM     OM110002   1.153   8.681   4.299
10003OM     OM110003   1.331   8.781   4.165
10004OM     OM110004   1.380   8.559   4.301
10005OM     OM110005   2.155   9.592   6.196
10006OM     OM110006   1.960   0.118   6.284
10007OM     OM110007   5.593   0.362   5.727
10008OM     OM110008   6.542   1.066   6.008
10009OM     OM110009   3.800   8.855   9.321
10010OM     OM110010   2.052   0.258   1.952
10011OM     OM110011   2.285   0.280   1.844
10012OM     OM110012   8.075   8.235   4.448
10013OM     OM110013   0.781   9.211   8.314
10014OM     OM110014   0.721   9.109   8.083
10015OM     OM110015   8.042   8.776   4.203
10016OM     OM110016   6.863   0.463   0.566
10017OM     OM110017   6.969   0.224   0.616
10018OM     OM110018   1.947   0.496   4.669
10019OM     OM110019   1.895   0.354   4.455
10020OM     OM110020   2.036   0.245   4.649
10021OM     OM110021   2.228   1.083   1.532
10022OM     OM110022   8.343   8.882   8.751
10023OM     OM110023   8.444   8.662   8.812
10024OM     OM110024   8.102   8.906   8.809
10025OM     OM110025   1.440   9.169   2.477
10026OM     OM110026   1.469   0.180   0.305
10027OM     OM110027   4.313   0.308   3.023
10028OM     OM110028   4.374   0.363   3.271
10029OM     OM110029   9.319   8.733   7.879
10030OM     OM110030   6.948   1.342   2.629
10031OM     OM110031   7.463   8.621   9.359
10032OM     OM110032   7.517   8.554   0.108
10033OM     OM110033   0.471   1.267   2.372
10034OM     OM110034   6.444   1.343   4.055
10035OM     OM110035   6.607   1.266   4.244
10036OM     OM110036   6.368   1.357   4.298
10037OM     OM110037   0.790   8.768   6.113
10038OM     OM110038   0.771   8.697   6.364
10039OM     OM110039   6.750   0.127   5.322
10040OM     OM110040   0.715   9.096   6.299
10041OM     OM110041   0.913   9.482   7.759
10042OM     OM110042   6.107   8.543   0.829
10043OM     OM110043   6.084   8.438   1.068
10044OM     OM110044   2.294   8.915   0.705
10045OM     OM110045   2.429   9.016   0.908
10046OM     OM110046   4.038   8.470   4.764
10047OM     OM110047   3.878   8.372   4.938
10048OM     OM110048   1.503   1.290   9.137
10049OM     OM110049   1.912   8.432   1.842
10050OM     OM110050   2.086   8.602   1.947
10051OM     OM110051   2.973   0.712   3.052
10052OM     OM110052   8.234   0.458   1.821
10053OM     OM110053   7.443   8.203   0.445
10054OM     OM110054   2.154   0.490   2.665
10055OM     OM110055   6.673   8.593   8.858
10056OM     OM110056   7.451   0.644   8.024
10057OM     OM110057   0.240   0.642   8.022
10058OM     OM110058   0.274   0.387   8.049
10059OM     OM110059   8.652   0.347   4.008
10060OM     OM110060   8.663   0.405   3.746
10061OM     OM110061   8.837   0.244   3.867
10062OM     OM110062   3.088   0.591   1.288
10063OM     OM110063   0.070   8.470   8.071
10064OM     OM110064   0.188   8.664   8.318
10065OM     OM110065   5.057   0.395   7.562
10066OM     OM110066   4.889   0.546   7.675
10067OM     OM110067   2.383   8.561   3.449
10068OM     OM110068   2.950   8.472   3.311
10069OM     OM110069   2.923   8.371   3.566
10070OM     OM110070   1.437   9.563   8.530
10071OM     OM110071   1.281   9.037   4.642
10072OM     OM110072   6.791   0.950   0.950
10073OM     OM110073   6.530   0.939   0.974
10074OM     OM110074   5.260   8.795   0.675
10075OM     OM110075   5.153   8.349   0.804
10076OM     OM110076   8.146   1.118   2.731
10077OM     OM110077   4.963   0.643   5.150
10078OM     OM110078   5.184   0.522   5.068
10079OM     OM110079   5.177   0.591   5.310
10080OM     OM110080   1.214   8.341   7.307
10081OM     OM110081   1.393   8.482   7.564
10082OM     OM110082   2.170   1.113   0.127
10083OM     OM110083   5.156   8.297   6.973
10084OM     OM110084   4.923   8.541   7.343
10085OM     OM110085   0.955   8.319   1.361
10086OM     OM110086   1.027   8.239   1.124
10087OM     OM110087   8.563   1.198   4.900
10088OM     OM110088   5.031   9.187   1.164
10089OM     OM110089   3.473   0.677   5.053
10090OM     OM110090   6.154   0.375   6.428
10091OM     OM110091   7.807   9.190   5.074
10092OM     OM110092   7.764   9.434   4.966
10093OM     OM110093   6.088   8.922   3.824
10094OM     OM110094   5.827   9.002   3.826
10095OM     OM110095   1.949   9.212   0.699
10096OM     OM110096   1.775   9.194   0.893
10097OM     OM110097   5.386   8.739   7.119
10098OM     OM110098   3.602   0.424   7.630
10099OM     OM110099   3.733   0.467   7.394
10100OM     OM110100   3.483   0.441   7.399
10101OM     OM110101   5.392   0.326   4.679
10102OM     OM110102   1.638   9.437   1.912
10103OM     OM110103   1.573   9.471   1.674
10104OM     OM110104   3.918   1.237   2.525
10105OM     OM110105   1.034   8.454   5.338
10106OM     OM110106   3.389   8.986   5.238
10107OM     OM110107   3.619   9.445   8.131
10108OM     OM110108   2.136   0.634   5.030
10109OM     OM110109   1.987   0.701   4.835
10110OM     OM110110   2.993   8.896   8.682
10111OM     OM110111   2.989   8.649   8.739
10112OM     OM110112   1.437   8.865   2.134
10113OM     OM110113   1.428   8.617   2.196
10114OM     OM110114   3.833   8.580   3.431
10115OM     OM110115   8.768   0.363   7.678
10116OM     OM110116   8.653   0.590   7.629
10117OM     OM110117   1.547   0.663   1.129
10118OM     OM110118   1.370   0.568   0.964
10119OM     OM110119   5.337   1.088   2.269
10120OM     OM110120   3.420   0.461   3.158
10121OM     OM110121   8.380   1.242   3.259
10122OM     OM110122   2.320   9.012   7.307
10123OM     OM110123   7.540   9.239   1.845
10124OM     OM110124   3.194   8.279   4.682
10125OM     OM110125   2.095   0.308   2.204
10126OM     OM110126   2.090   0.506   2.037
10127OM     OM110127   7.658   0.248   2.611
10128OM     OM110128   0.661   0.528   3.530
10129OM     OM110129   8.680   0.738   7.841
10130OM     OM110130   8.820   0.931   7.966
10131OM     OM110131   7.192   8.931   4.459
10132OM     OM110132   2.575   0.038   8.381
10133OM     OM110133   2.781   9.536   8.287
10134OM     OM110134   2.539   9.518   8.161
10135OM     OM110135   2.667   0.120   8.134
10136OM     OM110136   2.529   9.558   0.789
10137OM     OM110137   2.956   9.154   8.715
10138OM     OM110138   1.247   0.336   0.988
10139OM     OM110139   7.929   0.993   2.828
10140OM     OM110140   9.508   8.292   1.675
10141OM     OM110141   8.509   8.363   7.584
10142OM     OM110142   8.152   0.150   7.482
10143OM     OM110143   5.858   8.398   6.492
10144OM     OM110144   8.713   8.464   6.503
10145OM     OM110145   0.807   1.088   1.306
10146OM     OM110146   0.775   1.202   1.060
10147OM     OM110147   0.671   0.973   1.117
10148OM     OM110148   7.272   1.313   6.542
10149OM     OM110149   7.154   1.196   6.338
10150OM     OM110150   8.975   0.166   9.548
10151OM     OM110151   8.833   0.041   9.352
10152OM     OM110152   8.842   0.273   4.821
10153OM     OM110153   3.949   1.010   1.253
10154OM     OM110154   4.154   1.011   1.394
10155OM     OM110155   8.593   9.343   1.215
10156OM     OM110156   8.265   9.156   1.288
10157OM     OM110157   2.639   0.663   1.118
10158OM     OM110158   3.305   1.219   3.775
10159OM     OM110159   1.116   8.441   0.984
10160OM     OM110160   0.897   0.112   5.556
10161OM     OM110161   0.891   0.699   0.483
10162OM     OM110162   0.662   0.820   0.509
10163OM     OM110163   6.365   9.269   0.279
10164OM     OM110164   6.374   9.143   0.496
10165OM     OM110165   7.838   8.260   4.346
10166OM     OM110166   4.792   0.991   3.101
10167OM     OM110167   1.067   9.400   2.293
10168OM     OM110168   0.169   9.279   1.924
10169OM     OM110169   0.147   9.074   2.097
10170OM     OM110170   1.430   0.851   3.660
10171OM     OM110171   3.221   0.596   3.042
10172OM     OM110172   2.775   0.661   9.420
10173OM     OM110173   3.017   0.616   9.296
10174OM     OM110174   6.012   8.923   0.257
10175OM     OM110175   5.080   9.285   3.189
10176OM     OM110176   5.132   9.140   2.974
10177OM     OM110177   1.459   8.960   4.811
10178OM     OM110178   4.903   9.161   3.620
10179OM     OM110179   5.051   9.265   3.445
10180OM     OM110180   5.160   9.171   3.665
10181OM     OM110181   8.539   0.517   7.848
10182OM     OM110182   8.451   0.734   7.724
10183OM     OM110183   0.177   9.543   1.975
10184OM     OM110184   0.392   0.043   2.099
10185OM     OM110185   7.335   1.234   5.206
10186OM     OM110186   7.589   8.997   1.939
10187OM     OM110187   6.523   8.741   3.266
10188OM     OM110188   6.717   8.883   3.162
10189OM     OM110189   6.662   8.746   9.082
10190OM     OM110190   1.769   8.641   5.650
10191OM     OM110191   1.931   8.819   5.555
10192OM     OM110192   4.563   9.144   9.572
10193OM     OM110193   4.404   8.960   0.028
10194OM     OM110194   4.627   1.077   8.671
10195OM     OM110195   4.793   1.281   8.537
10196OM     OM110196   0.047   8.659   2.375
10197OM     OM110197   0.193   8.486   2.247
10198OM     OM110198   2.124   0.719   6.143
10199OM     OM110199   5.543   1.247   7.112
10200OM     OM110200   2.909   8.894   1.985
10201OM     OM110201   4.294   9.300   1.067
10202OM     OM110202   4.272   9.060   1.171
10203OM     OM110203   6.292   9.546   5.733
10204OM     OM110204   7.331   0.216   1.991
10205OM     OM110205   3.700   0.564   5.893
10206OM     OM110206   9.296   0.240   0.342
10207OM     OM110207   9.139   0.259   0.124
10208OM     OM110208   9.354   0.083   0.147
10209OM     OM110209   1.005   9.461   8.750
10210OM     OM110210   1.264   9.459   8.691
10211OM     OM110211   9.201   8.790   1.452
10212OM     OM110212   9.429   8.878   1.339
10213OM     OM110213   1.102   8.258   7.527
10214OM     OM110214   0.520   8.973   2.356
10215OM     OM110215   0.645   8.876   2.577
10216OM     OM110216   0.817   0.732   6.519
10217OM     OM110217   0.496   0.345   7.917
10218OM     OM110218   2.794   0.237   4.805
10219OM     OM110219   2.725   0.165   5.044
10220OM     OM110220   4.019   1.023   5.630
10221OM     OM110221   4.124   1.138   5.842
10222OM     OM110222   3.966   1.278   5.687
10223OM     OM110223   0.222   0.952   2.029
10224OM     OM110224   9.565   0.028   4.558
10225OM     OM110225   3.557   8.928   7.815
10226OM     OM110226   3.532   8.858   7.568
10227OM     OM110227   3.343   8.796   7.738
10228OM     OM110228   2.358   9.001   3.537
10229OM     OM110229   0.441   8.490   2.307
10230OM     OM110230   9.518   8.451   4.364
10231OM     OM110231   1.353   8.680   8.439
10232OM     OM110232   2.372   9.023   4.080
10233OM     OM110233   2.571   9.153   3.977
10234OM     OM110234   1.871   0.025   8.897
10235OM     OM110235   1.658   0.063   9.039
10236OM     OM110236   6.265   0.559   6.955
10237OM     OM110237   6.219   0.503   7.204
10238OM     OM110238   0.478   8.360   4.820
10239OM     OM110239   0.402   8.403   5.056
10240OM     OM110240   9.354   9.025   7.102
10241OM     OM110241   9.297   8.817   7.251
10242OM     OM110242   7.819   9.577   3.923
10243OM     OM110243   7.794   9.381   4.098
10244OM     OM110244   8.584   0.438   3.004
10245OM     OM110245   4.142   9.318   2.686
10246OM     OM110246   7.837   9.347   7.873
10247OM     OM110247   3.196   9.007   6.378
10248OM     OM110248   4.710   9.220   6.310
10249OM     OM110249   4.882   9.157   6.104
10250OM     OM110250   3.963   0.690   0.850
10251OM     OM110251   7.406   9.540   4.133
10252OM     OM110252   7.546   9.319   4.156
10253OM     OM110253   1.520   9.000   4.027
10254OM     OM110254   1.642   9.145   4.200
10255OM     OM110255   1.252   8.952   1.962
10256OM     OM110256   5.974   0.623   2.922
10257OM     OM110257   6.128   0.413   2.958
10258OM     OM110258   8.751   8.607   0.760
10259OM     OM110259   8.353   8.591   0.604
10260OM     OM110260   4.819   9.289   8.214
10261OM     OM110261   4.639   9.354   8.406
10262OM     OM110262   9.540   0.845   0.629
10263OM     OM110263   8.289   0.457   2.383
10264OM     OM110264   8.045   0.510   2.481
10265OM     OM110265   4.243   8.649   7.766
10266OM     OM110266   1.937   0.332   3.519
10267OM     OM110267   1.976   0.423   3.762
10268OM     OM110268   6.262   8.812   4.380
10269OM     OM110269   6.329   9.026   4.513
10270OM     OM110270   4.138   1.269   2.634
10271OM     OM110271   4.102   1.011   2.652
10272OM     OM110272   8.086   8.861   9.070
10273OM     OM110273   7.737   8.969   9.182
10274OM     OM110274   8.023   1.221   5.286
10275OM     OM110275   8.276   0.842   5.295
10276OM     OM110276   2.120   8.393   2.773
10277OM     OM110277   2.332   0.627   2.541
10278OM     OM110278   2.212   0.423   2.412
10279OM     OM110279   3.209   9.530   8.341
10280OM     OM110280   3.132   9.584   8.578
10281OM     OM110281   4.416   9.158   8.790
10282OM     OM110282   9.457   8.628   5.627
10283OM     OM110283   9.545   8.863   5.567
10284OM     OM110284   2.440   0.917   6.768
10285OM     OM110285   1.405   0.845   3.401
10286OM     OM110286   0.800   8.366   3.442
10287OM     OM110287   0.578   9.125   6.074
10288OM     OM110288   4.336   8.988   3.587
10289OM     OM110289   5.789   9.124   2.640
10290OM     OM110290   5.751   8.747   2.982
10291OM     OM110291   1.464   8.556   8.733
10292OM     OM110292   9.533   0.543   5.987
10293OM     OM110293   8.941   9.258   4.725
10294OM     OM110294   8.740   9.161   4.859
10295OM     OM110295   1.492   0.108   4.661
10296OM     OM110296   1.683   1.302   8.943
10297OM     OM110297   3.082   9.281   8.918
10298OM     OM110298   2.994   9.416   8.717
10299OM     OM110299   8.042   8.948   4.610
10300OM     OM110300   2.503   9.446   4.779
10301OM     OM110301   2.635   9.239   4.871
10302OM     OM110302   2.717   9.601   4.762
10303OM     OM110303   0.878   8.561   1.293
10304OM     OM110304   1.553   9.373   2.886
10305OM     OM110305   0.746   9.476   0.480
10306OM     OM110306   5.414   1.288   2.130
10307OM     OM110307   5.201   1.335   1.998
10308OM     OM110308   2.045   0.733   5.582
10309OM     OM110309   2.878   9.542   8.529
10310OM     OM110310   2.990   9.390   8.360
10311OM     OM110311   0.644   0.943   7.108
10312OM     OM110312   0.638   1.204   7.020
10313OM     OM110313   7.665   0.036   7.080
10314OM     OM110314   9.419   1.264   2.031
10315OM     OM110315   5.758   0.866   6.774
10316OM     OM110316   5.890   0.928   6.578
10317OM     OM110317   7.018   1.087   5.607
10318OM     OM110318   4.386   0.555   8.669
10319OM     OM110319   4.255   0.760   8.595
10320OM     OM110320   4.195   0.530   8.495
10321OM     OM110321   4.805   0.548   3.588
10322OM     OM110322   4.839   0.629   3.337
10323OM     OM110323   4.663   9.157   8.837
10324OM     OM110324   1.409   0.514   8.321
10325OM     OM110325   1.364   9.138   3.861
10326OM     OM110326   1.302   8.905   3.942
10327OM     OM110327   0.063   9.084   5.606
10328OM     OM110328   4.531   9.006   2.674
10329OM     OM110329   2.585   8.146   4.172
10330OM     OM110330   4.106   1.278   3.643
10331OM     OM110331   3.747   9.537   4.061
10332OM     OM110332   3.970   0.049   4.129
10333OM     OM110333   2.278   8.938   2.514
10334OM     OM110334   8.813   0.537   6.521
10335OM     OM110335   9.019   0.411   6.422
10336OM     OM110336   0.682   0.557   8.363
10337OM     OM110337   0.651   1.032   8.655
10338OM     OM110338   0.451   0.952   8.795
10339OM     OM110339   8.931   0.371   8.926
10340OM     OM110340   8.697   0.495   8.943
10341OM     OM110341   2.116   8.875   7.391
10342OM     OM110342   0.450   0.849   0.660
10343OM     OM110343   0.439   0.717   0.435
10344OM     OM110344   8.847   8.919   8.210
10345OM     OM110345   9.032   9.099   8.186
10346OM     OM110346   7.974   0.742   0.652
10347OM     OM110347   4.097   8.815   7.621
10348OM     OM110348   2.088   0.496   7.570
10349OM     OM110349   7.941   8.821   8.354
10350OM     OM110350   6.028   0.849   4.503
10351OM     OM110351   4.535   9.558   8.311
10352OM     OM110352   4.525   0.189   8.224
10353OM     OM110353   4.578   9.601   8.051
10354OM     OM110354   1.730   0.038   7.238
10355OM     OM110355   1.502   1.250   4.782
10356OM     OM110356   2.950   8.410   8.598
10357OM     OM110357   0.887   8.336   0.924
10358OM     OM110358   5.067   8.688   1.490
10359OM     OM110359   4.858   8.533   1.459
10360OM     OM110360   3.437   8.762   0.426
10361OM     OM110361   3.397   8.931   0.634
10362OM     OM110362   3.487   9.007   0.389
10363OM     OM110363   5.521   0.656   6.722
10364OM     OM110364   5.304   0.760   6.632
10365OM     OM110365   5.388   0.827   6.867
10366OM     OM110366   3.211   0.649   5.315
10367OM     OM110367   3.046   0.775   5.474
10368OM     OM110368   4.311   8.826   3.035
10369OM     OM110369   4.130   8.647   3.054
10370OM     OM110370   5.345   8.552   6.910
10371OM     OM110371   5.506   8.505   7.110
10372OM     OM110372   0.962   0.358   2.364
10373OM     OM110373   0.824   0.510   2.530
10374OM     OM110374   0.722   0.287   2.441
10375OM     OM110375   0.927   0.283   2.610
10376OM     OM110376   0.020   8.563   2.947
10377OM     OM110377   5.299   0.324   7.810
10378OM     OM110378   0.647   9.056   7.596
10379OM     OM110379   0.800   9.268   7.633
10380OM     OM110380   0.550   9.293   7.682
10381OM     OM110381   6.378   9.057   0.734
10382OM     OM110382   6.590   9.030   0.589
10383OM     OM110383   6.661   0.239   5.948
10384OM     OM110384   4.315   9.511   1.214
10385OM     OM110385   2.738   8.338   4.229
10386OM     OM110386   2.801   8.558   4.098
10387OM     OM110387   5.503   0.552   7.243
10388OM     OM110388   5.536   0.726   7.049
10389OM     OM110389   2.949   0.016   2.860
10390OM     OM110390   3.072   0.219   2.777
10391OM     OM110391   5.347   9.355   3.656
10392OM     OM110392   1.688   9.234   5.591
10393OM     OM110393   1.869   9.063   5.572
10394OM     OM110394   1.627   9.007   5.481
10395OM     OM110395   6.411   9.345   5.861
10396OM     OM110396   4.113   0.334   2.853
10397OM     OM110397   4.793   8.126   9.297
10398OM     OM110398   2.762   9.173   6.180
10399OM     OM110399   1.565   0.454   6.175
10400OM     OM110400   4.636   8.632   6.280
10401OM     OM110401   6.437   0.154   2.538
10402OM     OM110402   0.505   8.735   2.296
10403OM     OM110403   6.109   8.953   5.995
10404OM     OM110404   5.930   8.927   5.810
10405OM     OM110405   0.356   0.761   7.332
10406OM     OM110406   0.517   0.560   7.396
10407OM     OM110407   7.285   0.934   7.254
10408OM     OM110408   7.900   8.598   4.327
10409OM     OM110409   5.431   8.428   6.248
10410OM     OM110410   3.985   0.809   1.085
10411OM     OM110411   4.084   8.545   0.572
10412OM     OM110412   3.523   0.662   4.066
10413OM     OM110413   3.208   1.283   3.554
10414OM     OM110414   3.152   1.297   3.315
10415OM     OM110415   3.870   1.036   1.020
10416OM     OM110416   1.558   8.630   6.348
10417OM     OM110417   1.364   8.628   6.530
10418OM     OM110418   3.981   0.794   2.547
10419OM     OM110419   7.874   8.553   4.584
10420OM     OM110420   7.872   8.803   4.483
10421OM     OM110421   3.262   9.202   4.437
10422OM     OM110422   4.868   0.835   6.429
10423OM     OM110423   0.668   0.736   6.981
10424OM     OM110424   2.239   8.518   9.074
10425OM     OM110425   4.985   8.409   3.693
10426OM     OM110426   2.876   0.284   5.766
10427OM     OM110427   1.200   8.493   8.664
10428OM     OM110428   3.471   0.161   1.134
10429OM     OM110429   3.452   9.526   1.026
10430OM     OM110430   9.258   9.116   8.325
10431OM     OM110431   9.263   9.033   8.076
10432OM     OM110432   3.090   1.009   6.615
10433OM     OM110433   8.230   8.276   0.740
10434OM     OM110434   5.361   0.198   3.875
10435OM     OM110435   6.326   8.565   3.279
10436OM     OM110436   6.185   8.535   3.481
10437OM     OM110437   8.504   1.302   5.913
10438OM     OM110438   8.409   1.059   5.875
10439OM     OM110439   8.268   1.237   6.005
10440OM     OM110440   8.319   1.264   5.739
10441OM     OM110441   5.913   8.369   7.978
10442OM     OM110442   5.716   8.444   8.153
10443OM     OM110443   3.927   0.858   6.467
10444OM     OM110444   2.327   9.094   2.715
10445OM     OM110445   2.501   9.195   2.876
10446OM     OM110446   7.670   0.855   9.398
10447OM     OM110447   2.202   9.316   1.571
10448OM     OM110448   1.038   8.610   2.751
10449OM     OM110449   3.483   0.885   0.020
10450OM     OM110450   3.544   1.037   9.415
10451OM     OM110451   6.851   0.490   4.715
10452OM     OM110452   7.089   0.586   4.806
10453OM     OM110453   7.004   0.607   4.554
10454OM     OM110454   6.773   0.348   3.261
10455OM     OM110455   6.632   0.129   3.317
10456OM     OM110456   0.474   0.211   8.134
10457OM     OM110457   2.154   8.381   6.528
10458OM     OM110458   5.471   0.148   2.740
10459OM     OM110459   5.318   9.394   2.780
10460OM     OM110460   4.214   0.593   1.749
10461OM     OM110461   8.191   8.472   6.413
10462OM     OM110462   8.450   8.432   6.463
10463OM     OM110463   6.308   1.354   3.824
10464OM     OM110464   3.069   0.630   1.739
10465OM     OM110465   4.270   9.102   1.559
10466OM     OM110466   2.861   8.737   6.352
10467OM     OM110467   2.902   8.622   6.582
10468OM     OM110468   8.447   0.896   5.678
10469OM     OM110469   2.864   0.140   3.834
10470OM     OM110470   1.559   8.604   7.046
10471OM     OM110471   4.769   0.512   2.621
10472OM     OM110472   4.526   0.452   2.659
10473OM     OM110473   7.672   8.820   0.941
10474OM     OM110474   7.878   8.800   1.100
10475OM     OM110475   0.942   1.331   4.295
10476OM     OM110476   3.534   0.333   2.483
10477OM     OM110477   4.410   0.995   1.841
10478OM     OM110478   8.812   0.245   5.303
10479OM     OM110479   5.574   8.571   0.376
10480OM     OM110480   5.212   9.402   0.223
10481OM     OM110481   5.295   9.156   0.298
10482OM     OM110482   6.229   9.481   8.365
10483OM     OM110483   2.820   0.235   0.048
10484OM     OM110484   8.522   9.411   8.002
10485OM     OM110485   7.352   0.796   7.045
10486OM     OM110486   1.485   0.362   4.622
10487OM     OM110487   5.192   8.704   4.836
10488OM     OM110488   5.260   8.512   5.009
10489OM     OM110489   5.850   9.223   2.134
10490OM     OM110490   5.979   9.218   1.908
10491OM     OM110491   7.821   1.105   4.424
10492OM     OM110492   7.360   1.039   6.303
10493OM     OM110493   0.560   9.286   4.338
10494OM     OM110494   8.056   9.218   2.199
10495OM     OM110495   7.334   1.167   3.867
10496OM     OM110496   8.965   0.449   1.999
10497OM     OM110497   7.273   0.780   2.006
10498OM     OM110498   2.762   0.013   0.141
10499OM     OM110499   3.534   0.055   1.361
10500OM     OM110500   0.582   8.293   3.341
10501OM     OM110501   8.874   0.232   0.179
10502OM     OM110502   9.101   0.938   2.227
10503OM     OM110503   8.906   0.753   2.178
10504OM     OM110504   4.552   0.463   5.263
10505OM     OM110505   9.062   0.748   2.686
10506OM     OM110506   9.230   0.903   2.581
10507OM     OM110507   4.762   0.738   3.102
10508OM     OM110508   7.875   1.163   4.996
10509OM     OM110509   1.714   0.089   6.253
10510OM     OM110510   1.874   0.091   6.037
10511OM     OM110511   1.871   9.490   6.198
10512OM     OM110512   4.040   0.782   2.108
10513OM     OM110513   3.179   1.109   3.125
10514OM     OM110514   3.120   1.088   2.854
10515OM     OM110515   6.298   1.106   2.759
10516OM     OM110516   6.560   1.063   2.818
10517OM     OM110517   6.365   0.964   7.928
10518OM     OM110518   6.729   0.725   7.760
10519OM     OM110519   6.716   9.115   0.795
10520OM     OM110520   1.235   8.877   4.921
10521OM     OM110521   7.555   9.036   0.501
10522OM     OM110522   2.573   8.999   6.239
10523OM     OM110523   2.813   8.919   6.182
10524OM     OM110524   2.131   9.526   1.421
10525OM     OM110525   2.376   9.436   1.422
10526OM     OM110526   1.701   9.033   7.036
10527OM     OM110527   0.718   0.716   2.407
10528OM     OM110528   4.424   0.438   9.149
10529OM     OM110529   6.412   9.515   8.544
10530OM     OM110530   3.026   8.855   5.032
10531OM     OM110531   4.282   0.865   0.372
10532OM     OM110532   4.437   1.058   0.316
10533OM     OM110533   5.024   1.060   8.539
10534OM     OM110534   8.004   8.780   5.091
10535OM     OM110535   8.157   8.789   5.307
10536OM     OM110536   4.195   8.488   9.379
10537OM     OM110537   4.668   8.679   1.544
10538OM     OM110538   7.309   8.640   6.819
10539OM     OM110539   6.125   9.081   0.810
10540OM     OM110540   6.595   1.006   4.266
10541OM     OM110541   1.795   9.272   2.875
10542OM     OM110542   1.740   9.427   3.071
10543OM     OM110543   3.335   0.780   8.673
10544OM     OM110544   6.761   1.214   2.756
10545OM     OM110545   7.378   8.403   0.269
10546OM     OM110546   3.797   8.963   1.750
10547OM     OM110547   3.767   8.976   2.014
10548OM     OM110548   8.723   0.623   2.051
10549OM     OM110549   8.021   8.414   6.222
10550OM     OM110550   9.005   1.265   8.921
10551OM     OM110551   9.204   1.291   9.107
10552OM     OM110552   9.008   1.122   9.137
10553OM     OM110553   6.225   0.392   4.125
10554OM     OM110554   5.152   8.531   3.129
10555OM     OM110555   5.360   8.403   3.135
10556OM     OM110556   7.371   1.141   0.858
10557OM     OM110557   7.524   0.938   0.794
10558OM     OM110558   7.409   1.077   0.608
10559OM     OM110559   0.385   9.503   7.671
10560OM     OM110560   1.555   8.300   0.159
10561OM     OM110561   1.702   8.349   0.366
10562OM     OM110562   4.486   9.119   4.375
10563OM     OM110563   4.705   8.988   4.423
10564OM     OM110564   4.711   9.203   4.270
10565OM     OM110565   4.675   0.253   2.200
10566OM     OM110566   1.992   8.892   8.398
10567OM     OM110567   3.205   1.219   2.507
10568OM     OM110568   2.493   9.061   3.750
10569OM     OM110569   4.094   8.340   6.653
10570OM     OM110570   3.832   8.350   6.606
10571OM     OM110571   9.475   9.305   4.046
10572OM     OM110572   4.990   1.201   8.769
10573OM     OM110573   9.435   8.813   2.372
10574OM     OM110574   9.279   1.045   2.380
10575OM     OM110575   5.751   9.185   6.996
10576OM     OM110576   5.659   9.367   6.836
10577OM     OM110577   5.847   9.423   7.014
10578OM     OM110578   0.163   0.179   4.507
10579OM     OM110579   0.720   1.177   7.804
10580OM     OM110580   0.598   0.949   7.875
10581OM     OM110581   2.385   1.262   5.985
10582OM     OM110582   2.191   1.321   5.831
10583OM     OM110583   9.216   1.178   2.165
10584OM     OM110584   9.603   0.575   0.575
10585OM     OM110585   0.096   0.777   0.441
10586OM     OM110586   6.146   1.013   6.606
10587OM     OM110587   0.534   1.341   8.914
10588OM     OM110588   6.097   8.645   4.264
10589OM     OM110589   8.454   0.062   6.605
10590OM     OM110590   9.278   0.767   5.274
10591OM     OM110591   6.031   1.092   2.731
10592OM     OM110592   6.410   1.294   1.319
10593OM     OM110593   6.367   1.384   1.565
10594OM     OM110594   3.181   9.588   2.977
10595OM     OM110595   7.148   9.238   0.622
10596OM     OM110596   3.199   8.823   5.213
10597OM     OM110597   7.695   0.989   5.094
10598OM     OM110598   8.652   0.289   5.501
10599OM     OM110599   2.558   8.650   4.699
10600OM     OM110600   9.051   0.170   0.754
10601OM     OM110601   9.213   9.582   0.730
10602OM     OM110602   2.231   0.948   7.561
10603OM     OM110603   2.895   8.526   3.057
10604OM     OM110604   3.031   8.700   3.211
10605OM     OM110605   1.279   9.072   6.763
10606OM     OM110606   9.052   0.883   5.859
10607OM     OM110607   5.607   8.372   8.372
10608OM     OM110608   5.633   8.722   2.590
10609OM     OM110609   5.402   8.696   2.700
10610OM     OM110610   5.769   1.042   2.761
10611OM     OM110611   5.866   1.190   2.559
10612OM     OM110612   0.039   0.954   0.264
10613OM     OM110613   0.281   0.854   0.286
10614OM     OM110614   6.276   0.200   3.023
10615OM     OM110615   8.276   9.334   5.513
10616OM     OM110616   4.880   9.068   8.929
10617OM     OM110617   6.821   0.535   6.455
10618OM     OM110618   6.721   0.766   6.478
10619OM     OM110619   9.346   9.329   8.440
10620OM     OM110620   3.931   0.056   5.565
10621OM     OM110621   4.057   0.266   5.673
10622OM     OM110622   6.343   1.063   6.162
10623OM     OM110623   6.959   8.945   3.238
10624OM     OM110624   6.761   8.961   3.404
10625OM     OM110625   7.025   8.574   5.544
10626OM     OM110626   7.114   8.195   5.698
10627OM     OM110627   0.549   0.887   0.902
10628OM     OM110628   1.411   0.621   1.346
10629OM     OM110629   1.410   0.971   1.719
10630OM     OM110630   1.542   0.757   1.772
10631OM     OM110631   0.279   9.511   4.899
10632OM     OM110632   3.144   1.270   6.638
10633OM     OM110633   7.905   0.195   7.507
10634OM     OM110634   0.332   1.004   0.805
10635OM     OM110635   7.010   8.769   4.573
10636OM     OM110636   6.945   8.919   4.380
10637OM     OM110637   6.036   0.306   4.783
10638OM     OM110638   0.441   8.860   3.240
10639OM     OM110639   5.363   0.092   7.758
10640OM     OM110640   5.459   9.524   7.591
10641OM     OM110641   5.586   9.556   7.818
10642OM     OM110642   5.359   9.449   7.822
10643OM     OM110643   3.980   0.842   9.437
10644OM     OM110644   2.717   0.897   3.714
10645OM     OM110645   7.515   9.060   9.085
10646OM     OM110646   7.336   9.060   8.881
10647OM     OM110647   6.762   9.131   3.215
10648OM     OM110648   0.371   0.843   3.027
10649OM     OM110649   2.147   8.554   2.570
10650OM     OM110650   7.985   9.319   3.475
10651OM     OM110651   2.258   0.329   8.679
10652OM     OM110652   2.050   0.218   8.539
10653OM     OM110653   8.338   8.588   1.604
10654OM     OM110654   3.112   8.957   3.200
10655OM     OM110655   4.943   8.769   5.207
10656OM     OM110656   4.818   8.580   5.088
10657OM     OM110657   4.964   8.763   4.947
10658OM     OM110658   7.121   8.472   6.767
10659OM     OM110659   4.698   8.764   3.357
10660OM     OM110660   0.903   8.990   7.943
10661OM     OM110661   0.710   9.146   7.830
10662OM     OM110662   6.312   1.079   6.435
10663OM     OM110663   4.365   0.741   1.908
10664OM     OM110664   4.587   9.227   2.569
10665OM     OM110665   2.425   9.089   6.064
10666OM     OM110666   1.310   8.735   7.541
10667OM     OM110667   5.734   8.867   5.659
10668OM     OM110668   4.908   0.437   5.655
10669OM     OM110669   8.634   0.944   5.114
10670OM     OM110670   8.752   1.182   5.067
10671OM     OM110671   8.619   1.170   5.274
10672OM     OM110672   3.181   0.428   1.142
10673OM     OM110673   7.155   9.235   9.538
10674OM     OM110674   1.026   8.486   4.138
10675OM     OM110675   3.294   8.775   6.321
10676OM     OM110676   3.747   0.128   2.136
10677OM     OM110677   1.159   8.768   6.642
10678OM     OM110678   8.111   1.098   7.221
10679OM     OM110679   7.975   1.072   7.442
10680OM     OM110680   5.350   0.456   5.463
10681OM     OM110681   5.510   9.446   6.628
10682OM     OM110682   8.537   9.079   1.264
10683OM     OM110683   1.860   0.472   4.225
10684OM     OM110684   7.148   8.697   2.936
10685OM     OM110685   5.385   1.194   6.916
10686OM     OM110686   5.377   1.303   6.682
10687OM     OM110687   9.404   8.667   7.636
10688OM     OM110688   4.659   1.014   7.982
10689OM     OM110689   4.566   0.775   7.870
10690OM     OM110690   4.652   0.964   7.730
10691OM     OM110691   6.187   0.238   0.994
10692OM     OM110692   6.457   9.000   7.186
10693OM     OM110693   6.646   8.994   7.354
10694OM     OM110694   5.314   8.326   6.035
10695OM     OM110695   4.991   0.538   0.189
10696OM     OM110696   4.473   0.084   1.307
10697OM     OM110697   2.480   0.176   5.452
10698OM     OM110698   5.287   9.329   3.030
10699OM     OM110699   1.380   0.311   7.397
10700OM     OM110700   1.510   0.090   7.350
10701OM     OM110701   4.455   8.327   8.580
10702OM     OM110702   7.719   9.428   7.658
10703OM     OM110703   4.559   8.824   3.133
10704OM     OM110704   0.479   9.520   1.597
10705OM     OM110705   5.327   1.382   0.792
10706OM     OM110706   1.688   0.048   3.168
10707OM     OM110707   6.177   9.532   2.167
10708OM     OM110708   6.132   0.137   2.029
10709OM     OM110709   8.404   8.931   6.073
10710OM     OM110710   3.395   1.076   7.445
10711OM     OM110711   3.368   1.335   7.423
10712OM     OM110712   0.116   9.590   8.783
10713OM     OM110713   0.004   9.515   8.559
10714OM     OM110714   1.113   0.914   1.956
10715OM     OM110715   1.188   0.668   2.041
10716OM     OM110716   7.911   9.108   3.625
10717OM     OM110717   8.572   9.237   3.603
10718OM     OM110718   3.533   8.719   1.308
10719OM     OM110719   1.110   0.380   7.051
10720OM     OM110720   4.498   9.327   2.332
10721OM     OM110721   7.598   0.285   7.084
10722OM     OM110722   4.019   0.669   5.436
10723OM     OM110723   4.099   0.520   5.643
10724OM     OM110724   2.122   8.939   2.729
10725OM     OM110725   2.007   9.168   2.772
10726OM     OM110726   8.435   9.299   9.405
10727OM     OM110727   6.589   0.515   9.053
10728OM     OM110728   6.265   0.494   8.820
10729OM     OM110729   3.342   0.483   4.027
10730OM     OM110730   3.017   9.165   3.085
10731OM     OM110731   1.156   0.852   5.551
10732OM     OM110732   2.069   9.097   7.275
10733OM     OM110733   7.906   0.962   9.407
10734OM     OM110734   7.981   0.752   9.545
10735OM     OM110735   0.525   9.318   7.228
10736OM     OM110736   4.725   8.391   0.791
10737OM     OM110737   2.210   0.817   2.422
10738OM     OM110738   2.288   0.663   1.963
10739OM     OM110739   2.387   9.542   8.536
10740OM     OM110740   2.170   8.679   5.876
10741OM     OM110741   3.071   8.799   6.477
10742OM     OM110742   9.068   1.060   5.659
10743OM     OM110743   8.857   1.175   5.563
10744OM     OM110744   6.515   1.021   3.538
10745OM     OM110745   7.737   9.601   7.468
10746OM     OM110746   7.710   0.183   7.301
10747OM     OM110747   7.014   1.213   7.064
10748OM     OM110748   2.950   0.072   8.744
10749OM     OM110749   5.433   9.535   2.964
10750OM     OM110750   5.689   9.394   4.640
10751OM     OM110751   8.839   0.291   8.225
10752OM     OM110752   5.526   1.063   3.505
10753OM     OM110753   9.570   8.963   1.124
10754OM     OM110754   9.569   9.189   1.018
10755OM     OM110755   7.174   0.998   7.893
10756OM     OM110756   2.877   1.219   8.151
10757OM     OM110757   2.633   1.142   8.199
10758OM     OM110758   5.140   1.202   4.255
10759OM     OM110759   7.375   8.497   3.162
10760OM     OM110760   5.006   0.719   6.234
10761OM     OM110761   5.948   9.375   4.529
10762OM     OM110762   8.213   8.910   2.166
10763OM     OM110763   3.920   0.435   5.815
10764OM     OM110764   0.562   8.432   9.604
10765OM     OM110765   0.607   8.684   0.086
10766OM     OM110766   0.698   8.468   0.216
10767OM     OM110767   3.370   0.263   0.369
10768OM     OM110768   6.530   0.938   8.127
10769OM     OM110769   3.560   0.363   0.519
10770OM     OM110770   5.030   8.754   5.453
10771OM     OM110771   7.228   0.437   1.329
10772OM     OM110772   2.294   0.516   4.869
10773OM     OM110773   0.111   0.814   7.380
10774OM     OM110774   9.057   0.956   7.272
10775OM     OM110775   2.941   0.416   1.538
10776OM     OM110776   4.478   1.144   7.624
10777OM     OM110777   4.695   1.076   7.498
10778OM     OM110778   6.616   9.368   8.621
10779OM     OM110779   6.304   8.956   6.160
10780OM     OM110780   6.389   9.190   6.083
10781OM     OM110781   0.164   0.689   2.653
10782OM     OM110782   0.144   9.218   5.814
10783OM     OM110783   0.254   8.989   5.763
10784OM     OM110784   8.737   1.173   6.884
10785OM     OM110785   5.776   0.969   3.480
10786OM     OM110786   5.697   1.207   3.390
10787OM     OM110787   0.158   9.477   5.791
10788OM     OM110788   3.899   0.553   7.206
10789OM     OM110789   0.485   8.961   5.882
10790OM     OM110790   9.582   1.360   0.768
10791OM     OM110791   4.337   9.197   3.746
10792OM     OM110792   5.588   0.582   5.854
10793OM     OM110793   5.480   0.613   6.081
10794OM     OM110794   6.028   0.418   7.346
10795OM     OM110795   1.368   1.296   7.100
10796OM     OM110796   1.741   0.333   6.317
10797OM     OM110797   2.246   9.346   0.301
10798OM     OM110798   2.109   9.348   0.538
10799OM     OM110799   7.388   0.217   6.215
10800OM     OM110800   0.458   8.630   2.530
10801OM     OM110801   0.354   8.472   2.702
10802OM     OM110802   2.872   8.309   5.555
10803OM     OM110803   4.099   0.074   9.234
10804OM     OM110804   0.331   1.101   9.475
10805OM     OM110805   9.200   9.551   5.599
10806OM     OM110806   9.340   0.865   4.635
10807OM     OM110807   7.095   8.818   5.496
10808OM     OM110808   4.777   8.434   6.381
10809OM     OM110809   7.399   8.827   0.503
10810OM     OM110810   7.560   8.875   0.704
10811OM     OM110811   1.333   0.998   2.625
10812OM     OM110812   0.887   8.805   2.662
10813OM     OM110813   0.947   8.545   5.571
10814OM     OM110814   6.150   8.472   7.953
10815OM     OM110815   8.280   8.372   0.502
10816OM     OM110816   1.336   8.725   3.315
10817OM     OM110817   8.269   8.766   2.634
10818OM     OM110818   8.194   8.796   2.395
10819OM     OM110819   8.154   8.730   6.685
10820OM     OM110820   1.132   8.712   8.560
10821OM     OM110821   2.030   8.212   8.703
10822OM     OM110822   2.129   8.404   8.865
10823OM     OM110823   6.554   0.725   3.943
10824OM     OM110824   6.551   0.808   3.685
10825OM     OM110825   5.374   8.721   0.456
10826OM     OM110826   4.664   0.807   0.943
10827OM     OM110827   0.714   8.540   5.698
10828OM     OM110828   3.128   8.311   5.526
10829OM     OM110829   4.148   1.172   7.107
10830OM     OM110830   8.159   9.602   2.776
10831OM     OM110831   8.546   8.669   6.465
10832OM     OM110832   5.938   0.866   3.655
10833OM     OM110833   8.058   1.032   4.360
10834OM     OM110834   3.755   8.713   5.823
10835OM     OM110835   3.838   8.959   5.809
10836OM     OM110836   6.070   8.503   3.254
10837OM     OM110837   5.820   8.529   3.180
10838OM     OM110838   4.692   8.565   9.520
10839OM     OM110839   4.617   8.916   9.506
10840OM     OM110840   8.350   1.182   8.635
10841OM     OM110841   8.200   1.347   8.769
10842OM     OM110842   4.557   0.482   2.197
10843OM     OM110843   4.724   0.594   2.368
10844OM     OM110844   6.261   9.287   2.207
10845OM     OM110845   5.156   0.242   1.394
10846OM     OM110846   5.334   0.399   1.507
10847OM     OM110847   2.543   9.449   9.399
10848OM     OM110848   3.375   0.880   7.604
10849OM     OM110849   4.944   0.787   0.101
10850OM     OM110850   3.779   9.403   5.216
10851OM     OM110851   3.740   9.583   5.402
10852OM     OM110852   6.986   8.349   6.576
10853OM     OM110853   4.642   0.561   7.743
10854OM     OM110854   3.911   9.207   6.212
10855OM     OM110855   8.751   0.966   3.893
10856OM     OM110856   0.717   0.933   4.536
10857OM     OM110857   0.790   1.154   4.421
10858OM     OM110858   4.223   8.343   0.509
10859OM     OM110859   9.366   0.280   1.111
10860OM     OM110860   2.596   9.561   4.987
10861OM     OM110861   2.495   0.107   4.791
10862OM     OM110862   5.426   8.749   3.435
10863OM     OM110863   5.270   9.371   6.563
10864OM     OM110864   3.008   1.224   0.357
10865OM     OM110865   0.799   9.298   8.775
10866OM     OM110866   0.381   1.257   6.282
10867OM     OM110867   3.135   1.183   0.128
10868OM     OM110868   4.264   1.281   9.439
10869OM     OM110869   4.511   1.341   9.348
10870OM     OM110870   7.840   8.584   8.306
10871OM     OM110871   7.794   8.931   5.118
10872OM     OM110872   7.790   8.912   4.695
10873OM     OM110873   8.709   1.267   5.761
10874OM     OM110874   8.693   1.154   5.995
10875OM     OM110875   9.072   0.758   7.457
10876OM     OM110876   9.432   8.651   7.376
10877OM     OM110877   5.598   0.108   3.076
10878OM     OM110878   7.173   0.248   5.017
10879OM     OM110879   7.265   0.493   4.966
10880OM     OM110880   0.559   0.142   2.281
10881OM     OM110881   8.801   0.515   3.561
10882OM     OM110882   8.032   0.361   5.655
10883OM     OM110883   5.291   0.323   6.899
10884OM     OM110884   4.887   0.328   7.048
10885OM     OM110885   5.311   0.508   7.078
10886OM     OM110886   3.483   8.631   1.547
10887OM     OM110887   0.935   1.182   7.662
10888OM     OM110888   2.564   1.115   3.760
10889OM     OM110889   9.362   9.268   6.996
10890OM     OM110890   3.409   0.445   4.968
10891OM     OM110891   9.281   8.453   6.503
10892OM     OM110892   1.494   9.018   5.268
10893OM     OM110893   1.381   9.059   5.040
10894OM     OM110894   1.530   9.249   5.144
10895OM     OM110895   2.479   0.375   4.753
10896OM     OM110896   3.416   8.652   7.474
10897OM     OM110897   1.436   9.575   2.006
10898OM     OM110898   7.771   8.499   8.082
10899OM     OM110899   8.042   8.554   8.161
10900OM     OM110900   0.817   9.147   8.566
10901OM     OM110901   3.943   9.097   6.429
10902OM     OM110902   4.250   8.178   6.772
10903OM     OM110903   8.806   0.964   4.148
10904OM     OM110904   6.769   0.652   9.244
10905OM     OM110905   6.709   0.902   9.211
10906OM     OM110906   7.088   8.411   3.797
10907OM     OM110907   3.002   8.478   3.954
10908OM     OM110908   6.923   0.403   4.399
10909OM     OM110909   7.461   9.127   6.341
10910OM     OM110910   7.516   8.873   6.292
10911OM     OM110911   8.402   1.276   6.219
10912OM     OM110912   3.283   1.038   9.582
10913OM     OM110913   9.501   1.069   4.052
10914OM     OM110914   9.535   9.338   6.810
10915OM     OM110915   9.044   8.739   1.256
10916OM     OM110916   5.943   1.097   3.794
10917OM     OM110917   1.433   0.231   1.125
10918OM     OM110918   7.484   0.881   4.975
10919OM     OM110919   1.762   0.062   6.770
10920OM     OM110920   9.297   1.062   4.217
10921OM     OM110921   5.323   9.082   8.394
10922OM     OM110922   5.369   9.251   8.592
10923OM     OM110923   5.488   1.353   0.998
10924OM     OM110924   6.195   9.254   4.551
10925OM     OM110925   0.145   8.747   3.078
10926OM     OM110926   3.627   8.456   6.705
10927OM     OM110927   7.052   0.597   4.292
10928OM     OM110928   3.617   8.664   6.865
10929OM     OM110929   3.752   8.594   7.069
10930OM     OM110930   2.387   9.304   8.641
10931OM     OM110931   8.657   0.593   6.726
10932OM     OM110932   7.440   1.132   9.303
10933OM     OM110933   4.680   0.272   5.136
10934OM     OM110934   8.017   0.576   1.392
10935OM     OM110935   5.451   9.398   6.389
10936OM     OM110936   1.105   0.451   2.167
10937OM     OM110937   8.332   9.493   9.548
10938OM     OM110938   6.434   0.718   1.375
10939OM     OM110939   7.277   0.912   2.997
10940OM     OM110940   9.447   1.242   7.725
10941OM     OM110941   8.979   8.865   8.883
10942OM     OM110942   2.078   8.427   6.284
10943OM     OM110943   5.896   8.690   2.589
10944OM     OM110944   5.890   8.464   2.720
10945OM     OM110945   1.398   1.202   2.771
10946OM     OM110946   1.571   0.886   7.973
10947OM     OM110947   1.776   0.947   2.415
10948OM     OM110948   5.745   8.584   2.409
10949OM     OM110949   1.885   8.217   1.992
10950OM     OM110950   1.681   8.289   1.853
10951OM     OM110951   2.807   9.550   5.148
10952OM     OM110952   2.584   0.051   5.235
10953OM     OM110953   2.230   0.697   7.492
10954OM     OM110954   5.925   8.549   1.246
10955OM     OM110955   8.412   9.196   8.098
10956OM     OM110956   6.862   0.640   1.571
10957OM     OM110957   4.200   1.414   7.004
10958OM     OM110958   2.731   0.824   8.591
10959OM     OM110959   3.908   8.699   7.479
10960OM     OM110960   3.827   8.524   7.307
10961OM     OM110961   3.659   8.706   7.398
10962OM     OM110962   2.803   8.702   7.857
10963OM     OM110963   6.181   9.495   4.480
10964OM     OM110964   8.238   1.004   7.020
10965OM     OM110965   8.336   0.963   7.251
10966OM     OM110966   8.954   8.903   1.074
10967OM     OM110967   3.144   0.419   3.854
10968OM     OM110968   9.533   0.728   4.752
10969OM     OM110969   6.748   0.901   3.545
10970OM     OM110970   5.685   0.967   6.009
10971OM     OM110971   5.490   0.991   7.045
10972OM     OM110972   8.970   0.811   8.140
10973OM     OM110973   5.545   8.865   1.229
10974OM     OM110974   5.338   8.487   0.928
10975OM     OM110975   2.275   0.225   4.733
10976OM     OM110976   6.420   1.103   1.143
10977OM     OM110977   1.873   0.287   6.699
10978OM     OM110978   1.747   0.150   6.514
10979OM     OM110979   8.050   9.015   2.344
10980OM     OM110980   7.796   0.912   6.865
10981OM     OM110981   8.038   0.855   6.930
10982OM     OM110982   2.961   1.006   5.541
10983OM     OM110983   8.386   0.231   6.789
10984OM     OM110984   8.532   0.201   7.000
10985OM     OM110985   8.506   0.440   6.894
10986OM     OM110986   7.497   0.149   8.390
10987OM     OM110987   6.620   9.287   6.004
10988OM     OM110988   8.619   1.270   5.511
10989OM     OM110989   6.679   0.782   1.439
10990OM     OM110990   4.719   9.455   5.165
10991OM     OM110991   6.391   1.331   1.818
10992OM     OM110992   4.169   0.588   2.003
10993OM     OM110993   2.447   0.483   1.871
10994OM     OM110994   6.737   0.388   9.207
10995OM     OM110995   4.189   8.335   4.607
10996OM     OM110996   2.330   8.688   3.233
10997OM     OM110997   2.946   0.334   3.695
10998OM     OM110998   0.703   9.462   7.115
10999OM     OM110999   6.995   0.019   7.016
11000OM     OM111000   6.829   0.164   6.846
11001OM     OM111001   5.937   9.498   3.366
11002OM     OM111002   5.798   9.547   3.142
11003OM     OM111003   3.026   1.246   1.545
11004OM     OM111004   2.890   1.037   1.634
11005OM     OM111005   8.380   8.785   5.442
11006OM     OM111006   3.228   8.780   7.966
11007OM     OM111007   5.063   8.374   8.979
11008OM     OM111008   5.275   8.340   8.825
11009OM     OM111009   5.839   1.220   2.295
11010OM     OM111010   2.926   8.700   6.091
11011OM     OM111011   4.939   0.002   5.150
11012OM     OM111012   8.235   0.522   3.963
11013OM     OM111013   7.064   0.834   4.370
11014OM     OM111014   7.715   1.158   6.879
11015OM     OM111015   0.052   8.909   2.279
11016OM     OM111016   4.394   0.582   7.806
11017OM     OM111017   2.299   9.373   8.871
11018OM     OM111018   6.382   9.017   0.210
11019OM     OM111019   6.151   9.142   0.207
11020OM     OM111020   3.021   9.397   2.976
11021OM     OM111021   3.130   9.466   2.747
11022OM     OM111022   4.369   0.972   8.670
11023OM     OM111023   5.130   0.798   6.444
11024OM     OM111024   0.803   8.919   1.805
11025OM     OM111025   0.766   8.706   1.652
11026OM     OM111026   7.736   0.180   8.291
11027OM     OM111027   6.191   9.363   1.967
11028OM     OM111028   4.462   0.437   8.899
11029OM     OM111029   2.200   1.163   6.585
11030OM     OM111030   2.205   1.013   6.800
11031OM     OM111031   2.667   0.053   9.511
11032OM     OM111032   3.905   1.413   5.476
11033OM     OM111033   8.438   0.430   4.120
11034OM     OM111034   3.802   9.508   4.635
11035OM     OM111035   7.289   0.744   4.867
11036OM     OM111036   4.345   0.691   6.047
11037OM     OM111037   6.407   0.782   6.932
11038OM     OM111038   7.697   9.531   9.599
11039OM     OM111039   2.675   0.991   8.398
11040OM     OM111040   7.646   0.869   5.943
11041OM     OM111041   4.139   1.031   4.947
11042OM     OM111042   4.116   1.234   4.794
11043OM     OM111043   6.797   1.141   5.453
11044OM     OM111044   3.559   1.286   7.254
11045OM     OM111045   0.862   8.489   1.545
11046OM     OM111046   9.180   9.406   8.623
11047OM     OM111047   9.359   9.574   8.527
11048OM     OM111048   7.668   9.347   7.411
11049OM     OM111049   2.687   1.164   4.374
11050OM     OM111050   7.237   0.121   6.027
11051OM     OM111051   6.466   0.494   4.055
11052OM     OM111052   5.579   1.197   2.297
11053OM     OM111053   5.290   0.710   5.507
11054OM     OM111054   5.162   0.117   7.919
11055OM     OM111055   4.959   9.573   7.842
11056OM     OM111056   0.236   0.543   2.860
11057OM     OM111057   1.698   0.559   1.762
11058OM     OM111058   6.397   0.123   2.804
11059OM     OM111059   7.894   1.018   5.398
11060OM     OM111060   5.916   9.458   6.385
11061OM     OM111061   5.790   9.549   6.170
11062OM     OM111062   3.198   8.398   4.908
11063OM     OM111063   4.077   0.376   7.116
11064OM     OM111064   8.353   0.697   1.769
11065OM     OM111065   9.142   9.339   0.695
11066OM     OM111066   6.554   0.898   1.233
11067OM     OM111067   1.745   9.456   3.334
11068OM     OM111068   1.046   9.268   7.727
11069OM     OM111069   6.715   1.305   2.522
11070OM     OM111070   1.916   1.051   0.796
11071OM     OM111071   1.064   0.208   5.373
11072OM     OM111072   4.944   0.251   5.093
11073OM     OM111073   4.806   0.472   5.044
11074OM     OM111074   8.487   9.054   8.592
11075OM     OM111075   3.962   8.328   0.496
11076OM     OM111076   8.169   0.566   9.534
11077OM     OM111077   5.603   0.804   4.094
11078OM     OM111078   4.003   8.476   5.132
11079OM     OM111079   1.100   0.461   5.369
11080OM     OM111080   1.312   0.327   5.418
11081OM     OM111081   0.777   8.300   0.388
11082OM     OM111082   7.230   9.021   0.506
11083OM     OM111083   3.927   0.633   1.924
11084OM     OM111084   0.818   8.692   7.065
11085OM     OM111085   6.619   8.715   1.930
11086OM     OM111086   0.409   0.758   7.858
11087OM     OM111087   1.650   9.600   0.270
11088OM     OM111088   3.764   9.458   5.635
11089OM     OM111089   0.991   0.195   6.892
11090OM     OM111090   1.240   0.180   6.964
11091OM     OM111091   7.520   0.870   1.997
11092OM     OM111092   7.545   1.250   9.522
11093OM     OM111093   3.827   9.567   6.363
11094OM     OM111094   4.261   9.249   4.376
11095OM     OM111095   0.919   1.048   7.895
11096OM     OM111096   6.828   0.527   3.083
11097OM     OM111097   0.956   1.298   7.894
11098OM     OM111098   3.132   9.372   2.499
11099OM     OM111099   8.474   0.173   4.087
11100OM     OM111100   3.486   0.653   7.667
11101OM     OM111101   5.434   0.767   4.901
11102OM     OM111102   5.425   0.517   4.985
11103OM     OM111103   7.638   0.319   3.197
11104OM     OM111104   8.264   9.201   8.677
11105OM     OM111105   4.576   1.099   9.300
11106OM     OM111106   9.580   8.718   4.969
11107OM     OM111107   7.176   8.804   3.183
11108OM     OM111108   9.518   0.052   8.343
11109OM     OM111109   7.803   0.460   2.535
11110OM     OM111110   3.863   1.174   4.827
11111OM     OM111111   6.417   9.434   2.084
11112OM     OM111112   1.929   9.582   3.174
11113OM     OM111113   7.691   1.121   9.367
11114OM     OM111114   2.548   9.445   1.620
11115OM     OM111115   5.126   0.176   7.673
11116OM     OM111116   2.437   1.162   4.282
11117OM     OM111117   7.677   9.475   8.766
11118OM     OM111118   0.084   9.449   1.738
11119OM     OM111119   8.698   0.389   2.765
11120OM     OM111120   5.270   0.325   4.907
11121OM     OM111121   1.997   0.905   1.000
11122OM     OM111122   4.702   9.590   7.820
11123OM     OM111123   1.447   9.586   1.476
11124OM     OM111124   5.425   1.004   4.782
11125OM     OM111125   9.201   1.098   5.888
11126OM     OM111126   6.160   8.712   3.685
11127OM     OM111127   3.717   9.262   8.287
11128OM     OM111128   2.847   0.953   7.807
11129OM     OM111129   2.048   9.445   8.908
11130OM     OM111130   0.560   8.679   7.093
11131OM     OM111131   0.765   8.735   5.858
11132OM     OM111132   0.735   8.971   5.949
11133OM     OM111133   0.869   0.354   2.851
11134OM     OM111134   8.159   0.598   1.617
11135OM     OM111135   5.914   9.154   0.328
11136OM     OM111136   4.314   8.916   1.383
11137OM     OM111137   1.222   1.369   2.321
11138OM     OM111138   6.238   8.323   6.341
11139OM     OM111139   7.131   1.429   3.851
11140OM     OM111140   2.094   1.472   7.236
11141OM     OM111141   8.455   8.123   5.255
11142OM     OM111142   8.640   1.315   0.781
11143OM     OM111143   7.216   1.274   2.093
11144OM     OM111144   0.601   1.451   5.678
11145OM     OM111145   9.258   8.322   5.439
11146OM     OM111146   8.457   8.302   7.053
11147OM     OM111147   6.773   8.369   9.292
11148OM     OM111148   3.445   8.126   4.670
11149OM     OM111149   1.102   1.481   2.215
11150OM     OM111150   7.806   8.121   8.408
11151OM     OM111151   9.537   1.425   4.385
11152OM     OM111152   3.330   8.238   0.731
11153OM     OM111153   7.074   8.203   7.341
11154OM     OM111154   0.303   8.334   7.198
11155OM     OM111155   2.874   8.223   4.003
11156OM     OM111156   1.226   1.216   7.820
11157OM     OM111157   1.652   1.415   4.070
11158OM     OM111158   2.169   8.246   3.524
11159OM     OM111159   1.582   1.385   4.975
11160OM     OM111160   9.237   1.331   8.007
11161OM     OM111161   4.204   8.212   2.517
11162OM     OM111162   7.586   8.186   0.750
11163OM     OM111163   6.590   1.395   1.016
11164OM     OM111164   8.125   1.444   3.713
11165OM     OM111165   4.061   1.389   8.881
11166OM     OM111166   6.410   1.277   0.764
11167OM     OM111167   0.329   1.461   8.239
11168OM     OM111168   7.280   8.257   6.136
11169OM     OM111169   6.453   8.266   7.406
11170OM     OM111170   0.361   1.393   4.221
11171OM     OM111171   7.326   1.411   0.228
11172OM     OM111172   3.085   8.358   2.819
11173OM     OM111173   4.243   1.378   4.658
11174OM     OM111174   3.093   8.162   8.054
11175OM     OM111175   4.496   8.180   8.381
11176OM     OM111176   7.384   1.405   9.001
11177OM     OM111177   1.627   1.394   9.232
11178OM     OM111178   4.914   8.366   7.963
11179OM     OM111179   4.008   8.357   3.921
11180OM     OM111180   5.555   1.412   8.593
11181OM     OM111181   9.305   8.288   7.177
11182OM     OM111182   3.998   8.233   2.419
11183OM     OM111183   3.698   1.334   5.791
11184OM     OM111184   1.747   8.331   4.286
11185OM     OM111185   5.686   1.441   7.709
11186OM     OM111186   0.764   1.241   8.446
11187OM     OM111187   8.237   1.135   2.346
11188OM     OM111188   4.671   8.239   6.330
11189OM     OM111189   0.926   1.445   4.922
11190OM     OM111190   5.058   1.238   6.934
11191OM     OM111191   4.967   1.304   3.434
11192OM     OM111192   7.157   1.358   1.270
11193OM     OM111193   7.383   8.223   7.850
11194OM     OM111194   2.869   1.350   2.307
11195OM     OM111195   4.139   8.285   4.213
11196OM     OM111196   7.959   8.338   1.801
11197OM     OM111197   6.788   8.176   2.649
11198OM     OM111198   3.007   1.406   6.516
11199OM     OM111199   1.264   8.333   5.852
11200OM     OM111200   7.035   8.403   4.438
11201OM     OM111201   6.946   8.245   8.624
11202OM     OM111202   3.213   1.373   2.212
11203OM     OM111203   6.846   1.305   8.289
11204OM     OM111204   3.036   1.256   7.330
11205OM     OM111205   4.034   1.380   7.368
11206OM     OM111206   1.847   8.320   8.747
11207OM     OM111207   6.200   1.300   6.068
11208OM     OM111208   3.961   8.474   7.786
11209OM     OM111209   5.529   1.354   3.214
11210OM     OM111210   5.214   1.286   5.960
11211OM     OM111211   1.118   8.223   3.211
11212OM     OM111212   1.548   8.391   9.037
11213OM     OM111213   5.366   8.357   7.101
11214OM     OM111214   2.156   8.192   4.850
11215OM     OM111215   5.346   8.397   0.753
11216OM     OM111216   4.925   8.349   6.244
11217OM     OM111217   6.924   1.416   2.865
11218OM     OM111218   3.272   1.427   1.359
11219OM     OM111219   4.194   8.333   8.431
11220OM     OM111220   6.262   8.343   1.142
11221OM     OM111221   2.948   1.371   5.827
11222OM     OM111222   5.591   1.351   1.826
11223OM     OM111223   0.551   8.312   1.852
11224OM     OM111224   1.560   8.240   0.557
11225OM     OM111225   1.893   1.306   7.909
11226OM     OM111226   9.374   8.232   0.053
11227OM     OM111227   8.457   8.203   1.543
11228OM     OM111228   4.533   1.381   7.412
11229OM     OM111229   1.910   8.158   2.973
11230OM     OM111230   3.035   1.343   4.971
11231OM     OM111231   0.278   8.281   8.171
11232OM     OM111232   0.498   8.261   8.496
11233OM     OM111233   9.309   1.385   4.695
11234OM     OM111234   0.206   8.241   5.090
11235OM     OM111235   9.014   1.284   5.294
11236OM     OM111236   0.951   8.346   6.379
11237OM     OM111237   1.462   8.191   2.132
11238OM     OM111238   8.299   1.304   4.171
11239OM     OM111239   7.953   8.140   1.846
11240OM     OM111240   5.517   1.379   2.774
11241OM     OM111241   9.210   8.405   7.730
11242OM     OM111242   1.717   8.173   5.593
11243OM     OM111243   5.566   8.319   6.075
11244OM     OM111244   7.253   8.343   5.621
11245OM     OM111245   1.614   1.313   7.140
11246OM     OM111246   5.445   8.229   5.187
11247OM     OM111247   0.523   8.283   2.172
11248OM     OM111248   8.764   1.425   3.437
11249OM     OM111249   7.882   8.385   9.527
11250OM     OM111250   9.378   1.381   7.568
11251OM     OM111251   5.707   1.387   0.601
11252SI     SI111252   3.828   0.428   2.951
11253SI     SI111253   6.126   8.914   5.549
11254SI     SI111254   4.913   1.184   3.675
11255SI     SI111255   8.881   9.347   4.095
11256SI     SI111256   5.800   1.166   6.900
11257SI     SI111257   1.683   0.736   0.810
11258SI     SI111258   8.774   0.282   6.195
11259SI     SI111259   3.389   9.440   6.775
11260SI     SI111260   1.312   9.568   3.075
11261SI     SI111261   7.965   8.432   1.045
11262SI     SI111262   1.439   9.127   8.128
11263SI     SI111263   6.947   8.744   6.527
11264SI     SI111264   3.847   0.140   1.109
11265SI     SI111265   1.783   8.425   1.466
11266SI     SI111266   1.368   8.353   3.200
11267SI     SI111267   4.137   0.148   4.574
11268SI     SI111268   4.816   1.158   9.585
11269SI     SI111269   3.645   8.705   4.078
11270SI     SI111270   2.910   0.758   0.952
11271SI     SI111271   5.951   0.442   1.925
11272SI     SI111272   0.323   9.200   1.479
11273SI     SI111273   5.765   9.444   1.368
11274SI     SI111274   0.418   0.269   3.122
11275SI     SI111275   0.550   0.498   2.146
11276SI     SI111276   7.549   0.360   5.127
11277SI     SI111277   9.428   9.284   0.142
11278SI     SI111278   4.001   9.518   2.392
11279SI     SI111279   5.426   9.080   5.127
11280SI     SI111280   6.024   9.095   8.697
11281SI     SI111281   5.714   9.145   5.045
11282SI     SI111282   1.435   1.254   5.140
11283SI     SI111283   0.595   8.655   3.836
11284SI     SI111284   6.213   8.448   2.270
11285SI     SI111285   2.325   0.259   3.493
11286SI     SI111286   7.683   0.272   1.521
11287SI     SI111287   9.031   9.487   4.333
11288SI     SI111288   5.092   8.826   2.824
11289SI     SI111289   8.172   0.708   7.506
11290SI     SI111290   1.677   8.587   1.228
11291SI     SI111291   0.859   0.692   1.819
11292SI     SI111292   5.849   0.944   0.144
11293SI     SI111293   5.432   0.975   6.300
11294SI     SI111294   5.539   0.486   3.315
11295SI     SI111295   7.278   0.208   6.570
11296SI     SI111296   8.774   0.574   0.787
11297SI     SI111297   7.206   9.133   3.448
11298SI     SI111298   3.381   0.816   3.708
11299SI     SI111299   2.416   1.046   2.616
11300SI     SI111300   3.393   0.368   7.945
11301SI     SI111301   7.418   9.481   5.035
11302SI     SI111302   8.015   8.654   1.468
11303SI     SI111303   6.294   0.021   3.373
11304SI     SI111304   7.023   0.795   0.525
11305SI     SI111305   6.151   0.522   0.620
11306SI     SI111306   8.664   9.108   5.957
11307SI     SI111307   8.169   0.867   5.177
11308SI     SI111308   6.333   8.997   1.534
11309SI     SI111309   9.174   8.389   6.861
11310SI     SI111310   7.989   9.269   2.595
11311SI     SI111311   9.236   9.228   6.066
11312SI     SI111312   5.358   0.783   3.641
11313SI     SI111313   7.655   9.094   1.210
11314SI     SI111314   6.913   0.542   6.111
11315SI     SI111315   8.816   9.324   7.576
11316SI     SI111316   3.097   0.034   1.541
11317SI     SI111317   1.560   0.195   4.297
11318SI     SI111318   2.265   0.278   4.043
11319SI     SI111319   3.267   1.182   1.786
11320SI     SI111320   5.598   9.315   0.120
11321SI     SI111321   9.430   8.282   6.976
11322SI     SI111322   1.064   0.801   1.322
11323SI     SI111323   6.900   0.253   6.230
11324SI     SI111324   5.979   0.011   5.508
11325SI     SI111325   4.147   8.955   7.303
11326SI     SI111326   4.153   0.154   8.892
11327SI     SI111327   0.160   8.996   4.706
11328SI     SI111328   8.885   9.297   2.737
11329SI     SI111329   0.060   8.999   7.192
11330SI     SI111330   7.349   0.630   3.281
11331SI     SI111331   9.254   1.163   0.613
11332SI     SI111332   4.294   0.177   5.097
11333SI     SI111333   8.328   0.796   8.586
11334SI     SI111334   9.189   8.440   7.411
11335SI     SI111335   4.305   8.640   8.788
11336SI     SI111336   1.373   0.173   6.424
11337SI     SI111337   9.108   1.007   2.967
11338SI     SI111338   8.123   0.020   7.835
11339SI     SI111339   0.496   9.288   9.437
11340SI     SI111340   3.973   9.057   8.756
11341SI     SI111341   8.769   0.160   0.995
11342SI     SI111342   9.575   0.207   4.168
11343SI     SI111343   6.275   0.069   9.203
11344SI     SI111344   6.740   8.563   4.354
11345SI     SI111345   5.076   0.207   9.187
11346SI     SI111346   9.011   9.409   6.203
11347SI     SI111347   1.891   9.359   0.153
11348SI     SI111348   5.078   9.081   4.162
11349SI     SI111349   8.690   8.889   7.669
11350SI     SI111350   1.634   8.389   6.691
11351SI     SI111351   9.182   9.441   1.920
11352SI     SI111352   7.104   0.346   5.368
11353SI     SI111353   2.133   0.961   8.193
11354SI     SI111354   4.714   9.161   3.228
11355SI     SI111355   5.777   0.341   6.064
11356SI     SI111356   8.884   8.620   6.759
11357SI     SI111357   0.671   9.537   3.379
11358SI     SI111358   7.763   1.166   1.347
11359SI     SI111359   1.920   0.177   5.263
11360SI     SI111360   5.160   9.168   7.635
11361SI     SI111361   6.701   8.465   3.816
11362SI     SI111362   0.282   8.950   0.872
11363SI     SI111363   3.599   9.091   9.451
11364SI     SI111364   6.351   9.248   5.548
11365SI     SI111365   9.416   0.210   2.982
11366SI     SI111366   0.733   8.387   6.770
11367SI     SI111367   3.012   1.161   5.153
11368SI     SI111368   6.318   1.169   7.646
11369SI     SI111369   7.565   0.537   8.398
11370SI     SI111370   1.076   9.284   4.116
11371SI     SI111371   3.877   9.053   9.602
11372SI     SI111372   3.566   1.086   6.475
11373SI     SI111373   1.434   8.929   8.718
11374SI     SI111374   5.960   0.226   3.533
11375SI     SI111375   8.756   9.222   6.238
11376SI     SI111376   7.875   0.664   4.071
11377SI     SI111377   5.010   9.471   6.294
11378SI     SI111378   2.773   8.855   2.364
11379SI     SI111379   6.339   8.556   6.912
11380SI     SI111380   9.237   0.552   8.035
11381SI     SI111381   7.290   0.263   3.945
11382SI     SI111382   0.237   8.838   7.373
11383SI     SI111383   8.132   9.090   5.794
11384SI     SI111384   1.559   0.033   9.384
11385SI     SI111385   2.394   9.194   5.711
11386SI     SI111386   9.081   1.140   4.999
11387SI     SI111387   7.670   9.154   0.118
11388SI     SI111388   7.959   9.062   0.145
11389SI     SI111389   6.040   0.852   3.252
11390SI     SI111390   1.649   9.470   2.444
11391SI     SI111391   0.037   0.268   6.930
11392SI     SI111392   4.640   8.840   9.085
11393SI     SI111393   8.514   9.386   7.645
11394SI     SI111394   4.847   9.160   0.141
11395SI     SI111395   8.853   0.121   6.594
11396SI     SI111396   0.450   0.086   0.583
11397SI     SI111397   8.888   9.342   1.942
11398SI     SI111398   7.670   0.326   7.691
11399SI     SI111399   9.593   8.469   0.811
11400SI     SI111400   8.430   0.066   7.761
11401SI     SI111401   8.368   0.088   1.595
11402SI     SI111402   0.203   0.630   8.807
11403SI     SI111403   0.077   0.333   1.377
11404SI     SI111404   5.562   9.046   4.146
11405SI     SI111405   0.581   1.391   4.136
11406SI     SI111406   3.392   9.560   3.589
11407SI     SI111407   9.027   9.075   5.541
11408SI     SI111408   7.438   8.675   2.120
11409SI     SI111409   8.537   0.001   0.872
11410SI     SI111410   0.493   8.651   4.276
11411SI     SI111411   2.687   8.750   6.934
11412SI     SI111412   6.002   0.730   0.309
11413SI     SI111413   3.390   0.242   4.445
11414SI     SI111414   8.134   1.041   9.018
11415SI     SI111415   9.065   0.352   3.328
11416SI     SI111416   3.711   0.986   0.650
11417SI     SI111417   3.613   8.360   0.602
11418SI     SI111418   3.410   0.785   6.850
11419SI     SI111419   2.633   8.768   3.529
11420SI     SI111420   2.073   9.035   5.893
11421SI     SI111421   4.198   9.578   3.632
11422SI     SI111422   9.379   8.493   9.003
11423SI     SI111423   5.221   0.585   0.937
11424SI     SI111424   3.419   0.705   9.271
11425SI     SI111425   7.015   9.437   8.132
11426SI     SI111426   8.900   9.026   5.262
11427SI     SI111427   3.426   9.390   5.343
11428SI     SI111428   1.574   9.532   7.819
11429SI     SI111429   0.068   8.827   4.447
11430SI     SI111430   1.091   8.427   3.091
11431SI     SI111431   4.433   9.577   4.903
11432SI     SI111432   1.770   1.095   1.189
11433SI     SI111433   8.351   9.529   8.281
11434SI     SI111434   9.377   1.049   4.980
11435SI     SI111435   4.282   0.744   2.824
11436SI     SI111436   1.142   0.036   3.466
11437SI     SI111437   6.666   0.095   0.812
11438SI     SI111438   8.403   1.105   4.146
11439SI     SI111439   4.487   0.476   0.757
11440SI     SI111440   8.941   9.496   1.027
11441SI     SI111441   9.317   0.920   1.869
11442SI     SI111442   7.055   9.597   1.809
11443SI     SI111443   1.039   8.903   8.316
11444SI     SI111444   6.406   0.162   0.665
11445SI     SI111445   1.767   9.116   0.303
11446SI     SI111446   3.495   0.121   3.824
11447SI     SI111447   7.338   8.570   4.527
11448SI     SI111448   7.001   0.888   9.047
11449SI     SI111449   6.005   9.564   6.709
11450SI     SI111450   1.155   1.173   3.113
11451SI     SI111451   0.054   1.081   8.600
11452SI     SI111452   7.283   0.724   9.399
11453SI     SI111453   4.700   0.262   8.587
11454SI     SI111454   2.313   0.257   0.819
11455SI     SI111455   2.153   8.846   8.863
11456SI     SI111456   6.049   0.083   2.671
11457SI     SI111457   5.438   8.761   5.596
11458SI     SI111458   2.510   9.124   8.125
11459SI     SI111459   0.423   8.887   8.913
11460SI     SI111460   0.634   8.751   7.891
11461SI     SI111461   6.608   0.518   6.744
11462SI     SI111462   7.435   8.725   3.505
11463SI     SI111463   4.894   9.225   7.804
11464SI     SI111464   2.737   9.221   0.103
11465SI     SI111465   2.402   0.585   5.907
11466SI     SI111466   6.197   0.125   1.602
11467SI     SI111467   2.153   8.971   7.862
11468SI     SI111468   3.325   1.168   1.277
11469SI     SI111469   6.236   8.612   6.207
11470SI     SI111470   0.134   0.563   6.288
11471SI     SI111471   5.036   8.786   6.763
11472SI     SI111472   7.967   8.671   3.601
11473SI     SI111473   7.398   9.142   5.857
11474SI     SI111474   2.262   0.405   5.681
11475SI     SI111475   7.441   0.661   8.881
11476SI     SI111476   9.030   9.268   7.138
11477SI     SI111477   1.704   0.967   2.762
11478SI     SI111478   2.340   0.138   7.634
11479SI     SI111479   1.185   0.915   2.996
11480SI     SI111480   8.696   8.635   5.259
11481SI     SI111481   4.111   8.733   7.111
11482SI     SI111482   3.790   9.068   7.574
11483SI     SI111483   7.301   9.436   6.309
11484SI     SI111484   5.285   0.288   8.529
11485SI     SI111485   3.339   0.371   1.901
11486SI     SI111486   1.889   0.532   5.974
11487SI     SI111487   1.129   0.970   4.402
11488SI     SI111488   8.024   8.374   3.505
11489SI     SI111489   5.997   0.240   8.863
11490SI     SI111490   0.732   8.885   8.824
11491SI     SI111491   4.714   0.815   6.471
11492SI     SI111492   0.330   1.210   8.573
11493SI     SI111493   0.544   1.374   8.457
11494SI     SI111494   3.355   9.394   4.078
11495SI     SI111495   4.116   9.292   9.068
11496SI     SI111496   0.535   9.354   6.840
11497SI     SI111497   6.861   0.664   1.990
11498SI     SI111498   6.887   0.689   8.828
11499SI     SI111499   4.935   8.680   7.780
11500SI     SI111500   9.110   0.830   6.643
11501SI     SI111501   9.008   0.592   7.821
11502SI     SI111502   4.443   1.088   6.016
11503SI     SI111503   5.535   0.896   7.410
11504SI     SI111504   1.913   8.579   7.063
11505SI     SI111505   0.924   9.112   7.225
11506SI     SI111506   0.864   0.006   5.158
11507SI     SI111507   8.144   9.248   9.601
11508SI     SI111508   8.381   8.970   0.380
11509SI     SI111509   3.485   9.468   8.524
11510SI     SI111510   0.728   0.320   3.187
11511SI     SI111511   4.483   8.933   7.581
11512SI     SI111512   8.832   0.525   9.581
11513SI     SI111513   0.259   1.216   1.021
11514SI     SI111514   8.527   8.527   0.218
11515SI     SI111515   3.661   0.377   1.897
11516SI     SI111516   8.929   8.771   5.111
11517SI     SI111517   4.825   0.046   6.474
11518SI     SI111518   2.929   9.478   3.417
11519SI     SI111519   7.395   9.535   0.607
11520SI     SI111520   7.625   0.107   4.718
11521SI     SI111521   4.006   8.559   5.669
11522SI     SI111522   2.456   0.009   3.372
11523SI     SI111523   5.175   0.933   5.074
11524SI     SI111524   6.069   8.740   6.439
11525SI     SI111525   6.990   9.178   8.675
11526SI     SI111526   5.791   0.136   4.608
11527SI     SI111527   0.815   1.112   0.403
11528SI     SI111528   0.673   9.106   5.072
11529SI     SI111529   0.829   9.477   4.069
11530SI     SI111530   2.001   0.295   7.040
11531SI     SI111531   8.956   0.686   8.451
11532SI     SI111532   8.429   9.476   6.860
11533SI     SI111533   2.627   8.816   0.262
11534SI     SI111534   7.704   9.580   4.998
11535SI     SI111535   0.691   0.575   9.222
11536SI     SI111536   7.563   8.883   5.842
11537SI     SI111537   1.275   0.936   1.132
11538SI     SI111538   8.893   9.246   7.872
11539SI     SI111539   7.897   0.949   2.120
11540SI     SI111540   5.458   8.648   5.876
11541SI     SI111541   4.548   0.369   6.559
11542SI     SI111542   0.475   8.537   1.688
11543SI     SI111543   4.810   0.141   2.672
11544SI     SI111544   7.213   8.576   1.937
11545SI     SI111545   8.160   9.317   7.814
11546SI     SI111546   2.180   9.097   4.401
11547SI     SI111547   3.461   9.336   0.512
11548SI     SI111548   8.318   0.393   9.240
11549SI     SI111549   1.314   1.196   6.748
11550SI     SI111550   4.873   8.748   3.030
11551SI     SI111551   6.562   0.948   4.658
11552SI     SI111552   5.427   0.615   0.109
11553SI     SI111553   6.158   9.458   7.196
11554SI     SI111554   3.034   0.075   0.535
11555SI     SI111555   1.176   0.058   7.534
11556SI     SI111556   4.626   8.607   6.886
11557SI     SI111557   4.631   8.691   4.207
11558SI     SI111558   0.343   0.176   1.288
11559SI     SI111559   1.517   8.884   3.040
11560SI     SI111560   0.713   0.526   8.730
11561SI     SI111561   3.370   9.108   3.990
11562SI     SI111562   4.525   0.610   6.353
11563SI     SI111563   9.278   0.638   9.561
11564SI     SI111564   4.305   0.697   6.798
11565SI     SI111565   5.779   0.266   0.250
11566SI     SI111566   9.436   8.493   1.955
11567SI     SI111567   6.222   0.602   4.722
11568SI     SI111568   3.786   8.578   2.962
11569SI     SI111569   5.726   9.478   9.514
11570SI     SI111570   7.979   0.428   8.702
11571SI     SI111571   0.504   0.699   4.277
11572SI     SI111572   6.993   0.235   2.835
11573SI     SI111573   1.955   8.835   4.823
11574SI     SI111574   1.789   9.059   7.593
11575SI     SI111575   5.613   0.613   2.498
11576SI     SI111576   4.491   8.426   3.775
11577SI     SI111577   3.993   0.557   3.188
11578SI     SI111578   6.326   9.328   8.884
11579SI     SI111579   1.735   8.801   1.949
11580SI     SI111580   2.735   0.743   6.715
11581SI     SI111581   4.594   8.929   6.491
11582SI     SI111582   3.723   8.994   3.362
11583SI     SI111583   2.654   8.982   8.480
11584SI     SI111584   3.067   9.349   6.311
11585SI     SI111585   7.783   0.830   2.388
11586SI     SI111586   7.326   9.092   2.692
11587SI     SI111587   5.764   8.877   8.321
11588SI     SI111588   4.023   9.329   0.426
11589SI     SI111589   2.484   9.560   7.837
11590SI     SI111590   0.020   9.298   5.090
11591SI     SI111591   9.494   0.216   8.975
11592SI     SI111592   3.158   0.333   3.438
11593SI     SI111593   3.495   9.338   2.561
11594SI     SI111594   5.218   9.093   4.899
11595SI     SI111595   4.150   8.339   2.751
11596SI     SI111596   8.013   0.496   9.223
11597SI     SI111597   8.358   0.767   2.700
11598SI     SI111598   6.448   9.507   0.038
11599SI     SI111599   9.169   0.624   9.058
11600SI     SI111600   7.634   0.987   3.133
11601SI     SI111601   4.347   9.518   6.743
11602SI     SI111602   2.648   0.515   3.763
11603SI     SI111603   5.308   0.673   8.209
11604SI     SI111604   5.696   8.522   1.851
11605SI     SI111605   8.559   0.274   3.375
11606SI     SI111606   7.098   0.595   8.164
11607SI     SI111607   5.088   0.602   7.307
11608SI     SI111608   0.173   0.722   0.856
11609SI     SI111609   4.391   0.736   8.270
11610SI     SI111610   7.080   0.742   5.197
11611SI     SI111611   2.903   9.132   3.842
11612SI     SI111612   8.894   1.081   6.296
11613SI     SI111613   7.462   9.042   1.566
11614SI     SI111614   0.029   9.031   8.366
11615SI     SI111615   3.389   9.037   3.686
11616SI     SI111616   4.128   9.344   5.370
11617SI     SI111617   2.307   0.172   0.289
11618SI     SI111618   4.731   9.517   2.219
11619SI     SI111619   0.708   0.391   0.243
11620SI     SI111620   8.117   9.599   4.177
11621SI     SI111621   7.892   0.990   7.982
11622SI     SI111622   5.330   9.003   2.217
11623SI     SI111623   5.058   0.638   1.407
11624SI     SI111624   8.552   0.546   0.096
11625SI     SI111625   6.457   0.641   5.542
11626SI     SI111626   2.717   1.005   2.686
11627SI     SI111627   0.792   9.441   6.984
11628SI     SI111628   5.181   0.524   5.929
11629SI     SI111629   6.334   8.805   5.761
11630SI     SI111630   6.182   0.308   3.341
11631SI     SI111631   0.194   0.250   6.243
11632SI     SI111632   0.037   9.162   0.314
11633SI     SI111633   2.550   9.582   6.738
11634SI     SI111634   8.875   8.910   0.536
11635SI     SI111635   9.023   0.399   8.513
11636SI     SI111636   0.077   8.819   6.930
11637SI     SI111637   8.918   0.230   1.699
11638SI     SI111638   4.648   9.208   5.447
11639SI     SI111639   1.477   0.388   2.017
11640SI     SI111640   7.363   0.802   7.666
11641SI     SI111641   3.485   8.477   4.189
11642SI     SI111642   4.344   8.739   7.278
11643SI     SI111643   6.910   8.342   7.180
11644SI     SI111644   1.061   0.727   3.832
11645SI     SI111645   4.346   0.818   5.668
11646SI     SI111646   0.418   9.220   5.499
11647SI     SI111647   5.115   9.541   3.863
11648SI     SI111648   8.693   9.411   1.701
11649SI     SI111649   3.131   0.179   2.355
11650SI     SI111650   7.436   0.096   1.451
11651SI     SI111651   7.563   8.304   7.172
11652SI     SI111652   9.014   0.669   4.681
11653SI     SI111653   1.555   8.464   9.347
11654SI     SI111654   8.112   8.476   5.386
11655SI     SI111655   1.809   8.754   4.108
11656SI     SI111656   6.706   9.383   0.459
11657SI     SI111657   8.067   1.060   4.716
11658SI     SI111658   6.670   8.437   0.905
11659SI     SI111659   0.438   9.025   8.241
11660SI     SI111660   2.643   0.271   8.647
11661SI     SI111661   8.888   9.317   6.864
11662SI     SI111662   7.655   9.100   2.298
11663SI     SI111663   3.863   9.117   5.811
11664SI     SI111664   6.937   9.304   4.111
11665SI     SI111665   8.313   0.209   0.852
11666SI     SI111666   5.463   1.093   1.782
11667SI     SI111667   1.777   8.844   2.889
11668SI     SI111668   4.601   0.025   3.970
11669SI     SI111669   9.359   0.106   6.051
11670SI     SI111670   5.015   8.414   2.075
11671SI     SI111671   0.494   0.293   6.323
11672SI     SI111672   7.204   8.648   6.165
11673SI     SI111673   0.390   0.276   0.835
11674SI     SI111674   5.040   8.907   0.903
11675SI     SI111675   6.631   0.853   2.098
11676SI     SI111676   5.612   0.406   1.195
11677SI     SI111677   3.037   8.964   1.399
11678SI     SI111678   5.871   0.581   9.499
11679SI     SI111679   7.380   0.160   0.799
11680SI     SI111680   5.324   9.091   1.914
11681SI     SI111681   9.580   8.728   6.457
11682SI     SI111682   4.089   0.216   1.285
11683SI     SI111683   3.825   9.304   2.280
11684SI     SI111684   6.095   8.841   1.051
11685SI     SI111685   5.841   9.364   8.383
11686SI     SI111686   9.335   9.112   9.537
11687SI     SI111687   7.569   0.467   3.656
11688SI     SI111688   6.658   0.632   4.332
11689SI     SI111689   8.205   0.277   6.217
11690SI     SI111690   5.261   9.589   7.101
11691SI     SI111691   5.357   8.795   5.201
11692SI     SI111692   0.694   0.871   7.519
11693SI     SI111693   6.841   9.363   2.125
11694SI     SI111694   3.855   0.566   7.811
11695SI     SI111695   8.197   0.764   3.694
11696SI     SI111696   5.377   9.279   5.352
11697SI     SI111697   2.004   9.359   4.400
11698SI     SI111698   1.116   0.385   0.281
11699SI     SI111699   8.343   9.301   4.838
11700SI     SI111700   7.564   0.566   1.540
11701SI     SI111701   6.211   0.265   8.486
11702SI     SI111702   8.201   0.314   0.198
11703SI     SI111703   5.780   0.191   7.131
11704SI     SI111704   7.627   1.001   2.599
11705SI     SI111705   0.999   1.174   3.988
11706SI     SI111706   1.115   8.430   7.905
11707SI     SI111707   4.159   1.158   9.040
11708SI     SI111708   7.310   0.077   7.257
11709SI     SI111709   1.534   9.200   7.547
11710SI     SI111710   2.552   9.066   9.536
11711SI     SI111711   2.464   1.162   2.046
11712SI     SI111712   4.582   8.769   8.793
11713SI     SI111713   0.862   8.535   3.802
11714SI     SI111714   4.235   0.133   1.758
11715SI     SI111715   5.824   8.639   8.831
11716SI     SI111716   7.830   8.523   0.222
11717SI     SI111717   1.477   9.231   1.368
11718SI     SI111718   0.485   1.216   3.901
11719SI     SI111719   0.277   1.136   7.188
11720SI     SI111720   6.850   9.128   4.733
11721SI     SI111721   8.863   1.014   1.947
11722SI     SI111722   6.733   1.172   7.333
11723SI     SI111723   5.482   8.559   0.943
11724SI     SI111724   8.776   1.094   8.621
11725SI     SI111725   6.592   9.260   7.029
11726SI     SI111726   6.437   8.956   2.959
11727SI     SI111727   3.479   9.256   0.054
11728SI     SI111728   4.047   0.446   7.611
11729SI     SI111729   2.004   0.771   8.748
11730SI     SI111730   1.331   8.531   3.688
11731SI     SI111731   7.986   8.360   7.439
11732SI     SI111732   6.120   8.557   0.244
11733SI     SI111733   5.796   8.519   7.539
11734SI     SI111734   1.688   8.609   4.528
11735SI     SI111735   1.398   0.255   0.672
11736SI     SI111736   6.707   8.919   5.183
11737SI     SI111737   8.945   9.589   7.450
11738SI     SI111738   0.167   0.549   0.157
11739SI     SI111739   0.178   9.241   9.439
11740SI     SI111740   0.387   0.913   2.392
11741SI     SI111741   5.599   9.201   1.798
11742SI     SI111742   9.186   9.442   7.323
11743SI     SI111743   1.177   0.282   3.618
11744SI     SI111744   4.335   9.079   2.901
11745SI     SI111745   1.941   0.766   8.295
11746SI     SI111746   8.547   1.039   1.939
11747SI     SI111747   4.708   8.631   5.523
11748SI     SI111748   2.411   8.880   1.647
11749SI     SI111749   3.343   8.498   7.190
11750SI     SI111750   7.564   8.553   4.747
11751SI     SI111751   4.958   9.541   7.016
11752SI     SI111752   0.957   0.747   4.274
11753SI     SI111753   3.222   8.551   3.615
11754SI     SI111754   4.337   8.722   6.077
11755SI     SI111755   5.892   9.580   7.766
11756SI     SI111756   8.025   9.340   1.309
11757SI     SI111757   7.879   0.601   8.449
11758SI     SI111758   6.822   0.121   7.845
11759SI     SI111759   2.660   8.789   9.551
11760SI     SI111760   5.118   8.607   6.317
11761SI     SI111761   1.929   8.502   2.279
11762SI     SI111762   3.667   0.623   8.488
11763SI     SI111763   1.192   8.917   9.366
11764SI     SI111764   3.691   1.015   5.124
11765SI     SI111765   8.229   9.598   5.748
11766SI     SI111766   2.685   0.526   6.032
11767SI     SI111767   9.177   8.919   2.680
11768SI     SI111768   6.408   9.588   5.184
11769SI     SI111769   5.734   1.096   4.612
11770SI     SI111770   8.677   0.108   7.946
11771SI     SI111771   5.021   9.357   6.795
11772SI     SI111772   4.402   0.770   7.485
11773SI     SI111773   7.582   0.011   5.935
11774SI     SI111774   5.606   8.726   3.047
11775SI     SI111775   8.334   0.533   5.506
11776SI     SI111776   7.987   9.399   6.134
11777SI     SI111777   5.610   8.767   0.746
11778SI     SI111778   1.486   8.666   9.108
11779SI     SI111779   9.010   0.545   5.516
11780SI     SI111780   8.041   8.281   2.058
11781SI     SI111781   3.589   0.663   2.591
11782SI     SI111782   4.395   0.016   0.833
11783SI     SI111783   6.822   0.217   8.682
11784SI     SI111784   5.893   8.724   0.604
11785SI     SI111785   0.373   0.179   0.007
11786SI     SI111786   6.651   8.430   7.332
11787SI     SI111787   7.443   0.714   4.367
11788SI     SI111788   6.371   8.546   5.320
11789SI     SI111789   8.668   9.587   3.438
11790SI     SI111790   8.295   0.941   6.488
11791SI     SI111791   7.325   9.001   7.357
11792SI     SI111792   1.880   0.848   5.216
11793SI     SI111793   2.129   0.566   9.177
11794SI     SI111794   1.563   0.271   1.212
11795SI     SI111795   9.456   9.602   7.335
11796SI     SI111796   0.748   9.124   3.753
11797SI     SI111797   1.429   8.902   7.260
11798SI     SI111798   1.375   0.987   0.629
11799SI     SI111799   5.840   8.928   6.351
11800SI     SI111800   0.829   9.095   2.870
11801SI     SI111801   3.867   0.158   6.719
11802SI     SI111802   7.892   0.755   5.726
11803SI     SI111803   0.125   0.429   7.399
11804SI     SI111804   0.233   0.958   5.150
11805SI     SI111805   6.896   9.552   5.870
11806SI     SI111806   2.605   0.232   0.391
11807SI     SI111807   2.822   1.020   8.931
11808SI     SI111808   0.185   8.566   7.245
11809SI     SI111809   2.515   0.356   7.165
11810SI     SI111810   8.939   0.497   1.847
11811SI     SI111811   8.995   8.868   4.822
11812SI     SI111812   1.208   9.469   4.580
11813SI     SI111813   4.985   8.506   6.056
11814SI     SI111814   4.168   0.671   9.015
11815SI     SI111815   6.989   0.588   3.673
11816SI     SI111816   9.595   9.211   3.425
11817SI     SI111817   0.706   0.908   5.388
11818SI     SI111818   0.235   0.740   5.597
11819SI     SI111819   1.238   9.528   0.994
11820SI     SI111820   4.207   0.257   0.453
11821SI     SI111821   4.409   9.520   5.914
11822SI     SI111822   0.435   0.961   8.215
11823SI     SI111823   1.100   8.895   6.068
11824SI     SI111824   0.868   0.071   0.820
11825SI     SI111825   4.462   0.153   5.757
11826SI     SI111826   1.056   0.480   8.945
11827SI     SI111827   3.963   9.483   7.716
11828SI     SI111828   2.962   0.872   1.421
11829SI     SI111829   5.070   9.205   7.334
11830SI     SI111830   6.683   0.085   2.971
11831SI     SI111831   3.056   1.093   6.965
11832SI     SI111832   4.250   0.986   4.024
11833SI     SI111833   0.707   8.893   0.412
11834SI     SI111834   2.506   0.066   6.043
11835SI     SI111835   4.044   9.599   3.003
11836SI     SI111836   2.184   1.113   2.798
11837SI     SI111837   2.516   0.800   5.577
11838SI     SI111838   8.347   0.998   0.266
11839SI     SI111839   4.180   8.931   4.584
11840SI     SI111840   0.077   0.806   6.770
11841SI     SI111841   6.689   8.555   5.732
11842SI     SI111842   4.391   8.687   2.480
11843SI     SI111843   9.310   0.307   0.487
11844SI     SI111844   7.382   9.245   1.196
11845SI     SI111845   0.036   9.230   8.868
11846SI     SI111846   6.378   8.483   2.856
11847SI     SI111847   5.836   0.112   0.503
11848SI     SI111848   6.263   9.276   6.448
11849SI     SI111849   9.420   0.765   8.440
11850SI     SI111850   1.322   8.460   1.911
11851SI     SI111851   8.628   9.082   3.256
11852SI     SI111852   9.023   0.549   1.377
11853SI     SI111853   0.363   0.288   8.439
11854SI     SI111854   3.268   0.316   8.500
11855SI     SI111855   6.853   8.791   5.819
11856SI     SI111856   2.901   1.169   8.664
11857SI     SI111857   7.153   0.806   0.796
11858SI     SI111858   6.577   9.075   2.412
11859SI     SI111859   2.002   0.611   3.353
11860SI     SI111860   2.343   0.963   7.214
11861SI     SI111861   1.234   9.126   1.214
11862SI     SI111862   8.542   9.453   0.589
11863SI     SI111863   3.537   1.115   9.016
11864SI     SI111864   1.217   0.314   9.152
11865SI     SI111865   4.627   0.013   4.667
11866SI     SI111866   8.291   9.504   4.600
11867SI     SI111867   7.864   1.089   3.565
11868SI     SI111868   1.703   8.821   0.258
11869SI     SI111869   4.931   8.718   9.091
11870SI     SI111870   5.079   0.089   4.773
11871SI     SI111871   7.190   8.406   1.496
11872SI     SI111872   3.178   0.772   7.916
11873SI     SI111873   7.362   0.371   5.671
11874SI     SI111874   0.261   9.533   1.115
11875SI     SI111875   9.379   0.883   9.376
11876SI     SI111876   8.546   1.032   7.499
11877SI     SI111877   0.763   0.152   9.171
11878SI     SI111878   6.243   8.681   2.661
11879SI     SI111879   4.758   0.998   1.296
11880SI     SI111880   6.919   0.661   1.215
11881SI     SI111881   3.206   0.884   0.590
11882SI     SI111882   0.129   9.552   5.242
11883SI     SI111883   4.009   8.622   5.194
11884SI     SI111884   4.386   0.169   7.743
11885SI     SI111885   4.995   0.187   8.481
11886SI     SI111886   6.979   0.101   9.144
11887SI     SI111887   7.084   9.308   8.409
11888SI     SI111888   0.242   8.558   4.441
11889SI     SI111889   6.530   8.990   6.682
11890SI     SI111890   0.531   0.566   1.444
11891SI     SI111891   2.580   9.178   3.278
11892SI     SI111892   7.970   9.307   0.823
11893SI     SI111893   5.043   1.017   5.677
11894SI     SI111894   5.756   8.495   3.478
11895SI     SI111895   4.400   0.729   5.033
11896SI     SI111896   8.121   0.989   3.129
11897SI     SI111897   0.343   0.223   5.700
11898SI     SI111898   0.594   8.640   0.550
11899SI     SI111899   7.968   9.436   8.485
11900SI     SI111900   8.537   8.530   4.049
11901SI     SI111901   6.769   9.325   5.289
11902SI     SI111902   8.615   8.937   2.099
11903SI     SI111903   9.175   0.224   5.332
11904SI     SI111904   9.373   1.073   1.597
11905SI     SI111905   2.666   0.532   7.718
11906SI     SI111906   3.135   8.696   0.101
11907SI     SI111907   1.149   8.859   1.628
11908SI     SI111908   7.013   1.036   5.194
11909SI     SI111909   6.255   9.412   0.890
11910SI     SI111910   8.410   8.669   6.903
11911SI     SI111911   9.264   0.046   7.861
11912SI     SI111912   4.094   0.503   1.195
11913SI     SI111913   4.616   8.876   4.960
11914SI     SI111914   0.751   0.911   2.022
11915SI     SI111915   0.436   0.851   3.631
11916SI     SI111916   1.794   9.127   5.997
11917SI     SI111917   9.508   0.933   3.627
11918SI     SI111918   8.880   0.547   4.321
11919SI     SI111919   6.887   0.604   6.811
11920SI     SI111920   1.565   0.260   4.008
11921SI     SI111921   3.607   0.080   2.194
11922SI     SI111922   6.993   0.261   6.523
11923SI     SI111923   2.721   8.906   7.208
11924SI     SI111924   0.228   0.662   9.480
11925SI     SI111925   3.592   0.111   5.040
11926SI     SI111926   5.079   8.843   3.482
11927SI     SI111927   8.455   8.683   7.698
11928SI     SI111928   7.778   9.387   5.616
11929SI     SI111929   5.863   8.671   2.059
11930SI     SI111930   2.588   0.215   1.614
11931SI     SI111931   5.838   0.309   9.379
11932SI     SI111932   8.980   0.872   8.681
11933SI     SI111933   4.697   9.437   0.146
11934SI     SI111934   6.614   1.167   6.405
11935SI     SI111935   8.404   0.554   0.564
11936SI     SI111936   4.449   0.354   7.342
11937SI     SI111937   1.631   9.532   4.179
11938SI     SI111938   1.578   8.709   2.673
11939SI     SI111939   0.269   0.560   2.028
11940SI     SI111940   6.342   0.724   2.844
11941SI     SI111941   9.186   8.685   6.783
11942SI     SI111942   1.706   0.562   3.452
11943SI     SI111943   4.746   8.811   2.099
11944SI     SI111944   7.407   0.322   4.676
11945SI     SI111945   1.840   1.081   4.103
11946SI     SI111946   1.666   0.162   0.780
11947SI     SI111947   1.908   0.538   0.275
11948SI     SI111948   1.331   9.029   7.704
11949SI     SI111949   3.784   1.009   7.121
11950SI     SI111950   6.619   8.606   4.814
11951SI     SI111951   7.695   0.163   0.813
11952SI     SI111952   9.083   0.139   4.171
11953SI     SI111953   0.471   8.693   7.490
11954SI     SI111954   4.177   9.500   8.737
11955SI     SI111955   0.562   1.140   2.055
11956SI     SI111956   6.635   0.021   8.280
11957SI     SI111957   4.391   9.384   0.100
11958SI     SI111958   6.105   8.425   6.761
11959SI     SI111959   4.896   8.905   8.199
11960SI     SI111960   1.860   8.630   6.048
11961SI     SI111961   3.190   9.162   0.105
11962SI     SI111962   4.650   9.590   8.698
11963SI     SI111963   8.496   0.222   7.497
11964SI     SI111964   4.710   0.810   6.784
11965SI     SI111965   7.767   0.529   6.858
11966SI     SI111966   3.200   8.521   5.008
11967SI     SI111967   1.726   0.167   1.691
11968SI     SI111968   2.791   9.135   5.852
11969SI     SI111969   2.280   1.124   8.942
11970SI     SI111970   7.677   9.044   6.622
11971SI     SI111971   5.173   0.830   9.401
11972SI     SI111972   7.209   0.217   3.405
11973SI     SI111973   2.370   0.106   8.976
11974SI     SI111974   6.704   0.014   4.742
11975SI     SI111975   2.856   1.177   2.473
11976SI     SI111976   4.146   9.004   2.488
11977SI     SI111977   9.558   8.932   8.823
11978SI     SI111978   3.940   0.860   3.185
11979SI     SI111979   5.675   0.471   3.827
11980SI     SI111980   1.507   1.175   2.362
11981SI     SI111981   6.028   9.519   0.372
11982SI     SI111982   2.646   8.717   0.779
11983SI     SI111983   6.109   0.052   8.089
11984SI     SI111984   5.554   0.488   6.431
11985SI     SI111985   7.029   8.775   3.997
11986SI     SI111986   6.092   1.320   6.286
11987SI     SI111987   5.150   8.839   8.896
11988SI     SI111988   9.604   1.191   4.070
11989SI     SI111989   1.171   8.966   2.373
11990SI     SI111990   3.355   0.365   5.458
11991SI     SI111991   2.211   0.194   3.762
11992SI     SI111992   4.666   9.023   7.812
11993SI     SI111993   7.524   0.942   5.380
11994SI     SI111994   8.879   0.011   6.886
11995SI     SI111995   9.112   8.720   9.474
11996SI     SI111996   4.041   9.298   9.508
11997SI     SI111997   9.064   8.557   6.306
11998SI     SI111998   5.615   0.148   7.386
11999SI     SI111999   0.628   0.318   1.617
12000SI     SI112000   9.464   0.620   0.199
12001SI     SI112001   4.162   0.157   6.809
12002SI     SI112002   0.194   8.929   9.388
12003SI     SI112003   6.112   8.706   8.938
12004SI     SI112004   1.900   0.399   7.956
12005SI     SI112005   2.960   0.144   0.812
12006SI     SI112006   5.219   0.691   3.910
12007SI     SI112007   1.485   8.388   1.556
12008SI     SI112008   1.693   0.061   1.069
12009SI     SI112009   5.883   0.754   2.523
12010SI     SI112010   6.579   0.243   3.687
12011SI     SI112011   4.963   9.546   8.669
12012SI     SI112012   0.559   9.470   8.048
12013SI     SI112013   8.625   0.827   6.999
12014SI     SI112014   6.399   0.419   8.291
12015SI     SI112015   3.304   8.814   1.031
12016SI     SI112016   2.643   9.073   7.850
12017SI     SI112017   9.273   9.267   3.027
12018SI     SI112018   0.608   9.200   3.072
12019SI     SI112019   2.012   0.561   1.618
12020SI     SI112020   4.323   0.360   5.909
12021SI     SI112021   0.788   9.535   2.024
12022SI     SI112022   3.939   9.556   8.018
12023SI     SI112023   8.461   9.101   4.110
12024SI     SI112024   6.572   8.747   8.228
12025SI     SI112025   9.187   9.098   6.515
12026SI     SI112026   5.656   8.892   4.614
12027SI     SI112027   1.649   9.072   8.351
12028SI     SI112028   2.241   9.094   5.472
12029SI     SI112029   0.770   1.016   9.025
12030SI     SI112030   6.746   1.022   6.862
12031SI     SI112031   3.308   9.298   2.070
12032SI     SI112032   2.963   9.428   7.575
12033SI     SI112033   8.248   8.422   7.299
12034SI     SI112034   5.474   9.112   2.875
12035SI     SI112035   1.699   0.762   0.288
12036SI     SI112036   0.214   8.918   0.332
12037SI     SI112037   0.177   8.404   0.330
12038SI     SI112038   1.186   9.156   3.510
12039SI     SI112039   8.474   0.852   3.361
12040SI     SI112040   2.074   8.986   5.077
12041SI     SI112041   3.462   9.417   9.032
12042SI     SI112042   8.866   0.593   5.085
12043SI     SI112043   1.858   0.164   8.156
12044SI     SI112044   6.151   8.635   8.529
12045SI     SI112045   5.002   0.633   8.173
12046SI     SI112046   1.477   1.079   5.399
12047SI     SI112047   2.435   9.340   6.347
12048SI     SI112048   8.140   0.526   2.998
12049SI     SI112049   0.288   8.656   0.483
12050SI     SI112050   9.444   0.016   3.383
12051SI     SI112051   2.925   0.237   9.102
12052SI     SI112052   3.453   9.000   1.664
12053SI     SI112053   2.487   0.112   7.357
12054SI     SI112054   1.589   9.119   3.203
12055SI     SI112055   4.826   9.542   3.786
12056SI     SI112056   3.341   9.197   6.032
12057SI     SI112057   3.827   8.967   6.871
12058SI     SI112058   8.238   9.023   3.926
12059SI     SI112059   4.876   1.158   1.968
12060SI     SI112060   7.457   9.291   3.132
12061SI     SI112061   8.240   9.154   0.864
12062SI     SI112062   8.615   0.812   1.485
12063SI     SI112063   3.957   0.370   8.787
12064SI     SI112064   1.958   0.772   1.841
12065SI     SI112065   8.844   9.120   7.340
12066SI     SI112066   0.863   9.528   0.085
12067SI     SI112067   1.940   1.061   4.522
12068SI     SI112068   1.790   8.886   6.462
12069SI     SI112069   3.525   1.170   2.644
12070SI     SI112070   6.803   0.681   8.174
12071SI     SI112071   4.378   9.444   9.392
12072SI     SI112072   5.533   1.060   9.177
12073SI     SI112073   5.391   8.821   9.108
12074SI     SI112074   2.218   8.411   4.579
12075SI     SI112075   5.314   0.786   1.457
12076SI     SI112076   9.332   1.060   8.884
12077SI     SI112077   3.732   0.357   9.447
12078SI     SI112078   2.582   8.928   1.260
12079SI     SI112079   8.803   9.521   5.625
12080SI     SI112080   0.774   8.686   6.769
12081SI     SI112081   8.056   8.813   5.698
12082SI     SI112082   2.139   0.011   2.450
12083SI     SI112083   1.663   0.912   0.561
12084SI     SI112084   6.070   1.156   7.820
12085SI     SI112085   5.584   0.643   5.254
12086SI     SI112086   1.166   0.585   7.487
12087SI     SI112087   7.906   8.937   1.922
12088SI     SI112088   7.290   0.280   8.722
12089SI     SI112089   6.392   0.158   8.150
12090SI     SI112090   7.318   0.101   7.793
12091SI     SI112091   8.574   9.096   5.515
12092SI     SI112092   9.251   1.000   8.583
12093SI     SI112093   7.411   0.503   0.389
12094SI     SI112094   1.802   0.935   0.048
12095SI     SI112095   6.721   8.758   6.744
12096SI     SI112096   4.852   0.542   1.208
12097SI     SI112097   9.297   0.424   8.858
12098SI     SI112098   3.075   8.550   9.130
12099SI     SI112099   3.704   0.676   0.581
12100SI     SI112100   4.330   8.651   4.596
12101SI     SI112101   5.439   0.109   0.758
12102SI     SI112102   0.872   1.109   5.561
12103SI     SI112103   4.555   9.128   6.930
12104SI     SI112104   3.425   8.649   0.015
12105SI     SI112105   2.670   8.524   3.720
12106SI     SI112106   3.568   0.684   6.261
12107SI     SI112107   7.613   1.040   1.721
12108SI     SI112108   8.178   1.006   7.868
12109SI     SI112109   5.285   0.036   2.211
12110SI     SI112110   7.644   0.461   2.879
12111SI     SI112111   1.456   0.586   0.269
12112SI     SI112112   7.772   9.258   2.819
12113SI     SI112113   0.101   8.469   8.733
12114SI     SI112114   2.456   8.575   7.820
12115SI     SI112115   8.191   8.826   1.286
12116SI     SI112116   7.999   8.820   0.547
12117SI     SI112117   3.341   8.425   0.456
12118SI     SI112118   2.307   1.055   0.973
12119SI     SI112119   7.823   1.068   0.174
12120SI     SI112120   6.852   9.554   3.938
12121SI     SI112121   8.614   1.122   9.189
12122SI     SI112122   1.925   9.462   4.127
12123SI     SI112123   0.870   0.212   5.898
12124SI     SI112124   4.105   0.114   4.073
12125SI     SI112125   6.030   8.797   9.434
12126SI     SI112126   5.054   0.351   1.068
12127SI     SI112127   4.631   8.982   7.331
12128SI     SI112128   9.286   8.983   8.678
12129SI     SI112129   7.089   0.110   8.006
12130SI     SI112130   6.823   0.516   5.809
12131SI     SI112131   6.020   1.044   0.957
12132SI     SI112132   4.133   0.700   4.416
12133SI     SI112133   2.598   1.028   5.387
12134SI     SI112134   8.817   9.511   2.203
12135SI     SI112135   6.050   1.173   3.264
12136SI     SI112136   8.661   0.077   8.520
12137SI     SI112137   7.170   9.401   6.771
12138SI     SI112138   3.654   0.080   7.416
12139SI     SI112139   8.292   0.146   3.307
12140SI     SI112140   7.552   8.760   4.424
12141SI     SI112141   3.619   0.993   4.564
12142SI     SI112142   5.425   0.115   3.524
12143SI     SI112143   0.272   8.533   5.325
12144SI     SI112144   0.460   0.330   0.411
12145SI     SI112145   9.457   0.745   4.320
12146SI     SI112146   4.794   0.095   4.207
12147SI     SI112147   2.685   9.495   6.240
12148SI     SI112148   4.537   0.333   7.036
12149SI     SI112149   5.883   9.099   7.473
12150SI     SI112150   7.161   9.325   4.329
12151SI     SI112151   7.299   8.934   4.073
12152SI     SI112152   3.370   9.273   7.261
12153SI     SI112153   9.232   0.958   1.141
12154SI     SI112154   2.708   0.444   4.169
12155SI     SI112155   8.194   8.540   1.966
12156SI     SI112156   3.328   9.069   1.415
12157SI     SI112157   8.787   9.222   0.971
12158SI     SI112158   8.404   1.040   2.215
12159SI     SI112159   2.645   8.736   1.772
12160SI     SI112160   6.565   0.366   4.484
12161SI     SI112161   9.556   0.161   1.618
12162SI     SI112162   9.439   0.539   5.673
12163SI     SI112163   4.884   8.974   6.556
12164SI     SI112164   0.347   9.401   4.098
12165SI     SI112165   8.564   0.922   5.572
12166SI     SI112166   2.402   0.635   0.280
12167SI     SI112167   1.599   0.810   2.099
12168SI     SI112168   5.456   0.133   8.310
12169SI     SI112169   5.841   9.476   4.191
12170SI     SI112170   0.424   1.063   2.673
12171SI     SI112171   6.454   0.007   6.155
12172SI     SI112172   6.429   0.990   1.627
12173SI     SI112173   5.288   1.164   9.044
12174SI     SI112174   8.133   0.487   4.340
12175SI     SI112175   6.453   8.830   3.952
12176SI     SI112176   4.637   8.652   2.844
12177SI     SI112177   5.059   8.526   4.172
12178SI     SI112178   9.319   0.481   2.501
12179SI     SI112179   1.283   0.098   8.956
12180SI     SI112180   8.928   0.823   1.498
12181SI     SI112181   2.707   0.030   3.566
12182SI     SI112182   4.170   8.784   3.890
12183SI     SI112183   7.622   9.334   5.861
12184SI     SI112184   9.251   1.075   6.777
12185SI     SI112185   7.451   8.453   5.806
12186SI     SI112186   8.518   0.300   5.868
12187SI     SI112187   5.042   0.853   8.894
12188SI     SI112188   6.806   0.611   7.332
12189SI     SI112189   2.222   0.403   9.412
12190SI     SI112190   2.765   8.801   8.262
12191SI     SI112191   2.704   0.310   6.458
12192SI     SI112192   1.613   0.747   4.385
12193SI     SI112193   6.562   0.601   7.184
12194SI     SI112194   9.335   9.025   1.718
12195SI     SI112195   1.163   9.519   1.697
12196SI     SI112196   4.630   9.102   5.730
12197SI     SI112197   7.808   9.400   1.648
12198SI     SI112198   9.327   0.660   0.734
12199SI     SI112199   1.619   0.298   9.536
12200SI     SI112200   7.342   0.163   3.126
12201SI     SI112201   8.184   8.398   7.839
12202SI     SI112202   8.424   8.951   1.850
12203SI     SI112203   6.890   0.514   9.535
12204SI     SI112204   9.151   8.837   9.189
12205SI     SI112205   0.766   8.444   8.155
12206SI     SI112206   1.048   9.522   6.593
12207SI     SI112207   1.076   0.776   3.530
12208SI     SI112208   7.998   0.280   3.726
12209SI     SI112209   6.162   9.518   4.836
12210SI     SI112210   2.275   0.168   8.308
12211SI     SI112211   2.512   0.257   6.880
12212SI     SI112212   4.305   9.533   3.916
12213SI     SI112213   6.763   0.433   7.590
12214SI     SI112214   4.925   9.508   0.907
12215SI     SI112215   5.595   8.566   9.558
12216SI     SI112216   7.070   9.187   3.715
12217SI     SI112217   4.387   9.557   3.394
12218SI     SI112218   4.962   0.862   7.962
12219SI     SI112219   4.781   9.231   9.254
12220SI     SI112220   2.322   1.002   8.432
12221SI     SI112221   3.491   1.049   8.160
12222SI     SI112222   2.823   0.565   5.346
12223SI     SI112223   8.686   0.193   2.182
12224SI     SI112224   5.156   8.549   4.471
12225SI     SI112225   8.424   8.881   5.044
12226SI     SI112226   5.095   0.749   0.471
12227SI     SI112227   3.552   1.031   6.766
12228SI     SI112228   0.224   9.266   3.863
12229SI     SI112229   2.614   8.593   2.459
12230SI     SI112230   4.222   1.249   8.770
12231SI     SI112231   8.908   0.073   3.014
12232SI     SI112232   3.720   9.554   5.999
12233SI     SI112233   1.612   0.898   9.145
12234SI     SI112234   1.845   8.976   3.312
12235SI     SI112235   5.837   8.642   8.519
12236SI     SI112236   0.318   9.583   3.117
12237SI     SI112237   7.777   0.507   6.062
12238SI     SI112238   2.855   0.905   0.153
12239SI     SI112239   9.033   0.715   1.109
12240SI     SI112240   2.151   0.184   0.567
12241SI     SI112241   6.412   0.188   7.099
12242SI     SI112242   5.547   9.381   2.521
12243SI     SI112243   5.448   8.721   2.259
12244SI     SI112244   0.548   8.515   6.251
12245SI     SI112245   5.113   9.145   0.019
12246SI     SI112246   8.190   0.221   8.664
12247SI     SI112247   3.623   0.979   7.882
12248SI     SI112248   0.341   0.265   4.917
12249SI     SI112249   7.250   9.207   2.035
12250SI     SI112250   4.019   8.582   8.090
12251SI     SI112251   4.041   9.066   2.955
12252SI     SI112252   1.113   0.834   4.685
12253SI     SI112253   7.440   0.539   3.921
12254SI     SI112254   7.188   0.740   6.397
12255SI     SI112255   5.215   0.528   9.490
12256SI     SI112256   5.260   8.591   2.059
12257SI     SI112257   1.265   8.326   0.448
12258SI     SI112258   0.100   0.350   8.290
12259SI     SI112259   7.520   1.031   6.302
12260SI     SI112260   7.156   9.318   3.032
12261SI     SI112261   5.398   8.383   5.371
12262SI     SI112262   2.752   0.056   4.420
12263SI     SI112263   6.086   9.196   5.656
12264SI     SI112264   6.879   9.162   0.406
12265SI     SI112265   5.255   0.426   6.463
12266SI     SI112266   0.078   1.232   2.288
12267SI     SI112267   1.927   8.649   1.565
12268SI     SI112268   5.747   8.623   7.816
12269SI     SI112269   3.715   8.533   3.825
12270SI     SI112270   8.117   8.759   6.179
12271SI     SI112271   1.005   0.994   9.203
12272SI     SI112272   4.685   0.614   7.010
12273SI     SI112273   4.111   9.164   1.936
12274SI     SI112274   8.827   8.555   3.972
12275SI     SI112275   4.416   8.689   0.768
12276SI     SI112276   1.359   8.533   9.587
12277SI     SI112277   8.702   8.502   4.520
12278SI     SI112278   7.927   8.431   4.002
12279SI     SI112279   5.710   0.860   9.012
12280SI     SI112280   3.327   9.234   4.922
12281SI     SI112281   4.851   8.970   1.678
12282SI     SI112282   6.481   9.581   8.996
12283SI     SI112283   6.756   9.046   0.154
12284SI     SI112284   3.160   9.409   0.564
12285SI     SI112285   0.582   0.817   0.094
12286SI     SI112286   5.888   8.384   7.148
12287SI     SI112287   2.525   9.450   1.976
12288SI     SI112288   3.956   0.460   2.306
12289SI     SI112289   1.041   9.246   7.000
12290SI     SI112290   9.144   9.399   8.004
12291SI     SI112291   7.165   0.097   1.018
12292SI     SI112292   8.647   8.966   4.306
12293SI     SI112293   8.792   0.730   0.515
12294SI     SI112294   9.060   9.560   0.377
12295SI     SI112295   7.537   8.780   2.963
12296SI     SI112296   8.121   1.107   0.077
12297SI     SI112297   1.927   0.949   1.403
12298SI     SI112298   1.043   0.288   1.268
12299SI     SI112299   8.495   0.749   3.649
12300SI     SI112300   0.299   0.511   7.642
12301SI     SI112301   9.444   0.041   9.386
12302SI     SI112302   8.509   9.327   6.396
12303SI     SI112303   2.784   9.397   7.206
12304SI     SI112304   6.569   8.635   7.529
12305SI     SI112305   6.956   9.095   7.841
12306SI     SI112306   4.604   1.029   4.368
12307SI     SI112307   3.525   1.232   3.446
12308SI     SI112308   2.560   9.304   7.416
12309SI     SI112309   2.222   8.690   4.726
12310SI     SI112310   9.098   9.584   2.344
12311SI     SI112311   7.881   8.937   6.193
12312SI     SI112312   5.821   9.373   9.102
12313SI     SI112313   7.158   0.773   5.682
12314SI     SI112314   3.126   8.395   6.092
12315SI     SI112315   8.182   8.769   9.481
12316SI     SI112316   0.115   0.973   7.888
12317SI     SI112317   0.530   0.095   7.382
12318SI     SI112318   0.216   1.121   5.989
12319SI     SI112319   9.123   9.362   1.423
12320SI     SI112320   1.382   8.741   0.961
12321SI     SI112321   2.110   9.339   3.523
12322SI     SI112322   3.525   8.432   5.880
12323SI     SI112323   6.614   1.073   0.591
12324SI     SI112324   7.636   8.953   8.702
12325SI     SI112325   7.582   8.615   6.538
12326SI     SI112326   3.332   9.573   4.595
12327SI     SI112327   5.257   9.460   1.280
12328SI     SI112328   8.195   0.557   6.338
12329SI     SI112329   2.125   0.266   2.934
12330SI     SI112330   3.643   0.506   3.513
12331SI     SI112331   5.035   1.101   8.136
12332SI     SI112332   6.512   0.508   6.222
12333SI     SI112333   8.489   0.756   2.266
12334SI     SI112334   0.023   8.480   3.355
12335SI     SI112335   4.257   0.030   5.378
12336SI     SI112336   0.708   8.780   6.484
12337SI     SI112337   6.350   0.695   6.018
12338SI     SI112338   3.797   8.637   0.269
12339SI     SI112339   8.106   0.222   1.629
12340SI     SI112340   4.061   9.375   8.232
12341SI     SI112341   6.770   8.516   1.451
12342SI     SI112342   1.514   8.912   3.607
12343SI     SI112343   4.698   9.569   0.426
12344SI     SI112344   8.896   9.040   4.167
12345SI     SI112345   4.116   0.270   3.560
12346SI     SI112346   5.052   1.048   7.304
12347SI     SI112347   6.452   0.703   5.137
12348SI     SI112348   2.100   1.057   4.958
12349SI     SI112349   5.687   8.951   7.297
12350SI     SI112350   1.097   0.364   5.743
12351SI     SI112351   4.658   0.684   0.362
12352SI     SI112352   3.514   9.598   2.925
12353SI     SI112353   7.614   8.597   7.572
12354SI     SI112354   2.702   8.738   5.491
12355SI     SI112355   2.144   9.214   8.371
12356SI     SI112356   8.505   1.029   0.746
12357SI     SI112357   5.437   1.026   0.736
12358SI     SI112358   9.108   9.152   5.079
12359SI     SI112359   9.160   9.273   0.310
12360SI     SI112360   6.048   8.931   9.145
12361SI     SI112361   0.436   1.171   4.318
12362SI     SI112362   3.667   9.227   7.356
12363SI     SI112363   5.622   1.061   8.802
12364SI     SI112364   1.858   9.223   1.713
12365SI     SI112365   0.232   0.352   8.716
12366SI     SI112366   3.578   8.525   2.762
12367SI     SI112367   0.368   9.421   8.503
12368SI     SI112368   1.549   8.942   6.068
12369SI     SI112369   7.430   9.120   8.550
12370SI     SI112370   9.496   0.494   7.901
12371SI     SI112371   7.129   9.111   6.017
12372SI     SI112372   6.355   8.935   3.497
12373SI     SI112373   5.974   1.025   7.577
12374SI     SI112374   2.970   0.447   6.415
12375SI     SI112375   4.500   0.205   0.364
12376SI     SI112376   0.808   1.087   7.343
12377SI     SI112377   3.024   9.359   9.282
12378SI     SI112378   3.982   8.692   1.952
12379SI     SI112379   5.710   0.032   8.477
12380SI     SI112380   3.907   8.939   8.472
12381SI     SI112381   4.052   0.939   6.132
12382SI     SI112382   4.211   1.005   7.460
12383SI     SI112383   5.329   1.188   2.756
12384SI     SI112384   1.833   0.834   5.928
12385SI     SI112385   0.466   9.214   6.564
12386SI     SI112386   0.330   9.193   8.942
12387SI     SI112387   6.787   0.651   7.890
12388SI     SI112388   2.701   0.327   9.273
12389SI     SI112389   3.059   0.825   8.386
12390SI     SI112390   5.612   9.053   9.551
12391SI     SI112391   3.360   9.211   7.888
12392SI     SI112392   7.293   8.792   9.066
12393SI     SI112393   9.200   8.719   4.455
12394SI     SI112394   4.571   8.442   0.281
12395SI     SI112395   5.970   0.213   2.399
12396SI     SI112396   7.994   1.094   8.496
12397SI     SI112397   9.579   0.133   3.643
12398SI     SI112398   1.891   0.010   0.614
12399SI     SI112399   0.364   8.614   5.870
12400SI     SI112400   1.264   9.248   4.359
12401SI     SI112401   9.163   0.494   5.791
12402SI     SI112402   8.870   0.436   9.309
12403SI     SI112403   9.267   8.928   4.961
12404SI     SI112404   4.765   0.958   3.517
12405SI     SI112405   8.672   0.728   3.192
12406SI     SI112406   1.411   0.524   9.201
12407SI     SI112407   4.162   0.020   6.262
12408SI     SI112408   5.674   8.724   6.185
12409SI     SI112409   8.616   8.529   5.632
12410SI     SI112410   0.538   9.368   1.115
12411SI     SI112411   6.577   8.666   1.611
12412SI     SI112412   0.505   9.368   9.142
12413SI     SI112413   7.029   8.612   4.257
12414SI     SI112414   6.722   9.483   8.020
12415SI     SI112415   7.573   9.558   9.127
12416SI     SI112416   7.782   9.563   2.898
12417SI     SI112417   5.738   1.206   8.049
12418SI     SI112418   0.699   8.644   3.155
12419SI     SI112419   3.390   0.904   2.573
12420SI     SI112420   8.345   0.845   0.541
12421SI     SI112421   4.363   0.986   0.436
12422SI     SI112422   1.470   0.707   3.357
12423SI     SI112423   3.880   0.098   2.602
12424SI     SI112424   5.870   0.801   8.084
12425SI     SI112425   4.099   8.848   8.885
12426SI     SI112426   4.510   0.793   2.419
12427SI     SI112427   2.124   0.027   6.598
12428SI     SI112428   0.395   8.667   3.602
12429SI     SI112429   7.311   0.567   0.925
12430SI     SI112430   7.166   9.296   7.898
12431SI     SI112431   2.876   0.738   6.431
12432SI     SI112432   3.623   0.762   1.192
12433SI     SI112433   8.257   0.422   5.948
12434SI     SI112434   5.691   0.238   3.398
12435SI     SI112435   0.970   9.145   4.786
12436SI     SI112436   3.107   8.667   1.498
12437SI     SI112437   3.866   1.154   4.451
12438SI     SI112438   5.019   0.543   6.619
12439SI     SI112439   6.444   0.351   1.935
12440SI     SI112440   1.174   8.842   1.319
12441SI     SI112441   2.622   0.719   2.362
12442SI     SI112442   9.501   0.688   2.363
12443SI     SI112443   7.422   8.730   8.042
12444SI     SI112444   3.161   0.303   6.206
12445SI     SI112445   3.568   8.519   8.271
12446SI     SI112446   8.683   8.848   3.678
12447SI     SI112447   0.115   9.360   1.328
12448SI     SI112448   1.285   9.269   0.138
12449SI     SI112449   4.760   0.958   5.555
12450SI     SI112450   4.043   0.940   4.601
12451SI     SI112451   9.440   0.049   7.041
12452SI     SI112452   8.934   0.772   8.964
12453SI     SI112453   1.859   0.182   2.825
12454SI     SI112454   1.863   8.602   7.358
12455SI     SI112455   6.641   8.555   2.958
12456SI     SI112456   5.173   0.832   2.923
12457SI     SI112457   1.434   8.801   0.131
12458SI     SI112458   5.198   9.324   8.961
12459SI     SI112459   8.071   0.279   4.829
12460SI     SI112460   1.100   9.384   8.379
12461SI     SI112461   0.793   9.470   1.263
12462SI     SI112462   6.041   1.126   4.191
12463SI     SI112463   5.421   0.947   5.811
12464SI     SI112464   6.548   9.489   3.997
12465SI     SI112465   8.749   9.528   0.370
12466SI     SI112466   3.084   9.151   0.695
12467SI     SI112467   9.577   8.964   6.668
12468SI     SI112468   8.059   0.251   5.135
12469SI     SI112469   6.766   8.816   6.298
12470SI     SI112470   6.170   0.737   6.256
12471SI     SI112471   5.196   0.558   2.822
12472SI     SI112472   7.391   9.557   1.168
12473SI     SI112473   4.117   8.769   9.172
12474SI     SI112474   0.428   9.476   5.314
12475SI     SI112475   5.837   1.112   1.458
12476SI     SI112476   6.697   1.123   0.062
12477SI     SI112477   4.233   9.058   2.205
12478SI     SI112478   6.543   0.991   5.163
12479SI     SI112479   1.300   0.044   6.146
12480SI     SI112480   5.221   0.767   9.111
12481SI     SI112481   8.704   9.392   9.044
12482SI     SI112482   8.768   9.371   9.465
12483SI     SI112483   1.598   0.559   4.005
12484SI     SI112484   6.080   0.067   4.203
12485SI     SI112485   0.443   0.440   3.828
12486SI     SI112486   6.052   8.912   8.186
12487SI     SI112487   5.952   8.900   3.194
12488SI     SI112488   3.385   0.071   6.967
12489SI     SI112489   7.873   8.798   3.327
12490SI     SI112490   5.745   0.538   8.513
12491SI     SI112491   8.457   0.139   1.982
12492SI     SI112492   8.613   9.461   2.723
12493SI     SI112493   3.924   8.522   2.424
12494SI     SI112494   2.770   0.669   5.635
12495SI     SI112495   1.553   0.351   3.265
12496SI     SI112496   2.440   8.805   2.884
12497SI     SI112497   6.655   0.036   5.691
12498SI     SI112498   6.253   9.500   0.590
12499SI     SI112499   0.026   8.927   1.763
12500SI     SI112500   5.292   9.258   4.635
12501SI     SI112501   6.659   1.300   8.015
12502SI     SI112502   5.103   8.707   2.541
12503SI     SI112503   7.956   0.576   4.810
12504SI     SI112504   3.142   0.896   5.877
12505SI     SI112505   0.972   9.046   0.370
12506SI     SI112506   2.810   8.992   3.409
12507SI     SI112507   2.830   9.042   8.998
12508SI     SI112508   0.166   9.366   0.661
12509SI     SI112509   5.994   9.231   3.618
12510SI     SI112510   7.719   9.601   3.393
12511SI     SI112511   5.792   9.551   2.040
12512SI     SI112512   1.321   9.043   2.863
12513SI     SI112513   1.610   0.835   5.722
12514SI     SI112514   7.762   9.191   6.073
12515SI     SI112515   1.174   0.774   8.556
12516SI     SI112516   5.310   9.251   0.640
12517SI     SI112517   0.974   9.232   6.507
12518SI     SI112518   6.454   9.283   3.778
12519SI     SI112519   3.808   0.947   2.292
12520SI     SI112520   5.632   1.160   6.460
12521SI     SI112521   4.548   0.595   4.174
12522SI     SI112522   2.178   1.107   2.166
12523SI     SI112523   6.491   0.903   0.119
12524SI     SI112524   5.035   1.076   1.702
12525SI     SI112525   8.496   8.467   1.929
12526SI     SI112526   8.775   9.334   8.291
12527SI     SI112527   7.875   9.101   8.783
12528SI     SI112528   8.123   9.148   0.395
12529SI     SI112529   6.026   0.540   8.062
12530SI     SI112530   1.647   9.464   3.463
12531SI     SI112531   3.673   9.441   7.595
12532SI     SI112532   8.210   0.783   8.881
12533SI     SI112533   8.272   1.282   3.594
12534SI     SI112534   7.391   8.467   5.243
12535SI     SI112535   1.910   9.220   3.715
12536SI     SI112536   3.643   0.057   9.423
12537SI     SI112537   7.955   0.091   6.224
12538SI     SI112538   7.600   0.295   0.012
12539SI     SI112539   5.257   9.036   1.446
12540SI     SI112540   3.493   8.396   4.471
12541SI     SI112541   8.254   9.234   1.148
12542SI     SI112542   6.155   8.998   5.113
12543SI     SI112543   2.114   0.747   0.248
12544SI     SI112544   9.281   9.357   2.207
12545SI     SI112545   9.570   9.208   7.608
12546SI     SI112546   5.026   8.808   4.034
12547SI     SI112547   7.037   8.407   0.289
12548SI     SI112548   7.312   9.425   9.026
12549SI     SI112549   1.395   0.203   6.991
12550SI     SI112550   5.026   9.433   4.600
12551SI     SI112551   4.879   0.999   4.507
12552SI     SI112552   4.615   0.694   5.571
12553SI     SI112553   7.216   0.038   0.369
12554SI     SI112554   7.844   0.557   7.730
12555SI     SI112555   3.156   8.514   0.686
12556SI     SI112556   1.243   0.661   9.414
12557SI     SI112557   9.194   9.023   7.712
12558SI     SI112558   3.655   0.715   8.785
12559SI     SI112559   4.716   8.586   8.587
12560SI     SI112560   8.912   0.058   6.045
12561SI     SI112561   0.412   0.888   6.076
12562SI     SI112562   0.450   0.980   1.709
12563SI     SI112563   2.407   8.426   0.180
12564SI     SI112564   2.629   0.098   1.149
12565SI     SI112565   5.310   0.183   5.227
12566SI     SI112566   2.717   1.148   2.210
12567SI     SI112567   8.540   0.338   5.104
12568SI     SI112568   6.885   9.111   9.138
12569SI     SI112569   5.797   1.014   4.318
12570SI     SI112570   8.257   8.639   4.426
12571SI     SI112571   4.033   0.349   5.039
12572SI     SI112572   3.801   0.248   4.846
12573SI     SI112573   7.024   8.620   7.125
12574SI     SI112574   3.492   8.402   3.662
12575SI     SI112575   5.850   0.871   4.788
12576SI     SI112576   5.523   0.938   3.155
12577SI     SI112577   9.312   0.155   6.351
12578SI     SI112578   5.916   8.716   4.559
12579SI     SI112579   2.523   8.862   6.699
12580SI     SI112580   6.137   0.593   2.140
12581SI     SI112581   8.704   0.120   7.305
12582SI     SI112582   8.426   1.232   2.461
12583SI     SI112583   9.119   9.492   2.643
12584SI     SI112584   6.948   9.421   4.784
12585SI     SI112585   7.387   8.706   5.646
12586SI     SI112586   2.461   8.595   1.974
12587SI     SI112587   0.088   1.063   4.601
12588SI     SI112588   3.231   0.215   0.935
12589SI     SI112589   1.423   8.445   2.690
12590SI     SI112590   5.637   0.149   1.607
12591SI     SI112591   7.824   0.216   5.959
12592SI     SI112592   7.929   0.985   6.123
12593SI     SI112593   1.752   8.708   0.543
12594SI     SI112594   0.635   0.514   4.063
12595SI     SI112595   1.078   0.655   3.056
12596SI     SI112596   2.958   9.423   6.579
12597SI     SI112597   4.763   0.607   9.438
12598SI     SI112598   1.912   9.188   2.198
12599SI     SI112599   6.414   8.641   0.320
12600SI     SI112600   1.855   8.444   3.142
12601SI     SI112601   7.485   8.658   6.043
12602SI     SI112602   4.250   0.356   9.491
12603SI     SI112603   1.416   8.564   5.857
12604SI     SI112604   1.303   0.646   1.463
12605SI     SI112605   1.675   1.052   1.905
12606SI     SI112606   2.946   0.217   7.538
12607SI     SI112607   7.608   9.556   2.101
12608SI     SI112608   5.527   8.700   1.668
12609SI     SI112609   7.203   1.204   0.073
12610SI     SI112610   9.225   0.363   7.450
12611SI     SI112611   0.186   8.540   5.632
12612SI     SI112612   7.063   8.688   1.162
12613SI     SI112613   7.273   8.650   1.646
12614SI     SI112614   0.080   1.243   6.489
12615SI     SI112615   3.210   8.915   4.185
12616SI     SI112616   1.575   9.189   0.535
12617SI     SI112617   6.193   0.576   9.143
12618SI     SI112618   0.971   0.420   6.443
12619SI     SI112619   5.321   9.209   4.030
12620SI     SI112620   7.075   0.415   6.942
12621SI     SI112621   5.838   0.205   6.631
12622SI     SI112622   5.930   1.034   7.161
12623SI     SI112623   0.237   9.274   4.589
12624SI     SI112624   0.514   8.983   5.317
12625SI     SI112625   4.442   0.968   2.954
12626SI     SI112626   6.229   9.193   7.823
12627SI     SI112627   7.983   8.762   0.087
12628SI     SI112628   4.023   0.738   3.669
12629SI     SI112629   3.109   0.832   4.619
12630SI     SI112630   2.787   8.562   0.371
12631SI     SI112631   4.348   8.957   5.101
12632SI     SI112632   6.411   0.655   2.005
12633SI     SI112633   4.012   0.659   6.838
12634SI     SI112634   1.827   1.112   4.808
12635SI     SI112635   5.562   9.322   6.718
12636SI     SI112636   6.504   9.173   7.662
12637SI     SI112637   9.422   9.434   5.924
12638SI     SI112638   7.058   0.110   5.554
12639SI     SI112639   2.558   8.580   8.348
12640SI     SI112640   2.468   8.565   6.623
12641SI     SI112641   7.352   0.605   1.758
12642SI     SI112642   4.505   8.505   5.330
12643SI     SI112643   6.086   9.398   8.713
12644SI     SI112644   7.616   0.880   6.566
12645SI     SI112645   1.376   0.633   7.254
12646SI     SI112646   9.314   0.500   8.575
12647SI     SI112647   1.017   0.789   7.116
12648SI     SI112648   1.307   8.875   2.623
12649SI     SI112649   7.296   0.827   9.099
12650SI     SI112650   4.231   8.760   5.621
12651SI     SI112651   3.299   0.488   0.822
12652SI     SI112652   6.447   0.754   7.438
12653SI     SI112653   1.416   0.698   5.065
12654SI     SI112654   3.526   8.748   5.467
12655SI     SI112655   1.350   9.068   0.695
12656SI     SI112656   8.859   8.770   3.423
12657SI     SI112657   9.541   8.565   7.048
12658SI     SI112658   4.177   0.579   4.879
12659SI     SI112659   1.289   0.910   7.177
12660SI     SI112660   0.925   9.340   6.047
12661SI     SI112661   1.110   8.632   6.242
12662SI     SI112662   3.433   0.436   6.567
12663SI     SI112663   1.869   9.462   8.082
12664SI     SI112664   5.128   8.767   8.602
12665SI     SI112665   7.009   1.041   8.444
12666SI     SI112666   9.105   8.511   5.126
12667SI     SI112667   4.264   8.263   2.257
12668SI     SI112668   9.321   0.551   1.425
12669SI     SI112669   2.943   1.096   4.677
12670SI     SI112670   0.574   8.756   8.195
12671SI     SI112671   2.007   0.244   4.975
12672SI     SI112672   2.829   0.495   1.908
12673SI     SI112673   2.284   1.240   7.738
12674SI     SI112674   8.806   9.218   5.697
12675SI     SI112675   1.073   9.180   0.638
12676SI     SI112676   6.615   9.064   6.396
12677SI     SI112677   1.276   8.789   8.938
12678SI     SI112678   0.204   8.766   8.720
12679SI     SI112679   6.791   0.414   3.851
12680SI     SI112680   4.225   0.203   8.414
12681SI     SI112681   8.321   0.520   4.543
12682SI     SI112682   4.839   8.917   1.147
12683SI     SI112683   0.546   0.581   6.428
12684SI     SI112684   0.259   0.232   9.321
12685SI     SI112685   0.167   9.209   6.617
12686SI     SI112686   1.572   1.136   0.125
12687SI     SI112687   7.118   0.403   1.728
12688SI     SI112688   4.865   0.200   0.879
12689SI     SI112689   5.855   0.534   4.273
12690SI     SI112690   2.942   0.403   2.370
12691SI     SI112691   2.742   9.008   6.558
12692SI     SI112692   8.917   9.007   6.398
12693SI     SI112693   7.095   0.738   8.435
12694SI     SI112694   5.218   0.350   4.308
12695SI     SI112695   5.860   0.797   1.504
12696SI     SI112696   7.514   0.612   4.647
12697SI     SI112697   2.175   0.596   8.436
12698SI     SI112698   5.864   8.415   0.575
12699SI     SI112699   8.492   8.862   8.282
12700SI     SI112700   3.722   9.239   6.930
12701SI     SI112701   0.630   8.786   9.314
12702SI     SI112702   3.661   9.575   0.568
12703SI     SI112703   4.649   8.550   2.547
12704SI     SI112704   7.051   9.131   7.427
12705SI     SI112705   4.570   8.598   7.429
12706SI     SI112706   4.295   9.194   0.523
12707SI     SI112707   4.556   0.125   4.398
12708SI     SI112708   0.479   8.371   8.177
12709SI     SI112709   9.103   8.967   0.708
12710SI     SI112710   1.352   0.947   5.843
12711SI     SI112711   2.466   8.886   5.377
12712SI     SI112712   2.535   9.352   4.281
12713SI     SI112713   4.416   8.695   1.069
12714SI     SI112714   0.689   0.546   4.684
12715SI     SI112715   3.825   9.097   0.445
12716SI     SI112716   0.713   9.050   4.055
12717SI     SI112717   8.736   8.803   5.971
12718SI     SI112718   2.060   9.117   9.391
12719SI     SI112719   4.598   0.934   8.326
12720SI     SI112720   7.289   9.372   0.286
12721SI     SI112721   4.467   8.991   0.356
12722SI     SI112722   7.995   8.852   7.013
12723SI     SI112723   7.936   9.383   7.115
12724SI     SI112724   8.595   9.076   5.211
12725SI     SI112725   6.639   1.044   1.854
12726SI     SI112726   3.780   9.413   2.692
12727SI     SI112727   0.211   9.240   2.431
12728SI     SI112728   7.362   8.624   0.872
12729SI     SI112729   5.180   0.315   2.986
12730SI     SI112730   7.759   0.787   7.231
12731SI     SI112731   1.733   8.800   9.158
12732SI     SI112732   3.887   9.343   4.336
12733SI     SI112733   9.238   9.133   9.254
12734SI     SI112734   2.162   9.224   1.164
12735SI     SI112735   1.528   9.425   6.155
12736SI     SI112736   0.261   8.648   6.522
12737SI     SI112737   2.181   0.544   7.935
12738SI     SI112738   4.166   8.517   0.140
12739SI     SI112739   0.055   9.538   2.727
12740SI     SI112740   1.993   0.058   1.065
12741SI     SI112741   1.854   0.260   0.133
12742SI     SI112742   2.116   9.597   5.439
12743SI     SI112743   7.481   0.714   1.272
12744SI     SI112744   2.879   9.193   6.763
12745SI     SI112745   1.541   0.429   5.143
12746SI     SI112746   4.278   0.916   9.163
12747SI     SI112747   1.305   0.131   2.309
12748SI     SI112748   3.114   0.713   4.902
12749SI     SI112749   6.404   8.725   0.608
12750SI     SI112750   5.778   0.768   0.518
12751SI     SI112751   1.698   1.108   5.591
12752SI     SI112752   3.691   8.986   3.676
12753SI     SI112753   2.249   0.377   6.319
12754SI     SI112754   1.890   0.490   8.762
12755SI     SI112755   0.910   8.874   2.297
12756SI     SI112756   9.421   9.145   6.314
12757SI     SI112757   3.149   0.794   7.022
12758SI     SI112758   5.424   8.377   1.938
12759SI     SI112759   2.247   0.552   4.486
12760SI     SI112760   4.827   0.536   2.473
12761SI     SI112761   5.566   9.445   1.613
12762SI     SI112762   4.432   8.642   5.813
12763SI     SI112763   8.505   9.552   3.180
12764SI     SI112764   8.049   0.169   8.095
12765SI     SI112765   9.150   9.531   3.446
12766SI     SI112766   6.569   8.489   8.037
12767SI     SI112767   5.107   8.402   0.660
12768SI     SI112768   6.845   0.899   7.429
12769SI     SI112769   8.141   9.410   3.151
12770SI     SI112770   2.963   9.134   9.497
12771SI     SI112771   2.432   8.624   7.380
12772SI     SI112772   8.146   0.153   0.586
12773SI     SI112773   0.072   0.179   2.543
12774SI     SI112774   3.587   0.247   8.146
12775SI     SI112775   6.270   8.706   8.270
12776SI     SI112776   4.455   0.697   3.346
12777SI     SI112777   3.814   0.946   5.961
12778SI     SI112778   6.952   0.618   2.711
12779SI     SI112779   0.336   8.784   4.868
12780SI     SI112780   8.499   0.468   0.835
12781SI     SI112781   7.343   9.081   0.930
12782SI     SI112782   4.706   0.378   3.021
12783SI     SI112783   9.475   8.551   8.565
12784SI     SI112784   3.946   0.618   4.179
12785SI     SI112785   7.113   8.679   8.116
12786SI     SI112786   5.319   0.193   7.329
12787SI     SI112787   3.970   8.907   0.265
12788SI     SI112788   1.384   0.691   4.187
12789SI     SI112789   6.941   9.218   1.096
12790SI     SI112790   8.124   0.440   0.459
12791SI     SI112791   3.891   1.258   7.581
12792SI     SI112792   5.412   9.349   5.807
12793SI     SI112793   5.557   0.964   0.454
12794SI     SI112794   6.313   8.357   3.810
12795SI     SI112795   7.573   8.486   0.691
12796SI     SI112796   6.431   0.279   9.350
12797SI     SI112797   7.064   0.344   5.741
12798SI     SI112798   8.904   1.077   3.549
12799SI     SI112799   7.351   0.260   0.189
12800SI     SI112800   5.881   8.806   2.910
12801SI     SI112801   1.516   8.661   5.048
12802SI     SI112802   0.924   0.118   6.409
12803SI     SI112803   3.796   0.887   2.900
12804SI     SI112804   6.081   0.317   6.077
12805SI     SI112805   2.065   0.006   7.632
12806SI     SI112806   5.730   9.053   7.814
12807SI     SI112807   2.301   0.679   1.566
12808SI     SI112808   1.984   8.627   2.959
12809SI     SI112809   1.814   0.129   3.878
12810SI     SI112810   5.150   9.117   5.503
12811SI     SI112811   6.594   0.914   5.624
12812SI     SI112812   3.319   0.200   5.730
12813SI     SI112813   9.174   8.842   3.830
12814SI     SI112814   0.316   8.932   0.065
12815SI     SI112815   2.303   9.198   5.040
12816SI     SI112816   2.102   8.774   3.993
12817SI     SI112817   5.642   8.871   8.930
12818SI     SI112818   6.541   9.465   0.976
12819SI     SI112819   3.155   9.534   5.387
12820SI     SI112820   0.875   0.614   7.493
12821SI     SI112821   1.935   1.033   6.156
12822SI     SI112822   9.434   0.280   2.108
12823SI     SI112823   1.583   0.813   5.290
12824SI     SI112824   8.347   9.272   7.087
12825SI     SI112825   9.181   8.980   4.280
12826SI     SI112826   1.619   0.995   8.590
12827SI     SI112827   4.983   0.305   2.344
12828SI     SI112828   0.398   0.763   8.448
12829SI     SI112829   1.464   0.468   7.770
12830SI     SI112830   4.768   0.345   9.592
12831SI     SI112831   7.849   9.542   0.367
12832SI     SI112832   3.357   1.085   5.786
12833SI     SI112833   2.825   1.257   7.075
12834SI     SI112834   4.031   0.258   1.585
12835SI     SI112835   8.121   1.060   3.756
12836SI     SI112836   3.447   8.686   4.516
12837SI     SI112837   3.683   0.849   5.521
12838SI     SI112838   1.853   0.935   8.968
12839SI     SI112839   3.680   0.495   4.301
12840SI     SI112840   6.627   9.023   3.803
12841SI     SI112841   7.009   0.538   7.740
12842SI     SI112842   1.249   8.974   5.589
12843SI     SI112843   4.835   0.292   6.668
12844SI     SI112844   5.695   9.039   0.824
12845SI     SI112845   4.961   0.004   3.311
12846SI     SI112846   9.352   0.022   4.069
12847SI     SI112847   8.524   8.458   9.349
12848SI     SI112848   5.261   0.701   4.564
12849SI     SI112849   6.810   9.308   8.901
12850SI     SI112850   2.650   9.548   2.527
12851SI     SI112851   4.288   0.887   0.860
12852SI     SI112852   2.746   0.689   2.642
12853SI     SI112853   3.451   9.291   5.631
12854SI     SI112854   6.954   8.755   9.362
12855SI     SI112855   4.839   0.023   1.338
12856SI     SI112856   4.718   0.225   5.899
12857SI     SI112857   1.402   9.046   9.566
12858SI     SI112858   6.806   0.831   6.119
12859SI     SI112859   6.648   8.535   8.710
12860SI     SI112860   0.918   9.390   7.362
12861SI     SI112861   2.423   0.211   9.257
12862SI     SI112862   3.897   0.566   8.305
12863SI     SI112863   7.470   9.244   7.845
12864SI     SI112864   7.161   9.534   5.211
12865SI     SI112865   4.510   8.578   7.997
12866SI     SI112866   6.195   8.964   2.780
12867SI     SI112867   6.992   0.992   3.296
12868SI     SI112868   0.507   0.654   4.925
12869SI     SI112869   0.500   9.599   2.675
12870SI     SI112870   0.035   9.032   2.852
12871SI     SI112871   3.332   9.215   8.616
12872SI     SI112872   2.344   8.760   1.384
12873SI     SI112873   5.619   9.241   0.600
12874SI     SI112874   2.736   9.255   5.362
12875SI     SI112875   8.235   0.364   1.952
12876SI     SI112876   8.755   0.683   5.612
12877SI     SI112877   7.636   8.358   7.781
12878SI     SI112878   3.490   9.499   4.852
12879SI     SI112879   3.359   0.907   1.677
12880SI     SI112880   4.019   1.083   6.744
12881SI     SI112881   9.520   9.390   3.184
12882SI     SI112882   4.685   1.120   6.794
12883SI     SI112883   1.033   9.349   9.295
12884SI     SI112884   0.965   9.093   9.465
12885SI     SI112885   5.337   0.700   8.706
12886SI     SI112886   6.053   0.641   1.314
12887SI     SI112887   6.621   8.619   5.129
12888SI     SI112888   4.127   8.790   8.304
12889SI     SI112889   7.381   1.135   6.861
12890SI     SI112890   0.438   8.798   6.333
12891SI     SI112891   8.038   9.339   9.319
12892SI     SI112892   6.726   0.103   4.436
12893SI     SI112893   8.673   9.342   0.125
12894SI     SI112894   0.912   9.119   0.893
12895SI     SI112895   4.364   0.851   0.005
12896SI     SI112896   3.887   8.572   9.599
12897SI     SI112897   4.905   8.306   8.255
12898SI     SI112898   1.374   9.532   9.590
12899SI     SI112899   8.867   8.823   7.422
12900SI     SI112900   4.097   9.232   3.401
12901SI     SI112901   9.251   1.326   4.431
12902SI     SI112902   4.722   0.528   4.640
12903SI     SI112903   7.424   8.966   4.865
12904SI     SI112904   0.050   8.461   7.655
12905SI     SI112905   6.188   0.416   2.386
12906SI     SI112906   7.781   9.413   8.237
12907SI     SI112907   3.656   9.496   8.789
12908SI     SI112908   6.220   9.246   4.178
12909SI     SI112909   3.494   0.947   1.402
12910SI     SI112910   2.760   0.575   4.435
12911SI     SI112911   2.451   8.441   3.919
12912SI     SI112912   0.666   9.032   9.484
12913SI     SI112913   9.079   0.175   7.655
12914SI     SI112914   8.180   8.395   2.588
12915SI     SI112915   1.162   9.514   5.108
12916SI     SI112916   8.327   8.510   9.581
12917SI     SI112917   0.363   8.657   1.931
12918SI     SI112918   7.287   8.659   8.592
12919SI     SI112919   5.507   1.067   7.885
12920SI     SI112920   7.634   0.721   5.888
12921SI     SI112921   6.627   8.765   4.565
12922SI     SI112922   3.671   9.517   3.466
12923SI     SI112923   5.782   1.139   1.140
12924SI     SI112924   4.789   0.544   8.655
12925SI     SI112925   9.503   0.566   3.256
12926SI     SI112926   5.586   9.536   8.752
12927SI     SI112927   9.030   8.630   7.601
12928SI     SI112928   7.522   0.370   2.307
12929SI     SI112929   5.203   8.638   0.189
12930SI     SI112930   1.499   9.182   2.131
12931SI     SI112931   9.376   0.824   9.064
12932SI     SI112932   4.108   0.418   4.017
12933SI     SI112933   6.071   9.185   7.245
12934SI     SI112934   5.653   0.294   6.879
12935SI     SI112935   6.274   0.091   7.352
12936SI     SI112936   6.122   0.327   5.763
12937SI     SI112937   4.842   0.147   3.550
12938SI     SI112938   7.679   0.231   4.167
12939SI     SI112939   5.740   1.134   1.923
12940SI     SI112940   9.028   9.506   8.282
12941SI     SI112941   5.390   1.044   1.290
12942SI     SI112942   2.089   8.367   3.338
12943SI     SI112943   6.677   9.471   7.214
12944SI     SI112944   5.351   0.146   6.564
12945SI     SI112945   4.390   8.967   8.267
12946SI     SI112946   9.417   9.392   2.613
12947SI     SI112947   8.052   0.623   8.189
12948SI     SI112948   2.596   0.815   7.633
12949SI     SI112949   8.195   9.457   8.896
12950SI     SI112950   6.003   0.693   1.771
12951SI     SI112951   5.580   0.663   1.568
12952SI     SI112952   9.568   0.940   5.921
12953SI     SI112953   1.120   8.709   3.829
12954SI     SI112954   2.066   0.571   1.193
12955SI     SI112955   6.868   9.051   5.396
12956SI     SI112956   6.859   9.329   9.346
12957SI     SI112957   5.110   0.016   8.941
12958SI     SI112958   1.744   0.370   7.688
12959SI     SI112959   0.902   8.925   4.469
12960SI     SI112960   5.997   8.494   5.022
12961SI     SI112961   3.736   8.696   8.096
12962SI     SI112962   7.521   8.983   6.878
12963SI     SI112963   6.612   9.438   7.525
12964SI     SI112964   3.196   0.928   5.117
12965SI     SI112965   4.565   0.252   0.951
12966SI     SI112966   4.374   0.175   2.415
12967SI     SI112967   9.417   9.488   0.974
12968SI     SI112968   1.607   9.524   5.877
12969SI     SI112969   8.198   8.872   8.687
12970SI     SI112970   1.745   8.678   3.319
12971SI     SI112971   0.082   9.577   0.855
12972SI     SI112972   5.790   0.453   8.812
12973SI     SI112973   7.532   8.929   2.513
12974SI     SI112974   7.576   8.428   2.234
12975SI     SI112975   2.139   0.903   0.498
12976SI     SI112976   0.886   9.504   1.559
12977SI     SI112977   1.122   9.403   3.664
12978SI     SI112978   2.157   8.314   5.040
12979SI     SI112979   6.168   1.082   2.293
12980SI     SI112980   2.764   9.330   9.116
12981SI     SI112981   8.139   0.483   7.715
12982SI     SI112982   3.449   0.088   9.173
12983SI     SI112983   7.823   8.637   8.932
12984SI     SI112984   5.963   9.204   5.235
12985SI     SI112985   7.047   8.364   2.909
12986SI     SI112986   6.147   0.850   8.455
12987SI     SI112987   1.287   1.157   6.433
12988SI     SI112988   6.443   1.040   3.175
12989SI     SI112989   3.458   8.924   5.967
12990SI     SI112990   1.683   0.535   2.443
12991SI     SI112991   4.044   8.841   0.747
12992SI     SI112992   3.177   0.531   2.526
12993SI     SI112993   7.109   9.053   2.873
12994SI     SI112994   7.091   9.208   6.310
12995SI     SI112995   3.713   0.855   7.369
12996SI     SI112996   4.882   9.523   2.860
12997SI     SI112997   2.738   0.021   6.514
12998SI     SI112998   2.954   1.021   9.392
12999SI     SI112999   1.824   9.206   6.497
13000SI     SI113000   6.599   8.470   6.753
13001SI     SI113001   4.943   0.952   2.208
13002SI     SI113002   7.613   0.936   3.684
13003SI     SI113003   3.459   8.557   8.935
13004SI     SI113004   6.596   8.726   0.853
13005SI     SI113005   5.079   0.486   9.048
13006SI     SI113006   7.441   9.466   4.727
13007SI     SI113007   8.186   8.748   0.313
13008SI     SI113008   0.745   9.256   2.467
13009SI     SI113009   3.850   0.388   8.066
13010SI     SI113010   2.042   0.872   9.207
13011SI     SI113011   5.141   1.007   5.957
13012SI     SI113012   2.076   8.413   1.193
13013SI     SI113013   6.640   9.579   6.681
13014SI     SI113014   7.025   1.006   2.249
13015SI     SI113015   0.675   9.178   5.670
13016SI     SI113016   6.501   9.038   5.713
13017SI     SI113017   6.907   8.530   2.292
13018SI     SI113018   0.222   0.599   1.480
13019SI     SI113019   8.911   1.222   4.758
13020SI     SI113020   8.112   0.077   8.398
13021SI     SI113021   3.350   9.310   3.243
13022SI     SI113022   9.581   0.606   3.887
13023SI     SI113023   5.099   8.880   7.640
13024SI     SI113024   5.165   0.071   6.108
13025SI     SI113025   3.112   9.567   5.695
13026SI     SI113026   0.109   0.785   8.560
13027SI     SI113027   7.501   0.936   8.499
13028SI     SI113028   2.166   0.819   2.906
13029SI     SI113029   6.187   0.790   1.065
13030SI     SI113030   2.605   0.409   9.554
13031SI     SI113031   0.048   9.010   5.209
13032SI     SI113032   8.639   8.877   9.036
13033SI     SI113033   4.394   0.143   6.128
13034SI     SI113034   6.156   0.922   5.701
13035SI     SI113035   2.273   0.829   8.868
13036SI     SI113036   0.164   1.172   0.514
13037SI     SI113037   0.995   0.069   4.493
13038SI     SI113038   3.552   9.550   1.694
13039SI     SI113039   2.902   0.614   6.939
13040SI     SI113040   3.728   9.110   0.887
13041SI     SI113041   0.932   0.914   2.582
13042SI     SI113042   6.269   1.182   5.606
13043SI     SI113043   9.138   0.114   6.990
13044SI     SI113044   0.717   8.644   0.814
13045SI     SI113045   7.100   0.555   7.226
13046SI     SI113046   7.780   9.000   4.009
13047SI     SI113047   3.658   0.159   3.274
13048SI     SI113048   3.361   8.599   5.676
13049SI     SI113049   1.026   9.323   1.107
13050SI     SI113050   2.591   8.883   9.100
13051SI     SI113051   4.285   1.052   6.600
13052SI     SI113052   4.337   1.124   3.417
13053SI     SI113053   1.144   8.356   6.129
13054SI     SI113054   5.022   8.401   0.106
13055SI     SI113055   2.499   0.332   2.691
13056SI     SI113056   3.341   8.682   2.842
13057SI     SI113057   6.610   0.220   2.161
13058SI     SI113058   5.247   0.412   3.267
13059SI     SI113059   7.144   8.372   2.428
13060SI     SI113060   3.416   8.439   6.176
13061SI     SI113061   2.889   9.127   1.626
13062SI     SI113062   1.771   0.465   2.741
13063SI     SI113063   1.157   0.755   5.176
13064SI     SI113064   8.718   0.284   4.393
13065SI     SI113065   3.357   8.756   6.667
13066SI     SI113066   3.622   0.811   3.494
13067SI     SI113067   0.805   9.455   9.114
13068SI     SI113068   7.632   8.949   3.466
13069SI     SI113069   0.239   9.239   0.111
13070SI     SI113070   4.463   9.266   7.871
13071SI     SI113071   8.949   1.003   9.478
13072SI     SI113072   2.430   0.945   4.601
13073SI     SI113073   1.019   0.552   0.858
13074SI     SI113074   3.390   9.594   7.269
13075SI     SI113075   3.304   0.923   2.279
13076SI     SI113076   3.058   0.589   4.441
13077SI     SI113077   0.652   1.139   3.039
13078SI     SI113078   7.441   9.340   2.251
13079SI     SI113079   9.121   9.097   2.303
13080SI     SI113080   7.397   0.210   3.650
13081SI     SI113081   6.631   0.488   0.296
13082SI     SI113082   2.390   0.760   8.596
13083SI     SI113083   4.673   9.353   5.919
13084SI     SI113084   2.739   0.683   1.443
13085SI     SI113085   3.286   1.001   0.868
13086SI     SI113086   4.027   1.027   8.820
13087SI     SI113087   8.381   0.077   1.290
13088SI     SI113088   3.251   0.732   7.308
13089SI     SI113089   7.132   1.037   2.543
13090SI     SI113090   1.691   0.869   6.840
13091SI     SI113091   0.056   0.435   5.262
13092SI     SI113092   6.659   0.830   7.662
13093SI     SI113093   6.906   0.929   9.537
13094SI     SI113094   1.280   9.413   7.128
13095SI     SI113095   2.169   8.796   3.704
13096SI     SI113096   3.577   0.675   4.542
13097SI     SI113097   1.645   8.850   6.734
13098SI     SI113098   2.199   0.760   7.015
13099SI     SI113099   1.407   0.036   5.721
13100SI     SI113100   5.071   8.915   6.312
13101SI     SI113101   0.551   0.307   9.280
13102SI     SI113102   7.642   0.223   9.158
13103SI     SI113103   7.947   0.278   6.929
13104SI     SI113104   2.571   0.899   0.247
13105SI     SI113105   1.345   0.374   1.601
13106SI     SI113106   1.557   0.447   6.901
13107SI     SI113107   4.119   9.060   6.777
13108SI     SI113108   5.529   9.002   8.695
13109SI     SI113109   9.125   0.379   4.634
13110SI     SI113110   5.870   8.520   9.411
13111SI     SI113111   1.829   0.654   1.383
13112SI     SI113112   2.301   8.567   4.996
13113SI     SI113113   2.156   8.672   7.748
13114SI     SI113114   5.183   9.531   0.722
13115SI     SI113115   6.814   9.341   0.057
13116SI     SI113116   5.438   0.025   5.946
13117SI     SI113117   4.558   8.853   7.072
13118SI     SI113118   1.264   8.427   5.619
13119SI     SI113119   6.618   9.366   3.534
13120SI     SI113120   0.741   9.246   3.352
13121SI     SI113121   6.469   8.959   1.026
13122SI     SI113122   3.687   1.092   1.609
13123SI     SI113123   3.399   0.873   0.337
13124SI     SI113124   6.471   9.486   4.888
13125SI     SI113125   4.224   8.788   6.831
13126SI     SI113126   9.023   8.519   3.480
13127SI     SI113127   2.422   0.430   5.181
13128SI     SI113128   6.836   0.207   7.409
13129SI     SI113129   9.033   0.795   1.794
13130SI     SI113130   8.541   1.244   3.696
13131SI     SI113131   4.859   0.237   1.830
13132SI     SI113132   3.474   9.450   6.174
13133SI     SI113133   4.826   0.244   4.736
13134SI     SI113134   9.214   9.141   1.218
13135SI     SI113135   7.826   1.006   9.040
13136SI     SI113136   1.272   0.449   3.152
13137SI     SI113137   9.054   8.991   3.337
13138SI     SI113138   2.216   9.523   4.534
13139SI     SI113139   3.514   9.156   1.924
13140SI     SI113140   6.966   8.870   8.619
13141SI     SI113141   0.159   0.764   3.684
13142SI     SI113142   4.561   9.305   3.437
13143SI     SI113143   2.548   0.490   6.673
13144SI     SI113144   9.185   0.475   9.318
13145SI     SI113145   0.116   8.388   6.768
13146SI     SI113146   2.610   1.110   7.256
13147SI     SI113147   1.387   0.880   2.310
13148SI     SI113148   5.124   9.535   0.201
13149SI     SI113149   6.588   9.528   1.272
13150SI     SI113150   1.856   9.294   8.339
13151SI     SI113151   3.845   8.695   1.462
13152SI     SI113152   2.160   0.854   4.450
13153SI     SI113153   3.569   8.568   7.873
13154SI     SI113154   5.491   8.484   7.490
13155SI     SI113155   5.039   9.357   2.652
13156SI     SI113156   0.110   8.707   7.845
13157SI     SI113157   0.583   9.538   0.006
13158SI     SI113158   4.304   1.003   2.332
13159SI     SI113159   6.934   9.586   8.860
13160SI     SI113160   0.549   9.061   3.531
13161SI     SI113161   1.722   8.622   8.257
13162SI     SI113162   3.280   8.453   3.056
13163SI     SI113163   9.574   0.060   5.497
13164SI     SI113164   2.074   9.389   7.852
13165SI     SI113165   0.891   0.753   3.296
13166SI     SI113166   7.628   8.494   0.007
13167SI     SI113167   9.369   0.838   7.230
13168SI     SI113168   9.467   0.440   6.756
13169SI     SI113169   6.565   0.217   8.847
13170SI     SI113170   0.393   0.940   5.424
13171SI     SI113171   6.772   0.395   1.205
13172SI     SI113172   5.722   9.301   3.712
13173SI     SI113173   8.732   1.252   2.519
13174SI     SI113174   6.429   9.548   6.457
13175SI     SI113175   2.781   0.455   8.444
13176SI     SI113176   3.281   8.979   8.407
13177SI     SI113177   8.385   0.558   1.108
13178SI     SI113178   0.922   9.357   5.728
13179SI     SI113179   9.259   0.003   5.141
13180SI     SI113180   6.899   8.478   5.518
13181SI     SI113181   8.556   0.346   4.661
13182SI     SI113182   0.933   8.842   7.396
13183SI     SI113183   9.227   0.242   8.108
13184SI     SI113184   3.082   9.566   4.786
13185SI     SI113185   9.215   1.143   9.465
13186SI     SI113186   7.233   0.749   0.297
13187SI     SI113187   0.678   0.807   1.596
13188SI     SI113188   9.358   0.297   3.263
13189SI     SI113189   7.063   0.395   9.090
13190SI     SI113190   3.373   0.729   1.008
13191SI     SI113191   2.002   1.120   5.531
13192SI     SI113192   3.796   9.017   2.383
13193SI     SI113193   7.040   0.268   2.257
13194SI     SI113194   6.997   9.277   5.787
13195SI     SI113195   8.250   0.658   7.213
13196SI     SI113196   2.087   0.691   4.086
13197SI     SI113197   2.115   0.756   6.554
13198SI     SI113198   3.171   0.248   4.229
13199SI     SI113199   5.292   8.388   3.458
13200SI     SI113200   8.896   8.997   8.561
13201SI     SI113201   3.318   8.984   4.753
13202SI     SI113202   3.906   8.830   4.979
13203SI     SI113203   6.056   9.290   3.157
13204SI     SI113204   7.808   9.330   1.092
13205SI     SI113205   4.961   0.346   4.146
13206SI     SI113206   0.876   0.898   4.014
13207SI     SI113207   8.810   0.011   4.510
13208SI     SI113208   5.671   0.179   2.412
13209SI     SI113209   3.496   1.052   4.008
13210SI     SI113210   8.193   8.207   1.636
13211SI     SI113211   5.501   8.783   3.802
13212SI     SI113212   9.372   8.573   5.279
13213SI     SI113213   2.208   0.659   3.596
13214SI     SI113214   7.508   9.054   7.614
13215SI     SI113215   0.580   9.584   4.619
13216SI     SI113216   7.783   8.889   5.629
13217SI     SI113217   5.121   0.990   0.674
13218SI     SI113218   2.592   9.529   4.050
13219SI     SI113219   2.722   8.964   4.668
13220SI     SI113220   2.416   8.459   1.461
13221SI     SI113221   3.929   0.846   5.126
13222SI     SI113222   6.361   8.491   9.413
13223SI     SI113223   5.234   9.051   4.424
13224SI     SI113224   4.840   9.088   1.969
13225SI     SI113225   4.847   8.783   6.004
13226SI     SI113226   8.651   8.720   1.118
13227SI     SI113227   2.047   9.467   7.347
13228SI     SI113228   1.572   0.145   8.268
13229SI     SI113229   7.204   0.218   9.529
13230SI     SI113230   1.173   0.924   9.543
13231SI     SI113231   1.449   0.943   7.640
13232SI     SI113232   4.921   8.950   7.387
13233SI     SI113233   8.365   1.009   8.126
13234SI     SI113234   2.223   8.741   8.607
13235SI     SI113235   3.783   8.840   6.604
13236SI     SI113236   1.019   0.923   6.642
13237SI     SI113237   3.874   8.597   6.208
13238SI     SI113238   5.189   0.759   7.763
13239SI     SI113239   6.141   0.594   2.628
13240SI     SI113240   2.871   0.265   5.389
13241SI     SI113241   7.591   8.575   1.276
13242SI     SI113242   1.864   0.679   6.677
13243SI     SI113243   2.816   0.708   8.915
13244SI     SI113244   7.276   0.404   0.657
13245SI     SI113245   4.231   9.004   6.028
13246SI     SI113246   6.960   9.021   5.010
13247SI     SI113247   7.880   0.208   4.590
13248SI     SI113248   5.406   1.143   8.404
13249SI     SI113249   0.477   9.420   2.416
13250SI     SI113250   2.529   1.145   9.357
13251SI     SI113251   5.361   8.856   7.971
13252SI     SI113252   8.253   9.010   3.449
13253SI     SI113253   3.591   1.132   5.993
13254SI     SI113254   9.512   1.305   4.570
13255SI     SI113255   3.642   9.344   6.660
13256SI     SI113256   5.482   8.518   1.421
13257SI     SI113257   2.905   9.251   7.827
13258SI     SI113258   6.134   0.818   8.771
13259SI     SI113259   2.334   0.505   1.328
13260SI     SI113260   5.833   9.075   4.770
13261SI     SI113261   2.554   8.471   6.907
13262SI     SI113262   0.036   0.005   3.022
13263SI     SI113263   7.303   9.535   9.511
13264SI     SI113264   1.731   9.471   3.751
13265SI     SI113265   6.076   0.124   3.897
13266SI     SI113266   5.501   1.222   3.014
13267SI     SI113267   5.920   8.514   5.773
13268SI     SI113268   2.775   8.608   5.775
13269SI     SI113269   0.912   0.214   1.548
13270SI     SI113270   1.203   0.785   8.025
13271SI     SI113271   7.536   8.676   2.667
13272SI     SI113272   3.047   9.474   1.288
13273SI     SI113273   7.368   0.821   2.544
13274SI     SI113274   0.436   9.397   1.692
13275SI     SI113275   6.993   8.743   2.094
13276SI     SI113276   4.774   0.866   9.025
13277SI     SI113277   3.009   8.548   4.421
13278SI     SI113278   2.070   8.707   1.292
13279SI     SI113279   8.216   8.825   3.688
13280SI     SI113280   1.175   1.042   0.865
13281SI     SI113281   9.542   8.748   9.364
13282SI     SI113282   2.262   9.039   0.016
13283SI     SI113283   9.391   8.935   4.046
13284SI     SI113284   7.394   0.472   5.381
13285SI     SI113285   2.154   8.502   4.297
13286SI     SI113286   7.894   9.573   0.663
13287SI     SI113287   6.437   0.246   2.409
13288SI     SI113288   8.124   9.129   5.284
13289SI     SI113289   9.101   0.013   1.271
13290SI     SI113290   7.917   1.047   0.750
13291SI     SI113291   1.099   8.991   9.081
13292SI     SI113292   0.144   1.259   9.031
13293SI     SI113293   1.308   1.254   0.490
13294SI     SI113294   4.477   8.843   9.550
13295SI     SI113295   8.851   9.427   3.816
13296SI     SI113296   5.436   0.357   0.557
13297SI     SI113297   4.736   1.014   4.778
13298SI     SI113298   4.271   0.111   7.348
13299SI     SI113299   0.452   8.957   1.949
13300SI     SI113300   0.710   9.110   4.633
13301SI     SI113301   5.440   8.351   2.526
13302SI     SI113302   5.428   0.641   7.935
13303SI     SI113303   6.258   0.655   7.667
13304SI     SI113304   1.283   0.713   7.750
13305SI     SI113305   3.315   0.890   9.034
13306SI     SI113306   0.300   0.578   4.466
13307SI     SI113307   5.651   8.981   1.572
13308SI     SI113308   0.254   0.694   7.003
13309SI     SI113309   1.497   9.189   3.476
13310SI     SI113310   7.670   9.250   4.693
13311SI     SI113311   1.088   9.597   9.492
13312SI     SI113312   5.604   0.149   1.902
13313SI     SI113313   3.966   8.828   1.203
13314SI     SI113314   7.130   8.699   7.640
13315SI     SI113315   3.178   9.068   2.229
13316SI     SI113316   4.730   8.407   3.438
13317SI     SI113317   8.288   0.728   6.717
13318SI     SI113318   0.179   0.964   9.103
13319SI     SI113319   4.638   9.147   1.538
13320SI     SI113320   2.820   0.386   7.944
13321SI     SI113321   1.522   9.306   7.272
13322SI     SI113322   4.318   0.360   7.979
13323SI     SI113323   1.468   1.227   8.726
13324SI     SI113324   0.249   0.434   5.507
13325SI     SI113325   5.151   8.989   2.448
13326SI     SI113326   2.572   0.063   3.089
13327SI     SI113327   0.789   0.611   9.484
13328SI     SI113328   3.255   8.638   4.274
13329SI     SI113329   0.890   0.268   8.216
13330SI     SI113330   6.611   0.496   5.311
13331SI     SI113331   6.262   0.680   8.220
13332SI     SI113332   2.570   9.096   5.180
13333SI     SI113333   2.170   9.286   3.023
13334SI     SI113334   1.553   9.193   8.632
13335SI     SI113335   8.182   0.361   7.116
13336SI     SI113336   1.000   8.712   3.156
13337SI     SI113337   0.987   8.859   5.446
13338SI     SI113338   5.653   0.420   2.019
13339SI     SI113339   7.570   9.300   3.717
13340SI     SI113340   5.387   9.443   8.263
13341SI     SI113341   2.869   1.146   0.346
13342SI     SI113342   1.100   9.441   0.518
13343SI     SI113343   8.248   0.711   3.202
13344SI     SI113344   6.963   8.957   8.104
13345SI     SI113345   8.461   8.637   3.759
13346SI     SI113346   3.593   0.545   6.809
13347SI     SI113347   7.275   9.525   5.514
13348SI     SI113348   3.176   9.288   5.783
13349SI     SI113349   3.089   0.718   0.063
13350SI     SI113350   1.153   8.424   6.745
13351SI     SI113351   2.905   8.709   4.661
13352SI     SI113352   5.752   1.110   7.417
13353SI     SI113353   8.511   0.603   6.333
13354SI     SI113354   5.581   0.053   4.815
13355SI     SI113355   5.151   8.409   2.552
13356SI     SI113356   5.351   1.005   8.672
13357SI     SI113357   0.500   9.419   6.324
13358SI     SI113358   1.745   8.693   3.617
13359SI     SI113359   3.170   8.695   2.579
13360SI     SI113360   3.359   8.450   8.046
13361SI     SI113361   8.822   9.094   9.460
13362SI     SI113362   3.092   0.822   2.092
13363SI     SI113363   4.950   1.152   3.988
13364SI     SI113364   0.092   8.603   1.221
13365SI     SI113365   5.535   0.632   0.984
13366SI     SI113366   6.537   8.787   2.297
13367SI     SI113367   0.483   9.360   0.234
13368SI     SI113368   5.945   0.677   8.967
13369SI     SI113369   1.429   9.051   0.991
13370SI     SI113370   7.852   9.134   5.446
13371SI     SI113371   0.992   8.620   0.652
13372SI     SI113372   8.225   0.425   8.017
13373SI     SI113373   0.486   0.074   4.084
13374SI     SI113374   1.043   0.645   5.821
13375SI     SI113375   4.496   0.436   4.441
13376SI     SI113376   2.075   8.756   6.511
13377SI     SI113377   9.297   8.498   0.738
13378SI     SI113378   3.219   1.187   8.671
13379SI     SI113379   1.249   0.869   6.468
13380SI     SI113380   3.232   0.017   0.146
13381SI     SI113381   6.046   9.371   2.686
13382SI     SI113382   0.064   8.906   7.608
13383SI     SI113383   6.283   8.542   7.458
13384SI     SI113384   6.319   0.758   3.145
13385SI     SI113385   8.246   0.927   4.901
13386SI     SI113386   8.472   0.880   6.236
13387SI     SI113387   3.174   0.221   9.270
13388SI     SI113388   4.580   9.224   6.406
13389SI     SI113389   7.124   8.663   0.702
13390SI     SI113390   6.146   0.003   6.075
13391SI     SI113391   8.618   9.521   5.372
13392SI     SI113392   5.805   1.088   8.556
13393SI     SI113393   9.504   0.369   2.721
13394SI     SI113394   3.324   9.189   8.194
13395SI     SI113395   8.339   0.150   4.759
13396SI     SI113396   6.857   0.891   4.729
13397SI     SI113397   5.537   9.392   3.289
13398SI     SI113398   7.137   8.976   9.228
13399SI     SI113399   2.683   0.999   2.993
13400SI     SI113400   9.479   0.964   6.961
13401SI     SI113401   9.260   8.578   3.677
13402SI     SI113402   3.806   0.569   6.386
13403SI     SI113403   8.228   8.455   5.099
13404SI     SI113404   1.360   9.522   6.609
13405SI     SI113405   6.249   8.870   8.711
13406SI     SI113406   0.760   0.611   5.789
13407SI     SI113407   1.015   0.425   5.004
13408SI     SI113408   9.511   0.213   7.798
13409SI     SI113409   7.590   9.596   3.678
13410SI     SI113410   1.666   0.853   7.463
13411SI     SI113411   5.950   9.308   9.389
13412SI     SI113412   1.605   0.699   4.670
13413SI     SI113413   1.897   1.040   1.702
13414SI     SI113414   7.095   0.731   0.024
13415SI     SI113415   8.842   9.232   1.486
13416SI     SI113416   4.282   0.647   3.118
13417SI     SI113417   1.878   8.529   9.130
13418SI     SI113418   2.517   8.735   8.610
13419SI     SI113419   2.597   9.097   1.520
13420SI     SI113420   0.296   0.664   5.885
13421SI     SI113421   5.505   8.756   8.221
13422SI     SI113422   4.623   9.391   1.712
13423SI     SI113423   8.200   9.594   5.223
13424SI     SI113424   7.740   8.768   7.149
13425SI     SI113425   5.073   8.506   6.619
13426SI     SI113426   2.616   0.536   2.892
13427SI     SI113427   7.337   0.418   6.787
13428SI     SI113428   4.254   8.636   3.392
13429SI     SI113429   9.277   8.966   6.762
13430SI     SI113430   3.157   8.919   0.291
13431SI     SI113431   7.378   0.682   6.647
13432SI     SI113432   1.684   1.036   4.352
13433SI     SI113433   3.176   1.145   3.288
13434SI     SI113434   3.453   8.793   7.157
13435SI     SI113435   9.437   0.344   5.425
13436SI     SI113436   3.460   8.828   3.285
13437SI     SI113437   7.696   0.629   0.360
13438SI     SI113438   4.840   9.032   2.469
13439SI     SI113439   2.572   8.718   4.317
13440SI     SI113440   7.639   1.078   7.269
13441SI     SI113441   5.586   0.689   1.883
13442SI     SI113442   2.171   9.444   0.938
13443SI     SI113443   7.700   8.832   4.801
13444SI     SI113444   8.159   0.055   3.581
13445SI     SI113445   5.512   0.523   2.782
13446SI     SI113446   7.922   9.602   2.146
13447SI     SI113447   7.080   0.498   3.388
13448SI     SI113448   0.486   8.846   4.051
13449SI     SI113449   1.385   8.620   1.244
13450SI     SI113450   8.173   8.854   0.795
13451SI     SI113451   7.136   9.466   9.265
13452SI     SI113452   5.278   8.788   1.836
13453SI     SI113453   0.499   8.906   1.082
13454SI     SI113454   3.408   0.810   5.637
13455SI     SI113455   3.900   8.764   3.743
13456SI     SI113456   9.558   9.407   2.333
13457SI     SI113457   9.314   9.201   5.485
13458SI     SI113458   2.971   8.688   6.948
13459SI     SI113459   3.247   0.679   6.601
13460SI     SI113460   2.277   9.590   0.044
13461SI     SI113461   0.292   8.809   5.182
13462SI     SI113462   6.497   0.471   2.883
13463SI     SI113463   2.622   0.708   4.676
13464SI     SI113464   6.469   9.168   8.347
13465SI     SI113465   7.933   9.090   6.469
13466SI     SI113466   8.054   0.250   3.118
13467SI     SI113467   0.659   0.262   4.245
13468SI     SI113468   5.065   0.413   3.866
13469SI     SI113469   9.288   8.756   0.580
13470SI     SI113470   6.213   1.107   8.301
13471SI     SI113471   0.385   0.976   3.365
13472SI     SI113472   6.229   0.553   3.782
13473SI     SI113473   3.799   9.247   3.820
13474SI     SI113474   9.361   8.825   0.004
13475SI     SI113475   6.740   9.529   2.492
13476SI     SI113476   8.559   0.952   1.040
13477SI     SI113477   4.314   1.102   1.092
13478SI     SI113478   9.432   0.311   9.275
13479SI     SI113479   9.151   1.282   7.499
13480SI     SI113480   6.378   0.316   1.451
13481SI     SI113481   6.775   0.384   0.892
13482SI     SI113482   3.520   8.709   2.169
13483SI     SI113483   4.400   9.210   5.286
13484SI     SI113484   3.607   0.392   1.473
13485SI     SI113485   5.855   9.094   8.971
13486SI     SI113486   2.363   9.502   2.638
13487SI     SI113487   4.447   0.332   1.886
13488SI     SI113488   9.325   0.829   5.603
13489SI     SI113489   5.137   0.838   7.110
13490SI     SI113490   7.566   0.441   9.356
13491SI     SI113491   8.637   0.113   1.717
13492SI     SI113492   1.051   0.967   8.762
13493SI     SI113493   8.994   8.856   0.252
13494SI     SI113494   5.367   9.176   2.439
13495SI     SI113495   3.916   1.183   0.724
13496SI     SI113496   9.213   0.595   6.822
13497SI     SI113497   8.019   0.696   6.111
13498SI     SI113498   2.375   0.579   8.990
13499SI     SI113499   7.828   9.227   4.441
13500SI     SI113500   7.488   0.953   4.173
13501SI     SI113501   9.061   8.544   0.903
13502SI     SI113502   2.764   0.235   2.579
13503SI     SI113503   8.709   9.120   9.199
13504SI     SI113504   8.987   9.570   4.998
13505SI     SI113505   1.601   0.598   5.519
13506SI     SI113506   5.134   0.358   6.188
13507SI     SI113507   5.504   9.111   8.011
13508SI     SI113508   0.045   0.703   5.111
13509SI     SI113509   7.801   0.517   4.556
13510SI     SI113510   6.496   0.689   4.826
13511SI     SI113511   8.297   8.412   4.640
13512SI     SI113512   2.500   9.214   0.570
13513SI     SI113513   0.169   8.929   1.483
13514SI     SI113514   2.306   8.911   8.114
13515SI     SI113515   5.238   0.115   3.279
13516SI     SI113516   2.111   9.292   3.940
13517SI     SI113517   0.190   0.109   7.839
13518SI     SI113518   4.614   9.309   2.007
13519SI     SI113519   0.365   0.260   2.615
13520SI     SI113520   7.945   0.170   0.221
13521SI     SI113521   2.131   9.018   3.186
13522SI     SI113522   5.604   0.650   3.059
13523SI     SI113523   4.343   1.125   5.568
13524SI     SI113524   6.303   9.314   6.948
13525SI     SI113525   4.315   9.049   5.730
13526SI     SI113526   4.126   0.143   0.735
13527SI     SI113527   0.110   0.943   1.059
13528SI     SI113528   0.113   0.863   1.347
13529SI     SI113529   0.181   8.626   3.970
13530SI     SI113530   6.701   0.178   7.153
13531SI     SI113531   3.893   0.864   7.837
13532SI     SI113532   1.720   0.661   6.426
13533SI     SI113533   5.065   8.444   7.641
13534SI     SI113534   0.589   1.138   9.229
13535SI     SI113535   2.168   0.678   0.715
13536SI     SI113536   3.614   1.143   2.922
13537SI     SI113537   3.141   9.065   7.726
13538SI     SI113538   4.740   9.319   4.643
13539SI     SI113539   8.563   8.591   6.136
13540SI     SI113540   9.415   0.939   7.873
13541SI     SI113541   3.606   0.878   1.830
13542SI     SI113542   3.630   0.164   5.778
13543SI     SI113543   2.134   8.988   2.118
13544SI     SI113544   4.556   0.272   3.792
13545SI     SI113545   5.539   9.193   1.048
13546SI     SI113546   5.555   8.810   6.813
13547SI     SI113547   1.823   1.108   6.685
13548SI     SI113548   8.681   0.647   8.382
13549SI     SI113549   3.067   0.641   0.720
13550SI     SI113550   8.579   9.393   4.154
13551SI     SI113551   9.522   9.206   0.592
13552SI     SI113552   0.570   8.403   7.466
13553SI     SI113553   7.942   0.214   9.151
13554SI     SI113554   2.163   8.447   8.520
13555SI     SI113555   7.893   0.634   2.853
13556SI     SI113556   4.159   0.870   7.928
13557SI     SI113557   5.368   0.535   4.120
13558SI     SI113558   3.046   0.504   0.273
13559SI     SI113559   9.510   8.712   3.535
13560SI     SI113560   6.174   9.270   1.559
13561SI     SI113561   1.650   8.806   7.465
13562SI     SI113562   2.717   0.797   6.175
13563SI     SI113563   0.142   0.064   6.717
13564SI     SI113564   4.894   0.681   2.054
13565SI     SI113565   5.853   8.858   6.837
13566SI     SI113566   2.370   8.688   0.323
13567SI     SI113567   8.304   0.717   6.018
13568SI     SI113568   7.425   0.623   2.779
13569SI     SI113569   6.778   8.743   2.744
13570SI     SI113570   8.496   9.096   7.751
13571SI     SI113571   3.740   8.908   0.680
13572SI     SI113572   8.242   9.012   8.407
13573SI     SI113573   4.706   8.637   1.153
13574SI     SI113574   6.181   9.505   7.819
13575SI     SI113575   5.171   1.136   6.217
13576SI     SI113576   5.745   0.589   4.733
13577SI     SI113577   8.281   9.309   6.185
13578SI     SI113578   4.212   9.498   4.715
13579SI     SI113579   4.761   0.649   5.987
13580SI     SI113580   1.640   0.465   7.206
13581SI     SI113581   8.544   8.677   4.313
13582SI     SI113582   8.231   9.100   4.334
13583SI     SI113583   8.380   9.409   1.734
13584SI     SI113584   6.114   8.983   4.816
13585SI     SI113585   3.117   9.187   7.437
13586SI     SI113586   2.459   1.264   5.522
13587SI     SI113587   1.495   1.111   1.251
13588SI     SI113588   3.310   9.323   1.253
13589SI     SI113589   6.283   9.466   3.115
13590SI     SI113590   1.828   9.502   8.559
13591SI     SI113591   9.215   1.059   6.277
13592SI     SI113592   1.798   0.442   0.782
13593SI     SI113593   5.771   9.315   7.640
13594SI     SI113594   4.821   0.436   8.042
13595SI     SI113595   2.509   0.771   3.329
13596SI     SI113596   5.335   0.989   8.144
13597SI     SI113597   5.311   9.293   9.243
13598SI     SI113598   4.109   9.006   7.909
13599SI     SI113599   0.431   8.747   1.459
13600SI     SI113600   7.351   0.895   1.647
13601SI     SI113601   8.229   0.669   4.794
13602SI     SI113602   6.532   9.049   1.976
13603SI     SI113603   9.582   0.726   3.020
13604SI     SI113604   3.529   0.883   8.405
13605SI     SI113605   6.761   0.237   4.961
13606SI     SI113606   3.894   0.948   3.481
13607SI     SI113607   2.615   0.941   4.047
13608SI     SI113608   6.866   9.199   2.822
13609SI     SI113609   8.596   9.132   4.560
13610SI     SI113610   4.183   0.392   2.492
13611SI     SI113611   1.306   0.323   4.974
13612SI     SI113612   7.491   0.089   5.650
13613SI     SI113613   9.589   0.557   2.110
13614SI     SI113614   3.606   9.020   5.571
13615SI     SI113615   2.344   0.881   5.809
13616SI     SI113616   5.967   9.219   1.330
13617SI     SI113617   8.182   8.607   5.907
13618SI     SI113618   5.557   8.654   4.770
13619SI     SI113619   1.743   0.352   2.198
13620SI     SI113620   9.167   8.546   2.384
13621SI     SI113621   5.541   8.841   7.712
13622SI     SI113622   5.469   0.661   8.997
13623SI     SI113623   0.943   0.194   1.988
13624SI     SI113624   0.236   0.971   6.555
13625SI     SI113625   3.902   0.299   0.860
13626SI     SI113626   4.789   9.199   6.748
13627SI     SI113627   2.997   9.205   3.554
13628SI     SI113628   0.003   0.078   6.434
13629SI     SI113629   8.312   9.001   7.521
13630SI     SI113630   5.711   0.692   7.579
13631SI     SI113631   0.925   0.848   0.816
13632SI     SI113632   2.330   9.042   1.875
13633SI     SI113633   8.799   8.787   9.477
13634SI     SI113634   5.344   8.447   6.785
13635SI     SI113635   7.320   8.489   6.406
13636SI     SI113636   0.140   0.056   0.191
13637SI     SI113637   7.300   9.504   8.528
13638SI     SI113638   3.859   0.470   6.683
13639SI     SI113639   1.229   8.375   9.010
13640SI     SI113640   5.835   0.822   8.390
13641SI     SI113641   7.744   8.658   0.491
13642SI     SI113642   0.905   0.350   3.674
13643SI     SI113643   6.064   0.997   5.963
13644SI     SI113644   9.140   0.672   4.967
13645SI     SI113645   0.287   8.636   6.829
13646SI     SI113646   0.635   9.264   0.836
13647SI     SI113647   8.492   0.804   4.142
13648SI     SI113648   5.980   0.387   3.802
13649SI     SI113649   1.882   9.086   1.206
13650SI     SI113650   0.367   9.491   3.416
13651SI     SI113651   1.734   9.233   8.884
13652SI     SI113652   9.323   0.438   4.856
13653SI     SI113653   1.948   8.962   4.551
13654SI     SI113654   5.086   1.176   3.157
13655SI     SI113655   1.303   0.316   7.989
13656SI     SI113656   1.134   0.334   4.548
13657SI     SI113657   6.822   8.415   8.490
13658SI     SI113658   9.580   8.597   8.081
13659SI     SI113659   1.759   0.073   7.634
13660SI     SI113660   2.009   0.242   1.589
13661SI     SI113661   5.615   0.592   6.165
13662SI     SI113662   1.465   9.509   3.924
13663SI     SI113663   4.255   9.593   2.785
13664SI     SI113664   5.880   8.470   3.748
13665SI     SI113665   8.289   0.473   2.729
13666SI     SI113666   5.918   8.924   1.422
13667SI     SI113667   3.185   0.043   3.378
13668SI     SI113668   5.617   0.195   6.418
13669SI     SI113669   0.622   8.906   4.828
13670SI     SI113670   5.681   0.116   5.476
13671SI     SI113671   4.563   8.265   6.091
13672SI     SI113672   0.861   0.943   6.177
13673SI     SI113673   3.901   9.236   1.564
13674SI     SI113674   6.566   9.472   4.313
13675SI     SI113675   8.976   9.373   3.012
13676SI     SI113676   8.329   9.505   3.795
13677SI     SI113677   1.530   8.869   4.440
13678SI     SI113678   5.317   9.159   7.160
13679SI     SI113679   1.013   0.269   7.926
13680SI     SI113680   2.236   0.470   6.612
13681SI     SI113681   6.780   0.207   0.270
13682SI     SI113682   3.535   9.559   0.087
13683SI     SI113683   8.107   8.948   3.188
13684SI     SI113684   4.198   9.018   4.090
13685SI     SI113685   3.020   9.305   4.940
13686SI     SI113686   3.364   8.455   8.664
13687SI     SI113687   5.314   0.851   0.282
13688SI     SI113688   5.911   8.418   4.541
13689SI     SI113689   3.364   8.943   3.009
13690SI     SI113690   7.239   8.896   8.454
13691SI     SI113691   8.772   8.609   3.168
13692SI     SI113692   7.749   9.136   1.499
13693SI     SI113693   0.111   8.808   2.669
13694SI     SI113694   4.398   0.140   9.075
13695SI     SI113695   3.069   1.073   9.114
13696SI     SI113696   4.378   8.748   1.724
13697SI     SI113697   8.813   1.144   8.306
13698SI     SI113698   1.316   8.891   7.957
13699SI     SI113699   8.212   9.214   9.091
13700SI     SI113700   1.887   8.841   0.790
13701SI     SI113701   9.598   9.239   7.917
13702SI     SI113702   8.774   1.237   3.302
13703SI     SI113703   6.905   0.207   0.001
13704SI     SI113704   6.114   0.679   6.665
13705SI     SI113705   9.054   0.831   3.430
13706SI     SI113706   0.551   0.298   7.137
13707SI     SI113707   5.981   9.483   5.095
13708SI     SI113708   5.631   9.597   4.382
13709SI     SI113709   2.693   0.773   1.902
13710SI     SI113710   0.327   0.359   3.408
13711SI     SI113711   7.770   0.082   5.518
13712SI     SI113712   8.932   8.935   7.862
13713SI     SI113713   2.737   9.416   3.177
13714SI     SI113714   8.077   1.092   6.358
13715SI     SI113715   0.220   0.517   4.004
13716SI     SI113716   0.778   8.662   4.397
13717SI     SI113717   6.453   9.410   2.549
13718SI     SI113718   5.113   9.465   1.762
13719SI     SI113719   5.854   8.349   2.828
13720SI     SI113720   7.036   9.341   3.301
13721SI     SI113721   1.534   1.159   6.273
13722SI     SI113722   7.983   9.585   1.469
13723SI     SI113723   8.521   1.094   2.906
13724SI     SI113724   7.120   8.604   5.175
13725SI     SI113725   1.702   0.497   9.314
13726SI     SI113726   3.957   1.090   3.964
13727SI     SI113727   4.769   9.484   5.481
13728SI     SI113728   6.959   0.923   2.778
13729SI     SI113729   0.768   0.090   8.666
13730SI     SI113730   2.709   9.100   0.371
13731SI     SI113731   2.817   0.840   4.264
13732SI     SI113732   4.838   0.141   9.374
13733SI     SI113733   8.112   9.298   3.856
13734SI     SI113734   3.023   8.542   5.261
13735SI     SI113735   8.586   8.848   1.597
13736SI     SI113736   9.172   0.429   3.682
13737SI     SI113737   7.018   0.870   6.830
13738SI     SI113738   9.025   9.352   9.272
13739SI     SI113739   5.573   0.192   9.250
13740SI     SI113740   5.918   0.485   5.598
13741SI     SI113741   1.725   8.803   8.713
13742SI     SI113742   7.219   9.594   8.801
13743SI     SI113743   6.951   9.265   1.409
13744SI     SI113744   5.761   1.365   2.888
13745SI     SI113745   5.250   0.955   2.253
13746SI     SI113746   4.933   8.987   0.380
13747SI     SI113747   2.542   1.108   6.450
13748SI     SI113748   6.686   8.602   2.495
13749SI     SI113749   7.968   1.146   3.990
13750SI     SI113750   8.497   0.276   8.680
13751SI     SI113751   7.009   8.444   9.382
13752SI     SI113752   6.455   1.024   7.264
13753SI     SI113753   9.177   1.090   0.335
13754SI     SI113754   8.410   9.264   3.120
13755SI     SI113755   3.388   0.067   2.659
13756SI     SI113756   1.363   9.455   7.631
13757SI     SI113757   6.331   8.839   1.262
13758SI     SI113758   7.360   0.970   1.356
13759SI     SI113759   5.596   0.213   8.059
13760SI     SI113760   9.569   8.452   9.426
13761SI     SI113761   8.080   8.765   9.200
13762SI     SI113762   6.070   8.965   7.672
13763SI     SI113763   8.434   9.561   2.489
13764SI     SI113764   6.761   0.920   2.367
13765SI     SI113765   7.167   8.975   6.513
13766SI     SI113766   6.639   8.603   3.549
13767SI     SI113767   6.923   1.097   0.520
13768SI     SI113768   0.909   0.240   0.433
13769SI     SI113769   4.310   1.110   8.020
13770SI     SI113770   7.696   9.569   6.664
13771SI     SI113771   4.368   0.412   3.424
13772SI     SI113772   9.518   1.144   8.337
13773SI     SI113773   2.140   8.604   5.484
13774SI     SI113774   1.151   8.610   6.989
13775SI     SI113775   3.985   0.375   0.009
13776SI     SI113776   8.659   0.146   8.914
13777SI     SI113777   1.385   1.113   4.314
13778SI     SI113778   5.337   8.503   9.413
13779SI     SI113779   1.836   0.664   7.304
13780SI     SI113780   2.766   0.312   3.062
13781SI     SI113781   7.181   1.220   8.125
13782SI     SI113782   1.400   0.733   8.993
13783SI     SI113783   6.229   9.167   8.136
13784SI     SI113784   1.321   0.170   3.859
13785SI     SI113785   1.817   1.238   8.886
13786SI     SI113786   5.913   0.263   7.653
13787SI     SI113787   8.401   0.662   9.109
13788SI     SI113788   5.825   9.134   2.265
13789SI     SI113789   3.425   9.216   6.966
13790SI     SI113790   5.293   9.228   6.860
13791SI     SI113791   0.541   0.476   0.666
13792SI     SI113792   2.623   0.936   9.572
13793SI     SI113793   3.944   9.472   1.063
13794SI     SI113794   9.245   9.256   4.400
13795SI     SI113795   7.811   0.689   8.004
13796SI     SI113796   1.878   0.835   7.697
13797SI     SI113797   4.627   8.703   4.691
13798SI     SI113798   5.533   0.406   2.292
13799SI     SI113799   3.554   8.541   3.184
13800SI     SI113800   6.612   0.332   1.665
13801SI     SI113801   0.914   9.085   2.064
13802SI     SI113802   7.401   1.006   0.225
13803SI     SI113803   5.445   0.972   9.468
13804SI     SI113804   1.410   9.160   6.245
13805SI     SI113805   6.402   0.232   7.871
13806SI     SI113806   4.026   1.035   8.424
13807SI     SI113807   7.138   8.385   0.578
13808SI     SI113808   0.507   0.132   3.796
13809SI     SI113809   7.321   1.085   7.295
13810SI     SI113810   4.347   9.413   7.351
13811SI     SI113811   3.384   8.557   0.908
13812SI     SI113812   0.644   0.546   7.300
13813SI     SI113813   8.747   0.740   5.928
13814SI     SI113814   2.604   9.256   8.381
13815SI     SI113815   1.183   0.282   8.518
13816SI     SI113816   9.322   9.331   1.671
13817SI     SI113817   5.651   0.390   7.577
13818SI     SI113818   0.413   8.955   3.113
13819SI     SI113819   6.138   8.784   1.601
13820SI     SI113820   6.314   0.567   0.876
13821SI     SI113821   6.875   9.552   1.375
13822SI     SI113822   9.102   8.816   5.699
13823SI     SI113823   2.965   9.555   2.227
13824SI     SI113824   3.674   8.821   8.618
13825SI     SI113825   3.021   8.943   1.097
13826SI     SI113826   0.640   9.021   7.202
13827SI     SI113827   6.218   8.809   6.966
13828SI     SI113828   5.297   0.250   9.393
13829SI     SI113829   8.406   8.950   9.512
13830SI     SI113830   2.587   9.112   2.314
13831SI     SI113831   4.191   8.556   8.504
13832SI     SI113832   2.324   0.932   3.523
13833SI     SI113833   3.840   8.984   8.052
13834SI     SI113834   5.420   0.904   2.742
13835SI     SI113835   9.137   0.129   3.678
13836SI     SI113836   9.365   0.916   8.184
13837SI     SI113837   6.418   1.107   2.457
13838SI     SI113838   3.330   0.509   4.580
13839SI     SI113839   5.502   9.549   5.282
13840SI     SI113840   7.116   8.394   3.391
13841SI     SI113841   3.183   1.088   6.226
13842SI     SI113842   0.280   9.499   0.413
13843SI     SI113843   0.536   0.057   8.478
13844SI     SI113844   4.834   0.055   7.465
13845SI     SI113845   4.078   9.165   5.595
13846SI     SI113846   8.055   0.985   5.858
13847SI     SI113847   6.614   0.635   8.951
13848SI     SI113848   4.228   9.082   0.810
13849SI     SI113849   6.055   1.120   5.076
13850SI     SI113850   4.622   8.712   3.721
13851SI     SI113851   9.474   0.518   1.691
13852SI     SI113852   8.565   8.632   2.436
13853SI     SI113853   0.536   0.966   6.663
13854SI     SI113854   0.049   9.526   8.031
13855SI     SI113855   0.278   9.222   3.553
13856SI     SI113856   2.387   9.266   4.536
13857SI     SI113857   8.812   0.540   2.460
13858SI     SI113858   1.846   8.804   1.090
13859SI     SI113859   8.451   0.162   0.182
13860SI     SI113860   8.038   0.035   9.385
13861SI     SI113861   1.412   0.049   5.015
13862SI     SI113862   2.080   1.066   3.377
13863SI     SI113863   5.765   9.192   4.309
13864SI     SI113864   0.625   9.418   5.071
13865SI     SI113865   6.619   9.435   1.732
13866SI     SI113866   7.107   1.131   9.396
13867SI     SI113867   0.302   9.027   6.180
13868SI     SI113868   8.225   8.700   7.164
13869SI     SI113869   2.387   9.556   8.119
13870SI     SI113870   5.589   9.257   5.564
13871SI     SI113871   4.350   9.492   1.622
13872SI     SI113872   2.448   1.011   1.225
13873SI     SI113873   0.033   0.201   5.985
13874SI     SI113874   7.204   0.425   2.733
13875SI     SI113875   5.896   0.264   8.135
13876SI     SI113876   1.726   0.582   8.149
13877SI     SI113877   4.309   0.767   3.796
13878SI     SI113878   4.269   8.671   1.992
13879SI     SI113879   1.027   9.181   3.261
13880SI     SI113880   1.623   8.652   5.340
13881SI     SI113881   5.307   8.690   3.347
13882SI     SI113882   3.063   9.391   0.278
13883SI     SI113883   9.420   8.846   4.608
13884SI     SI113884   1.096   9.165   6.221
13885SI     SI113885   1.736   8.715   2.397
13886SI     SI113886   6.805   0.078   1.652
13887SI     SI113887   3.088   0.724   3.641
13888SI     SI113888   0.176   0.471   1.740
13889SI     SI113889   4.957   0.470   7.063
13890SI     SI113890   1.202   9.426   2.676
13891SI     SI113891   0.027   0.096   2.246
13892SI     SI113892   1.746   8.778   7.988
13893SI     SI113893   3.220   9.601   6.578
13894SI     SI113894   5.639   9.321   8.169
13895SI     SI113895   9.045   0.354   2.770
13896SI     SI113896   5.164   0.490   0.639
13897SI     SI113897   8.169   8.858   8.034
13898SI     SI113898   0.696   8.883   5.555
13899SI     SI113899   8.646   0.255   1.273
13900SI     SI113900   7.265   1.236   8.924
13901SI     SI113901   7.487   0.548   7.581
13902SI     SI113902   5.919   0.357   1.256
13903SI     SI113903   4.581   9.262   7.214
13904SI     SI113904   3.989   8.989   3.232
13905SI     SI113905   7.854   8.482   6.592
13906SI     SI113906   9.524   8.914   0.715
13907SI     SI113907   6.377   0.117   3.892
13908SI     SI113908   0.544   1.185   4.772
13909SI     SI113909   2.132   0.961   4.149
13910SI     SI113910   4.992   9.248   8.572
13911SI     SI113911   3.686   0.201   4.370
13912SI     SI113912   1.257   0.430   6.338
13913SI     SI113913   8.834   1.030   7.601
13914SI     SI113914   4.540   9.493   8.980
13915SI     SI113915   9.408   0.476   4.186
13916SI     SI113916   0.337   8.415   8.574
13917SI     SI113917   5.088   9.270   1.987
13918SI     SI113918   7.723   0.780   8.851
13919SI     SI113919   4.625   0.264   7.551
13920SI     SI113920   6.223   9.380   9.311
13921SI     SI113921   6.534   0.648   3.337
13922SI     SI113922   8.392   0.609   5.037
13923SI     SI113923   2.544   9.456   3.760
13924SI     SI113924   1.866   0.431   5.444
13925SI     SI113925   1.069   8.807   6.772
13926SI     SI113926   0.158   8.709   0.757
13927SI     SI113927   0.648   0.569   1.145
13928SI     SI113928   1.892   9.545   2.638
13929SI     SI113929   0.825   0.132   1.116
13930SI     SI113930   0.026   9.440   9.247
13931SI     SI113931   3.632   9.226   4.491
13932SI     SI113932   0.689   0.979   3.300
13933SI     SI113933   0.272   9.580   9.134
13934SI     SI113934   2.760   9.582   0.485
13935SI     SI113935   2.563   0.644   4.013
13936SI     SI113936   5.955   8.661   7.046
13937SI     SI113937   1.066   0.758   6.257
13938SI     SI113938   1.381   0.608   2.415
13939SI     SI113939   0.436   9.178   8.662
13940SI     SI113940   4.990   0.101   5.848
13941SI     SI113941   0.958   0.558   1.167
13942SI     SI113942   0.796   0.580   6.259
13943SI     SI113943   4.564   0.809   7.231
13944SI     SI113944   8.491   0.149   6.222
13945SI     SI113945   8.037   0.693   3.432
13946SI     SI113946   8.910   0.602   4.019
13947SI     SI113947   1.860   9.345   9.459
13948SI     SI113948   4.199   1.014   3.158
13949SI     SI113949   3.850   9.459   9.311
13950SI     SI113950   1.836   9.002   2.448
13951SI     SI113951   4.329   0.573   1.392
13952SI     SI113952   0.201   9.261   2.743
13953SI     SI113953   6.887   9.405   6.622
13954SI     SI113954   5.196   1.111   1.079
13955SI     SI113955   6.501   9.004   8.599
13956SI     SI113956   7.441   9.169   5.091
13957SI     SI113957   4.068   0.106   2.010
13958SI     SI113958   4.254   8.775   0.273
13959SI     SI113959   7.324   9.050   5.348
13960SI     SI113960   4.783   0.561   9.124
13961SI     SI113961   6.608   0.631   0.018
13962SI     SI113962   2.537   8.621   6.181
13963SI     SI113963   5.281   9.048   6.475
13964SI     SI113964   3.733   0.333   6.182
13965SI     SI113965   1.384   9.382   0.405
13966SI     SI113966   3.162   8.692   8.084
13967SI     SI113967   3.862   0.806   3.935
13968SI     SI113968   5.456   9.112   3.181
13969SI     SI113969   5.875   9.329   5.502
13970SI     SI113970   7.855   8.430   1.328
13971SI     SI113971   2.798   8.487   9.236
13972SI     SI113972   5.365   0.157   8.812
13973SI     SI113973   7.344   0.032   2.675
13974SI     SI113974   2.922   8.701   0.614
13975SI     SI113975   2.320   9.407   6.637
13976SI     SI113976   8.111   9.417   0.242
13977SI     SI113977   8.422   0.100   9.238
13978SI     SI113978   4.408   1.142   6.843
13979SI     SI113979   5.557   8.591   6.604
13980SI     SI113980   4.138   9.441   6.517
13981SI     SI113981   4.516   0.736   9.375
13982SI     SI113982   9.180   0.287   2.293
13983SI     SI113983   9.124   0.204   5.861
13984SI     SI113984   3.742   9.024   8.976
13985SI     SI113985   3.683   9.342   2.960
13986SI     SI113986   7.258   0.168   4.448
13987SI     SI113987   7.944   0.672   5.257
13988SI     SI113988   0.819   8.370   1.888
13989SI     SI113989   5.978   0.842   2.248
13990SI     SI113990   0.640   0.518   6.724
13991SI     SI113991   7.501   9.215   3.431
13992SI     SI113992   8.648   0.011   5.875
13993SI     SI113993   9.103   8.389   7.972
13994SI     SI113994   6.997   9.296   1.873
13995SI     SI113995   8.582   8.928   0.615
13996SI     SI113996   4.823   0.724   8.398
13997SI     SI113997   5.003   9.485   4.288
13998SI     SI113998   3.579   0.317   5.252
13999SI     SI113999   5.581   9.532   2.275
14000SI     SI114000   3.248   0.393   8.800
14001SI     SI114001   2.212   8.902   6.753
14002SI     SI114002   5.910   9.493   3.883
14003SI     SI114003   4.662   0.733   4.854
14004SI     SI114004   8.034   8.846   7.537
14005SI     SI114005   0.019   8.915   6.222
14006SI     SI114006   4.862   0.640   4.210
14007SI     SI114007   9.499   8.936   3.327
14008SI     SI114008   8.006   0.143   2.420
14009SI     SI114009   0.274   8.462   9.162
14010SI     SI114010   5.280   9.320   1.549
14011SI     SI114011   3.865   8.859   2.851
14012SI     SI114012   8.888   8.939   1.593
14013SI     SI114013   3.625   8.934   4.423
14014SI     SI114014   2.001   0.148   4.124
14015SI     SI114015   2.212   9.491   1.945
14016SI     SI114016   7.721   9.350   9.297
14017SI     SI114017   3.268   8.202   8.191
14018SI     SI114018   7.772   9.125   8.127
14019SI     SI114019   8.555   9.411   8.494
14020SI     SI114020   8.596   8.947   2.795
14021SI     SI114021   3.486   9.233   0.792
14022SI     SI114022   5.676   0.408   4.486
14023SI     SI114023   0.677   1.145   5.777
14024SI     SI114024   8.558   9.430   4.471
14025SI     SI114025   0.513   0.440   5.850
14026SI     SI114026   3.500   8.749   4.785
14027SI     SI114027   2.809   9.096   2.787
14028SI     SI114028   8.768   0.756   4.534
14029SI     SI114029   2.491   0.249   2.178
14030SI     SI114030   4.186   9.392   6.061
14031SI     SI114031   1.712   1.126   3.825
14032SI     SI114032   9.248   0.763   6.189
14033SI     SI114033   4.280   8.727   5.310
14034SI     SI114034   9.090   9.568   6.467
14035SI     SI114035   6.628   0.109   9.484
14036SI     SI114036   1.518   9.267   9.102
14037SI     SI114037   9.152   9.358   6.692
14038SI     SI114038   2.517   8.719   5.905
14039SI     SI114039   7.301   0.759   5.411
14040SI     SI114040   6.222   0.868   4.221
14041SI     SI114041   2.706   8.731   7.452
14042SI     SI114042   7.118   1.049   1.167
14043SI     SI114043   8.187   9.462   7.281
14044SI     SI114044   0.208   8.525   4.744
14045SI     SI114045   0.688   0.731   8.958
14046SI     SI114046   6.239   8.991   2.013
14047SI     SI114047   1.714   1.205   8.061
14048SI     SI114048   5.979   9.160   2.898
14049SI     SI114049   3.645   0.397   3.797
14050SI     SI114050   6.174   0.817   0.540
14051SI     SI114051   8.585   9.042   0.156
14052SI     SI114052   0.095   0.556   3.469
14053SI     SI114053   2.626   0.505   8.171
14054SI     SI114054   6.320   9.222   2.720
14055SI     SI114055   0.828   0.472   7.763
14056SI     SI114056   0.826   8.584   9.453
14057SI     SI114057   7.718   0.271   8.687
14058SI     SI114058   2.545   8.668   9.320
14059SI     SI114059   2.891   8.984   5.418
14060SI     SI114060   5.846   0.737   6.817
14061SI     SI114061   7.933   0.697   4.365
14062SI     SI114062   4.221   9.422   3.179
14063SI     SI114063   3.192   0.979   8.139
14064SI     SI114064   3.646   0.182   0.778
14065SI     SI114065   3.891   8.324   4.324
14066SI     SI114066   4.734   0.741   1.810
14067SI     SI114067   3.790   8.682   4.725
14068SI     SI114068   7.805   1.136   0.473
14069SI     SI114069   0.077   8.628   1.807
14070SI     SI114070   0.461   1.192   5.572
14071SI     SI114071   6.174   0.001   0.102
14072SI     SI114072   0.544   0.094   5.502
14073SI     SI114073   1.920   9.282   6.779
14074SI     SI114074   3.868   0.598   8.985
14075SI     SI114075   4.235   9.588   2.213
14076SI     SI114076   2.444   0.919   6.241
14077SI     SI114077   5.834   9.163   6.128
14078SI     SI114078   5.887   8.588   5.303
14079SI     SI114079   5.188   8.740   3.768
14080SI     SI114080   0.173   1.107   8.161
14081SI     SI114081   8.853   8.631   5.760
14082SI     SI114082   8.076   0.247   6.657
14083SI     SI114083   3.249   0.966   4.169
14084SI     SI114084   2.456   0.098   4.427
14085SI     SI114085   0.833   9.417   3.765
14086SI     SI114086   2.222   0.480   7.172
14087SI     SI114087   5.293   9.482   2.650
14088SI     SI114088   3.451   9.477   7.790
14089SI     SI114089   5.956   0.908   6.245
14090SI     SI114090   3.172   0.408   5.917
14091SI     SI114091   0.621   0.644   2.816
14092SI     SI114092   3.138   8.979   9.059
14093SI     SI114093   6.751   0.643   2.485
14094SI     SI114094   6.312   0.724   1.723
14095SI     SI114095   0.789   8.865   1.003
14096SI     SI114096   6.905   0.560   5.385
14097SI     SI114097   8.565   8.472   7.901
14098SI     SI114098   8.618   8.603   8.175
14099SI     SI114099   3.307   8.819   8.848
14100SI     SI114100   8.875   0.045   8.730
14101SI     SI114101   6.952   9.306   7.192
14102SI     SI114102   2.966   9.497   8.003
14103SI     SI114103   3.073   0.004   9.478
14104SI     SI114104   3.075   0.706   4.151
14105SI     SI114105   5.154   8.482   8.200
14106SI     SI114106   1.562   1.026   8.283
14107SI     SI114107   0.668   0.094   7.641
14108SI     SI114108   7.216   0.898   4.025
14109SI     SI114109   6.986   9.340   2.576
14110SI     SI114110   7.137   8.704   0.268
14111SI     SI114111   3.052   0.052   7.748
14112SI     SI114112   8.094   9.151   6.963
14113SI     SI114113   6.278   9.143   9.121
14114SI     SI114114   2.895   9.113   4.464
14115SI     SI114115   8.926   0.245   1.392
14116SI     SI114116   0.972   9.239   0.139
14117SI     SI114117   6.249   0.366   4.510
14118SI     SI114118   3.551   9.038   2.559
14119SI     SI114119   2.413   0.201   1.356
14120SI     SI114120   4.406   9.366   2.930
14121SI     SI114121   8.540   0.586   8.642
14122SI     SI114122   1.992   0.460   0.563
14123SI     SI114123   9.407   9.316   9.064
14124SI     SI114124   2.249   9.262   9.181
14125SI     SI114125   3.567   0.399   7.070
14126SI     SI114126   6.912   8.918   7.588
14127SI     SI114127   7.136   0.296   8.244
14128SI     SI114128   6.707   0.990   8.472
14129SI     SI114129   3.324   0.497   1.495
14130SI     SI114130   0.786   8.434   2.399
14131SI     SI114131   0.633   0.226   6.849
14132SI     SI114132   4.596   8.337   8.186
14133SI     SI114133   5.211   8.485   8.499
14134SI     SI114134   4.766   8.545   1.932
14135SI     SI114135   6.803   0.466   2.227
14136SI     SI114136   8.570   0.225   2.474
14137SI     SI114137   8.572   0.133   8.243
14138SI     SI114138   4.621   0.745   8.804
14139SI     SI114139   1.419   0.627   6.507
14140SI     SI114140   1.019   8.543   9.128
14141SI     SI114141   7.064   1.004   7.775
14142SI     SI114142   2.639   0.605   9.145
14143SI     SI114143   9.483   8.486   6.049
14144SI     SI114144   4.342   9.215   7.590
14145SI     SI114145   6.632   9.025   2.715
14146SI     SI114146   4.238   9.506   8.445
14147SI     SI114147   7.650   8.646   5.256
14148SI     SI114148   1.273   0.716   6.030
14149SI     SI114149   2.776   8.777   1.060
14150SI     SI114150   7.550   1.005   8.210
14151SI     SI114151   5.440   0.140   4.217
14152SI     SI114152   3.950   0.912   0.229
14153SI     SI114153   0.974   1.015   6.919
14154SI     SI114154   6.985   0.012   3.402
14155SI     SI114155   2.949   8.883   4.011
14156SI     SI114156   3.930   9.341   8.838
14157SI     SI114157   3.998   9.326   4.868
14158SI     SI114158   8.987   1.000   5.269
14159SI     SI114159   2.158   9.333   5.273
14160SI     SI114160   9.279   9.174   7.472
14161SI     SI114161   9.169   1.063   4.316
14162SI     SI114162   2.540   1.125   5.104
14163SI     SI114163   9.352   0.804   3.386
14164SI     SI114164   3.699   0.200   8.723
14165SI     SI114165   4.305   0.767   6.501
14166SI     SI114166   7.790   0.602   1.724
14167SI     SI114167   1.345   0.256   5.905
14168SI     SI114168   6.003   9.351   1.054
14169SI     SI114169   1.141   0.223   1.761
14170SI     SI114170   1.895   1.162   7.116
14171SI     SI114171   4.660   8.807   5.773
14172SI     SI114172   0.383   8.618   7.766
14173SI     SI114173   3.729   0.539   4.787
14174SI     SI114174   9.387   0.955   3.111
14175SI     SI114175   2.271   0.832   7.953
14176SI     SI114176   1.749   0.046   2.201
14177SI     SI114177   7.609   0.643   0.999
14178SI     SI114178   9.248   8.728   2.913
14179SI     SI114179   2.752   9.460   1.268
14180SI     SI114180   5.757   0.885   5.335
14181SI     SI114181   8.915   8.680   8.592
14182SI     SI114182   5.913   0.346   0.703
14183SI     SI114183   3.047   0.475   6.718
14184SI     SI114184   4.773   9.319   1.327
14185SI     SI114185   8.762   8.877   6.636
14186SI     SI114186   8.976   9.308   3.553
14187SI     SI114187   1.169   8.823   0.296
14188SI     SI114188   8.891   8.518   8.840
14189SI     SI114189   2.524   0.195   4.135
14190SI     SI114190   5.153   0.305   1.801
14191SI     SI114191   5.597   1.358   7.480
14192SI     SI114192   5.210   1.127   0.219
14193SI     SI114193   3.775   9.039   5.154
14194SI     SI114194   5.545   8.911   5.982
14195SI     SI114195   5.622   0.646   3.571
14196SI     SI114196   5.910   9.055   9.529
14197SI     SI114197   8.183   9.120   2.760
14198SI     SI114198   6.764   9.177   6.794
14199SI     SI114199   4.212   8.457   2.475
14200SI     SI114200   7.428   0.722   3.551
14201SI     SI114201   9.580   8.380   0.111
14202SI     SI114202   3.916   8.656   0.944
14203SI     SI114203   0.987   8.745   3.459
14204SI     SI114204   1.886   9.192   5.219
14205SI     SI114205   2.955   8.988   0.483
14206SI     SI114206   7.410   8.467   7.382
14207SI     SI114207   7.514   9.003   9.496
14208SI     SI114208   1.884   8.742   0.029
14209SI     SI114209   2.616   9.514   8.908
14210SI     SI114210   5.484   9.384   7.200
14211SI     SI114211   8.011   9.190   3.005
14212SI     SI114212   6.678   1.122   3.897
14213SI     SI114213   3.030   0.493   8.976
14214SI     SI114214   6.967   1.193   8.981
14215SI     SI114215   7.849   0.453   3.513
14216SI     SI114216   0.545   0.406   5.091
14217SI     SI114217   0.853   8.686   4.849
14218SI     SI114218   7.211   9.084   8.226
14219SI     SI114219   4.936   0.278   0.591
14220SI     SI114220   1.513   9.431   1.119
14221SI     SI114221   5.847   0.854   1.974
14222SI     SI114222   3.658   9.283   3.247
14223SI     SI114223   0.765   0.010   2.814
14224SI     SI114224   0.357   0.798   4.034
14225SI     SI114225   8.985   8.808   6.158
14226SI     SI114226   2.070   8.849   7.012
14227SI     SI114227   3.357   8.862   2.387
14228SI     SI114228   6.679   0.490   8.383
14229SI     SI114229   7.546   8.760   1.533
14230SI     SI114230   3.044   0.686   2.722
14231SI     SI114231   2.672   9.295   1.005
14232SI     SI114232   0.570   0.285   4.545
14233SI     SI114233   8.382   9.019   4.766
14234SI     SI114234   6.117   9.015   2.307
14235SI     SI114235   9.060   0.800   0.372
14236SI     SI114236   2.118   0.819   2.292
14237SI     SI114237   7.310   9.495   1.655
14238SI     SI114238   0.059   0.909   9.498
14239SI     SI114239   2.892   0.218   4.205
14240SI     SI114240   7.482   9.021   4.579
14241SI     SI114241   2.366   9.055   8.972
14242SI     SI114242   2.940   9.131   7.195
14243SI     SI114243   2.668   9.359   6.921
14244SI     SI114244   1.880   8.289   5.750
14245SI     SI114245   1.661   9.286   7.962
14246SI     SI114246   5.999   9.045   4.196
14247SI     SI114247   9.547   0.520   0.922
14248SI     SI114248   8.132   0.742   1.040
14249SI     SI114249   3.077   0.508   8.343
14250SI     SI114250   8.785   1.073   4.505
14251SI     SI114251   4.711   9.173   4.921
14252SI     SI114252   3.124   0.195   4.979
14253SI     SI114253   3.215   8.825   5.807
14254SI     SI114254   2.873   0.643   0.496
14255SI     SI114255   6.606   0.628   0.776
14256SI     SI114256   2.326   0.590   5.433
14257SI     SI114257   2.115   0.986   0.047
14258SI     SI114258   9.355   0.809   3.875
14259SI     SI114259   1.440   0.139   2.853
14260SI     SI114260   1.225   9.347   1.931
14261SI     SI114261   1.510   0.057   5.449
14262SI     SI114262   1.904   8.540   7.871
14263SI     SI114263   8.287   8.733   3.054
14264SI     SI114264   4.853   9.046   0.684
14265SI     SI114265   3.246   0.196   7.445
14266SI     SI114266   1.459   0.743   8.679
14267SI     SI114267   5.602   8.573   4.022
14268SI     SI114268   6.803   9.309   6.344
14269SI     SI114269   0.065   0.477   9.294
14270SI     SI114270   8.473   9.076   2.353
14271SI     SI114271   4.503   9.413   0.617
14272SI     SI114272   7.980   0.212   1.926
14273SI     SI114273   0.933   1.141   8.216
14274SI     SI114274   7.643   0.834   0.136
14275SI     SI114275   1.056   8.976   3.018
14276SI     SI114276   5.897   0.269   8.446
14277SI     SI114277   5.487   0.348   0.249
14278SI     SI114278   5.311   0.759   2.012
14279SI     SI114279   8.740   0.707   1.075
14280SI     SI114280   7.226   0.582   6.146
14281SI     SI114281   6.812   8.818   7.045
14282SI     SI114282   5.366   9.002   9.367
14283SI     SI114283   9.144   8.727   8.246
14284SI     SI114284   6.259   9.130   6.719
14285SI     SI114285   5.128   9.204   5.795
14286SI     SI114286   8.959   8.444   1.468
14287SI     SI114287   2.053   0.167   9.509
14288SI     SI114288   6.370   0.489   5.789
14289SI     SI114289   2.447   0.535   0.775
14290SI     SI114290   6.171   8.835   7.422
14291SI     SI114291   2.591   0.007   5.744
14292SI     SI114292   2.221   9.469   3.272
14293SI     SI114293   8.462   9.235   6.674
14294SI     SI114294   5.992   0.465   0.169
14295SI     SI114295   8.937   0.073   3.322
14296SI     SI114296   9.402   0.162   4.927
14297SI     SI114297   0.617   0.059   6.470
14298SI     SI114298   8.796   8.466   8.395
14299SI     SI114299   3.877   0.351   5.318
14300SI     SI114300   8.772   1.148   1.145
14301SI     SI114301   5.844   9.593   0.968
14302SI     SI114302   3.104   8.503   7.679
14303SI     SI114303   7.734   9.316   6.505
14304SI     SI114304   3.757   9.054   1.198
14305SI     SI114305   3.956   9.503   0.645
14306SI     SI114306   6.985   9.065   6.982
14307SI     SI114307   7.054   0.959   6.542
14308SI     SI114308   5.868   0.219   2.882
14309SI     SI114309   1.319   0.839   3.943
14310SI     SI114310   8.848   0.693   7.163
14311SI     SI114311   4.640   0.920   0.552
14312SI     SI114312   7.535   8.852   5.431
14313SI     SI114313   8.940   9.053   2.550
14314SI     SI114314   4.986   9.205   5.070
14315SI     SI114315   4.618   9.013   8.460
14316SI     SI114316   3.017   1.099   1.948
14317SI     SI114317   6.861   1.030   1.653
14318SI     SI114318   3.720   1.012   8.801
14319SI     SI114319   7.240   8.625   2.565
14320SI     SI114320   3.238   8.833   3.515
14321SI     SI114321   1.660   0.008   5.190
14322SI     SI114322   5.043   9.297   9.373
14323SI     SI114323   9.283   0.663   6.459
14324SI     SI114324   7.819   0.153   1.281
14325SI     SI114325   4.338   0.899   7.028
14326SI     SI114326   7.812   0.193   6.484
14327SI     SI114327   0.472   9.101   0.404
14328SI     SI114328   8.124   9.351   5.058
14329SI     SI114329   0.255   9.334   6.174
14330SI     SI114330   3.966   1.207   1.651
14331SI     SI114331   1.673   1.136   7.335
14332SI     SI114332   4.665   9.164   1.074
14333SI     SI114333   0.258   8.345   7.466
14334SI     SI114334   7.569   9.018   7.178
14335SI     SI114335   8.967   8.613   4.631
14336SI     SI114336   0.844   0.656   0.154
14337SI     SI114337   1.404   0.869   4.800
14338SI     SI114338   4.715   8.604   0.476
14339SI     SI114339   4.657   9.511   9.262
14340SI     SI114340   1.600   9.297   4.754
14341SI     SI114341   3.816   0.895   6.858
14342SI     SI114342   7.092   9.005   2.217
14343SI     SI114343   1.029   0.954   4.961
14344SI     SI114344   3.811   0.580   1.328
14345SI     SI114345   8.623   0.097   2.929
14346SI     SI114346   2.939   9.422   1.712
14347SI     SI114347   8.563   0.791   2.908
14348SI     SI114348   4.730   9.301   0.793
14349SI     SI114349   8.818   0.913   6.557
14350SI     SI114350   1.305   0.611   2.695
14351SI     SI114351   2.880   9.391   4.027
14352SI     SI114352   1.871   9.599   9.314
14353SI     SI114353   7.606   0.103   7.903
14354SI     SI114354   6.336   8.793   9.493
14355SI     SI114355   0.829   0.009   4.759
14356SI     SI114356   6.419   1.076   9.253
14357SI     SI114357   7.983   9.221   1.842
14358SI     SI114358   1.949   0.365   5.737
14359SI     SI114359   1.448   8.399   5.386
14360SI     SI114360   4.907   0.925   2.768
14361SI     SI114361   0.707   8.908   1.421
14362SI     SI114362   5.879   0.721   7.130
14363SI     SI114363   6.556   8.594   6.217
14364SI     SI114364   3.546   9.242   6.401
14365SI     SI114365   8.252   8.431   6.796
14366SI     SI114366   3.067   8.797   8.361
14367SI     SI114367   7.326   1.012   4.614
14368SI     SI114368   2.658   9.325   5.641
14369SI     SI114369   9.496   8.795   5.973
14370SI     SI114370   1.872   0.416   9.061
14371SI     SI114371   4.919   9.521   9.562
14372SI     SI114372   1.778   9.211   4.537
14373SI     SI114373   3.942   8.420   8.608
14374SI     SI114374   4.274   8.488   1.568
14375SI     SI114375   2.669   8.643   2.752
14376SI     SI114376   1.697   8.476   4.062
14377SI     SI114377   4.247   9.176   9.313
14378SI     SI114378   8.015   0.081   8.892
14379SI     SI114379   6.146   1.185   3.555
14380SI     SI114380   9.402   0.855   1.378
14381SI     SI114381   0.902   9.353   2.730
14382SI     SI114382   7.134   8.676   3.512
14383SI     SI114383   4.208   0.561   7.376
14384SI     SI114384   7.871   0.775   7.524
14385SI     SI114385   0.781   0.680   7.995
14386SI     SI114386   7.535   0.373   8.896
14387SI     SI114387   6.157   0.681   9.430
14388SI     SI114388   6.248   0.843   3.907
14389SI     SI114389   3.761   0.552   0.055
14390SI     SI114390   8.957   8.512   2.160
14391SI     SI114391   7.743   0.590   5.040
14392SI     SI114392   0.063   8.518   1.509
14393SI     SI114393   6.430   9.247   9.512
14394SI     SI114394   9.425   0.692   7.674
14395SI     SI114395   5.046   0.018   7.968
14396SI     SI114396   4.617   0.454   1.404
14397SI     SI114397   7.625   8.536   3.971
14398SI     SI114398   4.985   8.705   0.413
14399SI     SI114399   0.543   8.757   2.908
14400SI     SI114400   8.981   0.467   3.058
14401SI     SI114401   6.455   9.297   5.272
14402SI     SI114402   3.624   9.004   4.118
14403SI     SI114403   6.019   1.100   8.793
14404SI     SI114404   6.175   8.416   8.998
14405SI     SI114405   0.876   0.916   9.482
14406SI     SI114406   0.794   8.644   8.653
14407SI     SI114407   3.614   9.049   2.864
14408SI     SI114408   6.015   0.381   5.172
14409SI     SI114409   8.354   1.035   4.574
14410SI     SI114410   8.276   8.835   6.687
14411SI     SI114411   1.708   0.990   3.076
14412SI     SI114412   3.788   9.351   1.310
14413SI     SI114413   2.557   0.801   8.073
14414SI     SI114414   0.063   8.849   4.140
14415SI     SI114415   7.244   0.373   7.672
14416SI     SI114416   4.043   8.400   1.079
14417SI     SI114417   5.056   8.836   4.541
14418SI     SI114418   9.568   0.317   8.572
14419SI     SI114419   5.276   0.892   4.317
14420SI     SI114420   2.851   1.045   1.065
14421SI     SI114421   1.582   0.682   2.813
14422SI     SI114422   0.281   8.967   8.513
14423SI     SI114423   8.341   1.076   9.241
14424SI     SI114424   7.639   9.149   0.427
14425SI     SI114425   3.935   0.736   1.546
14426SI     SI114426   4.154   8.547   4.072
14427SI     SI114427   4.901   9.096   5.339
14428SI     SI114428   3.116   8.559   2.093
14429SI     SI114429   4.378   8.474   6.499
14430SI     SI114430   6.695   9.215   4.283
14431SI     SI114431   6.116   8.680   4.803
14432SI     SI114432   7.709   0.321   1.827
14433SI     SI114433   1.397   0.018   8.064
14434SI     SI114434   0.180   1.170   3.035
14435SI     SI114435   9.339   9.338   4.690
14436SI     SI114436   2.749   8.951   4.235
14437SI     SI114437   3.711   8.849   6.313
14438SI     SI114438   9.067   0.536   0.847
14439SI     SI114439   5.525   9.188   6.051
14440SI     SI114440   8.636   0.486   0.387
14441SI     SI114441   1.828   8.933   9.402
14442SI     SI114442   5.291   0.314   5.509
14443SI     SI114443   2.038   9.024   0.420
14444SI     SI114444   3.917   8.816   4.471
14445SI     SI114445   5.572   1.122   3.905
14446SI     SI114446   9.395   9.290   3.648
14447SI     SI114447   4.172   9.235   7.193
14448SI     SI114448   2.924   8.464   6.586
14449SI     SI114449   7.149   0.012   2.929
14450SI     SI114450   7.668   0.447   6.355
14451SI     SI114451   8.347   8.614   0.764
14452SI     SI114452   1.031   8.609   2.344
14453SI     SI114453   2.800   0.320   1.006
14454SI     SI114454   6.370   0.385   0.442
14455SI     SI114455   1.150   9.241   5.265
14456SI     SI114456   1.865   8.507   9.421
14457SI     SI114457   8.551   0.757   8.153
14458SI     SI114458   0.629   1.198   8.214
14459SI     SI114459   9.279   8.714   0.276
14460SI     SI114460   6.256   0.297   0.164
14461SI     SI114461   8.592   9.085   7.145
14462SI     SI114462   8.075   0.557   6.619
14463SI     SI114463   3.573   0.625   0.292
14464SI     SI114464   9.162   9.075   3.606
14465SI     SI114465   2.599   9.152   1.996
14466SI     SI114466   5.117   1.050   6.666
14467SI     SI114467   2.411   9.261   7.038
14468SI     SI114468   6.997   0.186   1.248
14469SI     SI114469   6.725   8.504   7.764
14470SI     SI114470   4.621   0.021   2.473
14471SI     SI114471   7.666   8.523   6.977
14472SI     SI114472   5.296   1.077   5.319
14473SI     SI114473   6.914   0.949   8.170
14474SI     SI114474   7.507   0.682   2.308
14475SI     SI114475   7.132   8.408   8.896
14476SI     SI114476   0.013   1.057   2.532
14477SI     SI114477   5.260   9.122   0.913
14478SI     SI114478   5.888   1.032   5.562
14479SI     SI114479   0.780   0.235   4.965
14480SI     SI114480   5.659   0.536   0.703
14481SI     SI114481   2.006   1.127   5.235
14482SI     SI114482   5.162   0.679   3.418
14483SI     SI114483   6.681   9.028   8.171
14484SI     SI114484   6.432   9.233   3.013
14485SI     SI114485   9.140   8.593   1.911
14486SI     SI114486   9.093   0.132   1.912
14487SI     SI114487   9.027   8.519   3.010
14488SI     SI114488   0.771   1.039   5.112
14489SI     SI114489   6.141   0.660   5.209
14490SI     SI114490   1.093   0.978   2.326
14491SI     SI114491   1.483   8.661   7.906
14492SI     SI114492   6.982   0.227   4.026
14493SI     SI114493   1.233   0.356   2.864
14494SI     SI114494   5.059   8.660   9.368
14495SI     SI114495   6.517   0.218   1.206
14496SI     SI114496   2.253   8.577   0.573
14497SI     SI114497   0.136   9.291   7.142
14498SI     SI114498   3.646   0.499   9.172
14499SI     SI114499   6.420   9.586   6.876
14500SI     SI114500   2.741   0.572   7.210
14501SI     SI114501   2.816   0.739   3.361
14502SI     SI114502   2.012   9.482   2.191
14503SI     SI114503   9.076   8.896   1.847
14504SI     SI114504   1.665   8.804   1.639
14505SI     SI114505   9.452   1.069   0.971
14506SI     SI114506   4.234   8.341   3.893
14507SI     SI114507   7.524   0.594   7.281
14508SI     SI114508   2.587   0.516   0.506
14509SI     SI114509   0.227   0.187   1.751
14510SI     SI114510   7.017   1.036   6.028
14511SI     SI114511   1.497   1.329   3.847
14512SI     SI114512   2.728   8.491   5.304
14513SI     SI114513   4.929   8.427   5.548
14514SI     SI114514   3.959   9.412   2.011
14515SI     SI114515   4.903   8.631   6.974
14516SI     SI114516   7.115   9.369   7.613
14517SI     SI114517   7.986   0.776   1.889
14518SI     SI114518   1.999   9.472   5.708
14519SI     SI114519   0.281   9.431   8.199
14520SI     SI114520   0.288   0.529   4.763
14521SI     SI114521   3.003   0.777   7.488
14522SI     SI114522   0.755   0.079   3.614
14523SI     SI114523   6.594   8.973   1.679
14524SI     SI114524   1.424   8.329   6.037
14525SI     SI114525   2.210   9.324   5.883
14526SI     SI114526   8.332   8.430   3.110
14527SI     SI114527   2.182   9.197   7.656
14528SI     SI114528   1.114   0.283   4.075
14529SI     SI114529   6.477   9.016   9.325
14530SI     SI114530   1.052   8.539   0.359
14531SI     SI114531   8.377   9.446   2.046
14532SI     SI114532   9.430   8.786   9.068
14533SI     SI114533   7.051   9.440   0.909
14534SI     SI114534   1.604   0.474   8.648
14535SI     SI114535   0.597   0.381   9.577
14536SI     SI114536   3.029   8.506   7.185
14537SI     SI114537   4.086   0.800   8.225
14538SI     SI114538   3.292   0.092   1.769
14539SI     SI114539   7.328   9.202   3.898
14540SI     SI114540   0.749   0.607   5.480
14541SI     SI114541   8.642   1.065   9.501
14542SI     SI114542   2.030   0.320   3.387
14543SI     SI114543   0.425   9.386   2.899
14544SI     SI114544   3.757   8.546   9.051
14545SI     SI114545   1.086   0.022   7.244
14546SI     SI114546   2.972   8.431   0.147
14547SI     SI114547   1.082   0.696   8.296
14548SI     SI114548   3.036   9.493   0.979
14549SI     SI114549   5.337   8.752   7.497
14550SI     SI114550   1.712   0.635   3.740
14551SI     SI114551   4.388   0.840   1.550
14552SI     SI114552   3.052   8.998   6.937
14553SI     SI114553   4.394   0.619   0.211
14554SI     SI114554   5.882   8.662   3.980
14555SI     SI114555   7.702   8.680   8.657
14556SI     SI114556   7.924   0.974   1.675
14557SI     SI114557   4.541   0.509   8.136
14558SI     SI114558   1.332   0.616   6.798
14559SI     SI114559   2.286   8.775   6.271
14560SI     SI114560   6.269   0.124   6.645
14561SI     SI114561   6.155   0.681   5.502
14562SI     SI114562   4.103   0.136   7.599
14563SI     SI114563   0.495   0.759   9.395
14564SI     SI114564   2.798   1.076   4.942
14565SI     SI114565   6.133   9.096   3.370
14566SI     SI114566   1.225   9.356   8.105
14567SI     SI114567   1.909   0.958   8.539
14568SI     SI114568   5.083   0.259   2.599
14569SI     SI114569   5.718   9.156   6.500
14570SI     SI114570   4.215   0.535   0.593
14571SI     SI114571   2.752   9.261   2.534
14572SI     SI114572   9.202   0.300   6.754
14573SI     SI114573   4.020   0.149   0.218
14574SI     SI114574   6.744   1.125   3.158
14575SI     SI114575   4.464   8.717   6.670
14576SI     SI114576   7.934   0.382   1.119
14577SI     SI114577   1.242   9.548   5.506
14578SI     SI114578   6.878   8.816   0.771
14579SI     SI114579   6.566   8.353   2.640
14580SI     SI114580   2.952   8.821   9.501
14581SI     SI114581   7.548   9.347   8.433
14582SI     SI114582   6.946   1.142   3.727
14583SI     SI114583   6.098   8.889   6.684
14584SI     SI114584   2.852   8.492   1.167
14585SI     SI114585   5.644   8.813   0.150
14586SI     SI114586   5.174   9.366   2.272
14587SI     SI114587   2.678   0.534   5.074
14588SI     SI114588   4.056   8.715   6.570
14589SI     SI114589   7.178   8.802   4.949
14590SI     SI114590   3.455   0.402   6.270
14591SI     SI114591   7.821   9.077   7.575
14592SI     SI114592   8.135   0.977   1.231
14593SI     SI114593   7.349   9.529   7.532
14594SI     SI114594   6.710   9.381   3.016
14595SI     SI114595   4.698   9.281   2.944
14596SI     SI114596   8.699   9.513   5.079
14597SI     SI114597   4.482   1.204   4.817
14598SI     SI114598   7.814   0.448   0.855
14599SI     SI114599   3.469   8.825   9.386
14600SI     SI114600   0.130   9.394   4.331
14601SI     SI114601   6.158   0.403   7.806
14602SI     SI114602   8.158   8.709   7.769
14603SI     SI114603   3.867   0.024   7.206
14604SI     SI114604   1.168   0.044   0.731
14605SI     SI114605   1.493   8.661   0.690
14606SI     SI114606   6.019   0.735   7.513
14607SI     SI114607   1.743   0.378   4.938
14608SI     SI114608   8.840   0.959   2.514
14609SI     SI114609   4.656   9.183   3.929
14610SI     SI114610   5.575   8.643   5.337
14611SI     SI114611   5.445   0.555   8.469
14612SI     SI114612   1.418   0.266   8.732
14613SI     SI114613   9.162   0.033   9.235
14614SI     SI114614   0.766   0.028   3.116
14615SI     SI114615   8.962   9.277   8.965
14616SI     SI114616   5.065   0.865   0.952
14617SI     SI114617   8.669   8.371   1.468
14618SI     SI114618   7.730   8.598   3.139
14619SI     SI114619   6.467   9.046   4.181
14620SI     SI114620   4.878   0.165   8.193
14621SI     SI114621   1.518   9.269   6.523
14622SI     SI114622   6.325   8.605   1.456
14623SI     SI114623   6.207   1.175   4.601
14624SI     SI114624   0.228   1.008   4.162
14625SI     SI114625   0.143   8.808   3.711
14626SI     SI114626   2.376   0.429   7.715
14627SI     SI114627   8.159   8.618   8.509
14628SI     SI114628   6.923   1.271   1.239
14629SI     SI114629   3.337   0.669   5.901
14630SI     SI114630   3.761   0.119   2.995
14631SI     SI114631   5.477   8.869   4.362
14632SI     SI114632   0.963   9.015   5.172
14633SI     SI114633   1.293   0.777   0.439
14634SI     SI114634   0.088   9.427   7.422
14635SI     SI114635   5.693   9.526   0.702
14636SI     SI114636   0.085   0.279   0.807
14637SI     SI114637   6.541   9.196   4.796
14638SI     SI114638   0.791   1.233   6.217
14639SI     SI114639   5.566   0.136   1.033
14640SI     SI114640   8.332   9.580   0.391
14641SI     SI114641   0.190   9.136   8.115
14642SI     SI114642   8.685   8.621   7.285
14643SI     SI114643   8.803   0.416   7.278
14644SI     SI114644   3.733   1.097   8.523
14645SI     SI114645   1.312   8.704   4.305
14646SI     SI114646   2.118   0.104   6.298
14647SI     SI114647   5.511   0.224   5.712
14648SI     SI114648   6.557   0.919   5.941
14649SI     SI114649   3.710   8.805   9.199
14650SI     SI114650   2.155   0.185   1.852
14651SI     SI114651   3.730   9.334   1.812
14652SI     SI114652   0.672   9.213   8.196
14653SI     SI114653   8.055   8.926   4.150
14654SI     SI114654   6.968   0.379   0.656
14655SI     SI114655   2.002   0.381   4.570
14656SI     SI114656   8.484   8.812   8.779
14657SI     SI114657   1.589   9.161   2.420
14658SI     SI114658   1.416   0.319   0.363
14659SI     SI114659   4.416   0.379   3.117
14660SI     SI114660   1.337   8.869   5.874
14661SI     SI114661   9.298   8.620   7.990
14662SI     SI114662   8.636   8.420   1.155
14663SI     SI114663   7.094   1.304   2.685
14664SI     SI114664   7.583   8.711   9.416
14665SI     SI114665   0.625   1.232   2.345
14666SI     SI114666   2.781   0.009   7.395
14667SI     SI114667   3.949   8.802   2.551
14668SI     SI114668   0.802   8.645   6.215
14669SI     SI114669   6.792   0.007   5.420
14670SI     SI114670   0.720   9.072   6.459
14671SI     SI114671   0.946   0.034   7.752
14672SI     SI114672   6.130   8.410   0.917
14673SI     SI114673   4.276   9.186   8.108
14674SI     SI114674   2.440   8.962   0.756
14675SI     SI114675   1.530   1.173   9.243
14676SI     SI114676   2.035   8.533   1.811
14677SI     SI114677   8.440   0.521   2.090
14678SI     SI114678   7.417   8.247   0.597
14679SI     SI114679   2.076   0.533   2.799
14680SI     SI114680   6.687   8.769   8.508
14681SI     SI114681   7.312   0.695   7.966
14682SI     SI114682   0.166   0.507   8.063
14683SI     SI114683   3.375   0.274   2.183
14684SI     SI114684   8.746   0.375   3.881
14685SI     SI114685   3.078   0.306   1.163
14686SI     SI114686   0.037   8.711   8.352
14687SI     SI114687   3.690   0.128   6.984
14688SI     SI114688   5.028   0.549   7.598
14689SI     SI114689   2.240   8.544   3.522
14690SI     SI114690   8.550   9.376   2.275
14691SI     SI114691   6.392   8.529   5.637
14692SI     SI114692   1.234   0.516   3.434
14693SI     SI114693   1.566   0.049   8.561
14694SI     SI114694   1.146   9.056   4.561
14695SI     SI114695   6.652   0.924   0.872
14696SI     SI114696   5.120   8.718   0.689
14697SI     SI114697   8.290   1.061   2.689
14698SI     SI114698   5.121   0.634   5.166
14699SI     SI114699   6.353   0.486   9.546
14700SI     SI114700   2.880   8.474   7.460
14701SI     SI114701   2.217   1.071   9.372
14702SI     SI114702   7.135   0.307   7.389
14703SI     SI114703   8.426   1.159   4.834
14704SI     SI114704   4.989   9.123   1.307
14705SI     SI114705   3.474   0.796   5.160
14706SI     SI114706   6.108   0.371   6.583
14707SI     SI114707   6.349   8.468   4.753
14708SI     SI114708   7.838   9.291   4.952
14709SI     SI114709   5.956   8.956   3.908
14710SI     SI114710   1.810   9.144   0.745
14711SI     SI114711   5.386   8.866   7.218
14712SI     SI114712   2.181   1.224   7.227
14713SI     SI114713   0.696   0.876   5.934
14714SI     SI114714   9.472   0.434   3.654
14715SI     SI114715   8.457   8.847   7.302
14716SI     SI114716   3.616   0.390   7.475
14717SI     SI114717   5.380   0.417   4.549
14718SI     SI114718   1.701   9.481   1.772
14719SI     SI114719   6.381   8.406   7.187
14720SI     SI114720   0.765   8.466   5.050
14721SI     SI114721   3.465   9.117   5.186
14722SI     SI114722   3.629   9.571   8.035
14723SI     SI114723   2.052   0.758   4.971
14724SI     SI114724   3.072   8.756   8.658
14725SI     SI114725   1.528   8.736   2.158
14726SI     SI114726   3.781   8.447   3.361
14727SI     SI114727   8.690   0.448   7.565
14728SI     SI114728   1.450   0.701   1.006
14729SI     SI114729   5.346   0.750   2.475
14730SI     SI114730   3.440   0.381   3.297
14731SI     SI114731   5.311   0.064   1.901
14732SI     SI114732   2.467   9.061   7.278
14733SI     SI114733   7.553   9.399   1.826
14734SI     SI114734   2.464   0.511   3.508
14735SI     SI114735   2.023   0.363   2.070
14736SI     SI114736   7.617   0.179   2.749
14737SI     SI114737   0.507   0.564   3.546
14738SI     SI114738   3.347   8.937   6.919
14739SI     SI114739   8.810   0.832   7.841
14740SI     SI114740   7.264   9.047   4.375
14741SI     SI114741   2.647   0.003   8.242
14742SI     SI114742   2.637   9.451   0.735
14743SI     SI114743   2.882   9.011   8.701
14744SI     SI114744   1.297   0.449   0.885
14745SI     SI114745   3.974   8.623   3.493
14746SI     SI114746   7.785   0.930   2.863
14747SI     SI114747   2.232   0.954   1.436
14748SI     SI114748   5.674   9.040   3.862
14749SI     SI114749   8.239   0.157   7.346
14750SI     SI114750   0.710   1.116   1.181
14751SI     SI114751   6.264   0.965   9.508
14752SI     SI114752   8.705   9.587   9.279
14753SI     SI114753   8.751   0.385   4.888
14754SI     SI114754   5.217   0.915   3.218
14755SI     SI114755   4.078   1.100   1.284
14756SI     SI114756   8.490   9.431   1.128
14757SI     SI114757   2.532   0.709   1.227
14758SI     SI114758   3.417   1.115   3.725
14759SI     SI114759   1.189   8.527   0.871
14760SI     SI114760   0.799   0.038   5.661
14761SI     SI114761   4.890   9.308   2.393
14762SI     SI114762   0.820   0.838   0.524
14763SI     SI114763   6.417   9.284   0.430
14764SI     SI114764   7.660   0.005   1.075
14765SI     SI114765   4.803   1.086   3.229
14766SI     SI114766   0.931   9.349   2.228
14767SI     SI114767   0.190   9.123   1.951
14768SI     SI114768   1.545   0.873   3.770
14769SI     SI114769   3.376   0.597   3.085
14770SI     SI114770   2.928   0.704   9.399
14771SI     SI114771   5.924   8.798   0.305
14772SI     SI114772   5.192   9.218   3.101
14773SI     SI114773   1.437   9.047   4.678
14774SI     SI114774   5.049   9.145   3.553
14775SI     SI114775   1.978   0.860   3.159
14776SI     SI114776   8.578   0.645   7.759
14777SI     SI114777   0.248   0.071   2.035
14778SI     SI114778   7.642   8.902   2.056
14779SI     SI114779   6.607   8.774   3.136
14780SI     SI114780   6.666   8.599   9.019
14781SI     SI114781   1.863   8.677   5.527
14782SI     SI114782   4.462   9.099   0.085
14783SI     SI114783   4.522   0.962   8.629
14784SI     SI114784   0.084   8.504   2.364
14785SI     SI114785   2.147   0.831   6.254
14786SI     SI114786   2.975   8.844   2.122
14787SI     SI114787   4.354   9.152   1.068
14788SI     SI114788   6.154   0.015   5.764
14789SI     SI114789   7.171   0.211   1.975
14790SI     SI114790   3.641   0.688   5.974
14791SI     SI114791   0.548   0.290   1.093
14792SI     SI114792   9.233   0.164   0.216
14793SI     SI114793   1.155   9.478   8.805
14794SI     SI114794   9.295   8.916   1.420
14795SI     SI114795   0.654   8.956   2.440
14796SI     SI114796   0.778   0.883   6.471
14797SI     SI114797   0.539   0.343   7.763
14798SI     SI114798   2.813   0.273   4.961
14799SI     SI114799   4.074   1.160   5.691
14800SI     SI114800   0.268   1.061   2.135
14801SI     SI114801   9.511   9.602   4.704
14802SI     SI114802   3.500   8.815   7.719
14803SI     SI114803   2.310   9.114   3.434
14804SI     SI114804   0.340   8.474   2.183
14805SI     SI114805   1.425   8.563   8.357
14806SI     SI114806   2.504   9.104   4.114
14807SI     SI114807   1.816   0.102   9.026
14808SI     SI114808   6.307   0.464   7.077
14809SI     SI114809   6.390   9.491   1.520
14810SI     SI114810   0.352   8.337   4.919
14811SI     SI114811   9.369   8.961   7.249
14812SI     SI114812   7.894   9.459   3.999
14813SI     SI114813   8.673   0.435   3.139
14814SI     SI114814   7.582   9.565   3.125
14815SI     SI114815   4.216   9.407   2.576
14816SI     SI114816   7.894   9.196   7.862
14817SI     SI114817   3.272   9.133   6.321
14818SI     SI114818   4.793   9.269   6.180
14819SI     SI114819   3.943   0.577   0.739
14820SI     SI114820   7.399   9.382   4.144
14821SI     SI114821   1.620   8.992   4.153
14822SI     SI114822   7.862   8.652   7.408
14823SI     SI114823   1.311   8.959   2.108
14824SI     SI114824   6.012   0.477   2.869
14825SI     SI114825   0.026   9.369   6.385
14826SI     SI114826   8.622   8.683   0.814
14827SI     SI114827   3.901   8.622   4.234
14828SI     SI114828   4.753   9.255   8.357
14829SI     SI114829   9.428   0.930   0.705
14830SI     SI114830   8.164   0.403   2.465
14831SI     SI114831   4.242   8.538   7.882
14832SI     SI114832   1.939   0.295   3.674
14833SI     SI114833   6.385   8.896   4.437
14834SI     SI114834   6.644   9.555   0.228
14835SI     SI114835   4.203   1.126   2.599
14836SI     SI114836   7.778   8.814   9.187
14837SI     SI114837   5.076   9.308   1.071
14838SI     SI114838   2.352   0.397   0.085
14839SI     SI114839   8.139   1.182   5.181
14840SI     SI114840   4.398   0.491   3.933
14841SI     SI114841   2.265   0.481   2.551
14842SI     SI114842   3.240   0.020   8.467
14843SI     SI114843   4.356   9.282   8.873
14844SI     SI114844   3.654   8.631   0.758
14845SI     SI114845   9.566   8.741   5.667
14846SI     SI114846   2.572   1.003   6.744
14847SI     SI114847   1.463   0.805   3.081
14848SI     SI114848   0.911   8.444   3.522
14849SI     SI114849   5.885   8.735   7.341
14850SI     SI114850   0.674   9.196   6.181
14851SI     SI114851   4.348   8.834   3.628
14852SI     SI114852   5.749   9.042   2.772
14853SI     SI114853   1.598   8.551   8.826
14854SI     SI114854   3.584   0.315   8.455
14855SI     SI114855   8.404   9.538   6.001
14856SI     SI114856   0.037   0.491   5.883
14857SI     SI114857   8.842   9.131   4.736
14858SI     SI114858   1.474   9.567   4.725
14859SI     SI114859   1.530   1.331   8.986
14860SI     SI114860   8.192   0.505   5.248
14861SI     SI114861   6.760   0.183   2.675
14862SI     SI114862   2.356   8.643   4.139
14863SI     SI114863   4.630   0.219   6.318
14864SI     SI114864   3.052   9.274   8.760
14865SI     SI114865   4.383   8.883   9.268
14866SI     SI114866   8.191   8.906   4.572
14867SI     SI114867   7.406   8.552   9.228
14868SI     SI114868   8.558   8.759   9.305
14869SI     SI114869   5.160   9.113   2.816
14870SI     SI114870   2.495   9.288   4.808
14871SI     SI114871   0.893   8.713   1.248
14872SI     SI114872   1.397   9.344   2.910
14873SI     SI114873   0.692   9.492   0.631
14874SI     SI114874   3.671   9.231   9.185
14875SI     SI114875   2.050   0.850   5.694
14876SI     SI114876   2.847   9.448   8.404
14877SI     SI114877   0.721   1.074   7.054
14878SI     SI114878   7.782   0.011   6.971
14879SI     SI114879   5.779   0.990   6.673
14880SI     SI114880   7.124   1.065   5.728
14881SI     SI114881   2.481   9.288   7.705
14882SI     SI114882   4.318   0.622   8.540
14883SI     SI114883   4.868   0.660   3.493
14884SI     SI114884   4.552   9.087   8.743
14885SI     SI114885   9.494   0.264   7.485
14886SI     SI114886   7.231   9.088   6.802
14887SI     SI114887   1.543   0.431   8.345
14888SI     SI114888   1.426   8.995   3.896
14889SI     SI114889   9.557   9.014   5.514
14890SI     SI114890   4.386   8.945   2.644
14891SI     SI114891   3.827   9.605   4.181
14892SI     SI114892   2.725   0.095   7.984
14893SI     SI114893   2.324   8.961   2.363
14894SI     SI114894   8.866   0.397   6.469
14895SI     SI114895   6.807   9.187   1.661
14896SI     SI114896   0.560   0.507   8.455
14897SI     SI114897   0.504   0.971   8.644
14898SI     SI114898   1.233   8.796   0.602
14899SI     SI114899   8.648   0.648   8.926
14900SI     SI114900   2.141   8.723   7.433
14901SI     SI114901   0.527   0.756   0.560
14902SI     SI114902   8.894   9.062   8.262
14903SI     SI114903   7.895   0.616   0.594
14904SI     SI114904   4.229   8.798   7.712
14905SI     SI114905   1.943   0.563   7.567
14906SI     SI114906   7.982   8.946   8.261
14907SI     SI114907   6.112   0.883   4.635
14908SI     SI114908   6.247   8.737   2.363
14909SI     SI114909   4.596   0.048   8.200
14910SI     SI114910   1.867   0.044   7.157
14911SI     SI114911   1.535   1.128   4.880
14912SI     SI114912   2.655   8.678   8.876
14913SI     SI114913   8.107   9.376   4.406
14914SI     SI114914   5.013   8.552   1.421
14915SI     SI114915   5.663   0.813   7.862
14916SI     SI114916   3.396   8.907   0.476
14917SI     SI114917   5.375   0.706   6.762
14918SI     SI114918   3.073   0.732   5.322
14919SI     SI114919   4.200   8.767   3.132
14920SI     SI114920   5.441   8.622   7.021
14921SI     SI114921   0.859   0.358   2.487
14922SI     SI114922   8.725   8.755   0.157
14923SI     SI114923   5.671   9.449   5.035
14924SI     SI114924   9.529   8.607   2.825
14925SI     SI114925   5.456   0.359   7.812
14926SI     SI114926   0.670   9.188   7.681
14927SI     SI114927   6.429   9.025   0.586
14928SI     SI114928   6.605   0.301   5.811
14929SI     SI114929   4.263   9.456   1.074
14930SI     SI114930   2.758   8.496   4.240
14931SI     SI114931   5.586   0.679   7.195
14932SI     SI114932   9.052   9.310   4.826
14933SI     SI114933   0.800   0.298   8.895
14934SI     SI114934   0.497   0.965   4.975
14935SI     SI114935   4.211   0.450   4.591
14936SI     SI114936   4.665   0.416   0.510
14937SI     SI114937   2.931   0.175   2.840
14938SI     SI114938   6.011   1.056   8.093
14939SI     SI114939   8.518   0.484   8.003
14940SI     SI114940   6.237   0.446   6.312
14941SI     SI114941   5.466   9.424   3.578
14942SI     SI114942   1.740   9.119   5.494
14943SI     SI114943   1.574   9.249   4.303
14944SI     SI114944   6.421   9.452   5.741
14945SI     SI114945   9.166   0.386   6.473
14946SI     SI114946   0.241   8.986   3.926
14947SI     SI114947   4.208   0.236   2.934
14948SI     SI114948   2.860   9.279   6.110
14949SI     SI114949   8.446   0.484   2.376
14950SI     SI114950   1.430   0.464   6.094
14951SI     SI114951   4.614   8.778   6.216
14952SI     SI114952   6.574   0.427   2.597
14953SI     SI114953   0.460   8.878   2.241
14954SI     SI114954   6.009   9.034   5.902
14955SI     SI114955   0.442   0.694   7.448
14956SI     SI114956   7.295   1.098   7.610
14957SI     SI114957   8.027   8.619   4.230
14958SI     SI114958   5.432   8.579   6.307
14959SI     SI114959   4.057   0.712   0.978
14960SI     SI114960   4.181   8.669   0.558
14961SI     SI114961   3.566   0.773   3.962
14962SI     SI114962   3.885   0.925   1.133
14963SI     SI114963   2.213   9.039   4.098
14964SI     SI114964   1.489   8.547   6.468
14965SI     SI114965   4.032   0.868   2.681
14966SI     SI114966   4.445   8.821   2.199
14967SI     SI114967   7.831   8.649   4.461
14968SI     SI114968   3.200   9.055   4.472
14969SI     SI114969   1.404   0.021   2.570
14970SI     SI114970   5.111   8.809   1.586
14971SI     SI114971   4.661   1.114   6.481
14972SI     SI114972   0.704   0.795   7.126
14973SI     SI114973   1.216   9.434   2.243
14974SI     SI114974   2.135   8.540   8.954
14975SI     SI114975   5.140   8.426   3.730
14976SI     SI114976   2.864   0.150   5.680
14977SI     SI114977   2.205   0.291   2.320
14978SI     SI114978   1.310   8.532   8.771
14979SI     SI114979   3.476   0.075   0.999
14980SI     SI114980   9.179   9.038   8.212
14981SI     SI114981   3.110   0.926   6.480
14982SI     SI114982   1.171   9.269   5.560
14983SI     SI114983   7.877   0.933   3.307
14984SI     SI114984   3.978   9.262   0.839
14985SI     SI114985   8.210   8.359   0.875
14986SI     SI114986   4.515   8.369   5.790
14987SI     SI114987   5.252   0.192   3.757
14988SI     SI114988   3.353   9.327   4.389
14989SI     SI114989   4.128   9.035   4.879
14990SI     SI114990   1.917   8.940   3.622
14991SI     SI114991   8.372   1.216   5.884
14992SI     SI114992   4.029   0.765   6.385
14993SI     SI114993   2.372   9.231   2.786
14994SI     SI114994   7.595   0.728   9.461
14995SI     SI114995   2.169   9.270   1.721
14996SI     SI114996   1.119   8.474   2.778
14997SI     SI114997   3.561   0.894   9.484
14998SI     SI114998   6.964   0.604   4.710
14999SI     SI114999   9.595   0.926   5.601
15000SI     SI115000   6.765   0.187   3.248
15001SI     SI115001   0.447   0.020   6.727
15002SI     SI115002   0.609   0.133   8.180
15003SI     SI115003   2.162   8.500   6.636
15004SI     SI115004   5.314   0.157   2.755
15005SI     SI115005   4.151   0.529   1.619
15006SI     SI115006   9.339   9.322   5.194
15007SI     SI115007   3.109   0.579   1.887
15008SI     SI115008   0.269   0.270   4.151
15009SI     SI115009   4.205   9.210   1.656
15010SI     SI115010   2.917   8.758   6.501
15011SI     SI115011   8.359   0.921   5.807
15012SI     SI115012   2.962   0.065   3.935
15013SI     SI115013   6.627   0.247   6.104
15014SI     SI115014   1.425   8.613   7.133
15015SI     SI115015   4.673   0.423   2.717
15016SI     SI115016   7.717   8.807   1.095
15017SI     SI115017   3.464   0.457   2.408
15018SI     SI115018   4.922   9.437   5.757
15019SI     SI115019   4.366   1.150   1.830
15020SI     SI115020   8.920   0.363   5.296
15021SI     SI115021   5.596   8.416   0.413
15022SI     SI115022   3.932   0.946   7.550
15023SI     SI115023   6.922   0.869   0.995
15024SI     SI115024   3.936   0.902   5.691
15025SI     SI115025   5.307   9.278   0.194
15026SI     SI115026   6.113   9.422   8.271
15027SI     SI115027   2.792   0.350   0.157
15028SI     SI115028   8.682   9.424   8.008
15029SI     SI115029   7.306   0.787   7.201
15030SI     SI115030   1.495   0.429   4.765
15031SI     SI115031   3.424   8.697   8.473
15032SI     SI115032   5.299   8.650   4.942
15033SI     SI115033   5.841   9.257   1.977
15034SI     SI115034   5.355   1.298   1.982
15035SI     SI115035   7.067   8.949   0.979
15036SI     SI115036   0.535   9.328   4.489
15037SI     SI115037   3.879   0.344   3.388
15038SI     SI115038   5.257   0.198   0.102
15039SI     SI115039   8.095   9.342   2.107
15040SI     SI115040   7.188   1.177   3.935
15041SI     SI115041   8.955   0.334   2.110
15042SI     SI115042   7.122   0.830   2.011
15043SI     SI115043   2.767   9.477   0.213
15044SI     SI115044   3.568   0.175   1.261
15045SI     SI115045   0.609   8.349   3.194
15046SI     SI115046   2.042   0.352   0.962
15047SI     SI115047   8.987   0.266   0.069
15048SI     SI115048   5.805   9.255   2.547
15049SI     SI115049   0.887   8.621   7.927
15050SI     SI115050   3.715   0.108   0.286
15051SI     SI115051   8.945   0.903   2.220
15052SI     SI115052   6.700   0.460   4.757
15053SI     SI115053   4.564   0.623   5.270
15054SI     SI115054   9.099   0.905   2.673
15055SI     SI115055   4.731   0.869   3.017
15056SI     SI115056   3.635   9.477   3.964
15057SI     SI115057   9.371   9.142   2.762
15058SI     SI115058   1.855   0.044   6.188
15059SI     SI115059   7.672   8.607   3.687
15060SI     SI115060   4.067   0.937   2.135
15061SI     SI115061   7.394   9.529   6.593
15062SI     SI115062   0.820   1.351   5.162
15063SI     SI115063   6.428   1.013   2.742
15064SI     SI115064   6.392   0.911   7.780
15065SI     SI115065   0.860   8.816   9.097
15066SI     SI115066   6.670   9.186   0.933
15067SI     SI115067   1.075   8.877   4.926
15068SI     SI115068   7.567   9.450   0.385
15069SI     SI115069   2.728   9.036   6.249
15070SI     SI115070   8.446   9.543   8.994
15071SI     SI115071   2.221   9.392   1.430
15072SI     SI115072   1.820   9.024   6.928
15073SI     SI115073   7.536   9.088   2.916
15074SI     SI115074   0.766   0.658   2.549
15075SI     SI115075   4.328   0.530   9.237
15076SI     SI115076   3.063   0.585   3.010
15077SI     SI115077   6.263   9.556   8.503
15078SI     SI115078   3.098   8.803   4.896
15079SI     SI115079   4.208   1.099   0.662
15080SI     SI115080   6.454   9.074   5.063
15081SI     SI115081   4.929   1.005   8.423
15082SI     SI115082   8.132   8.847   5.160
15083SI     SI115083   4.144   8.471   9.228
15084SI     SI115084   4.681   8.707   1.702
15085SI     SI115085   7.463   8.684   6.814
15086SI     SI115086   5.989   9.082   0.896
15087SI     SI115087   6.507   0.907   4.359
15088SI     SI115088   1.678   9.317   2.972
15089SI     SI115089   3.280   0.903   8.588
15090SI     SI115090   6.716   1.088   2.844
15091SI     SI115091   7.374   8.535   0.173
15092SI     SI115092   3.870   8.975   1.891
15093SI     SI115093   8.660   0.580   1.911
15094SI     SI115094   9.100   1.196   9.030
15095SI     SI115095   7.697   9.267   4.157
15096SI     SI115096   6.105   0.369   4.230
15097SI     SI115097   5.309   8.547   3.093
15098SI     SI115098   7.390   1.018   0.756
15099SI     SI115099   1.424   0.223   4.570
15100SI     SI115100   0.520   9.443   7.730
15101SI     SI115101   4.643   9.135   4.399
15102SI     SI115102   4.804   0.190   2.129
15103SI     SI115103   2.149   8.917   8.375
15104SI     SI115104   3.142   1.179   2.365
15105SI     SI115105   2.601   9.154   3.820
15106SI     SI115106   3.961   8.428   6.661
15107SI     SI115107   9.520   9.205   3.929
15108SI     SI115108   7.492   1.150   0.491
15109SI     SI115109   3.931   8.828   9.411
15110SI     SI115110   9.280   8.842   2.398
15111SI     SI115111   9.347   0.941   2.481
15112SI     SI115112   5.714   9.340   6.984
15113SI     SI115113   1.737   8.600   4.835
15114SI     SI115114   0.272   0.284   4.457
15115SI     SI115115   0.386   9.162   0.696
15116SI     SI115116   0.618   1.060   7.761
15117SI     SI115117   3.152   0.539   9.249
15118SI     SI115118   9.281   1.186   2.019
15119SI     SI115119   0.041   0.730   0.582
15120SI     SI115120   6.039   0.925   6.526
15121SI     SI115121   6.084   8.525   4.159
15122SI     SI115122   4.780   0.952   2.487
15123SI     SI115123   1.873   8.967   8.941
15124SI     SI115124   8.565   0.017   6.500
15125SI     SI115125   9.353   0.815   5.143
15126SI     SI115126   2.203   0.242   6.814
15127SI     SI115127   3.282   9.592   3.100
15128SI     SI115128   7.255   9.294   0.728
15129SI     SI115129   3.040   8.840   5.191
15130SI     SI115130   7.723   1.134   5.034
15131SI     SI115131   8.662   0.227   5.356
15132SI     SI115132   2.661   8.527   4.731
15133SI     SI115133   9.147   0.097   0.648
15134SI     SI115134   1.845   8.835   8.425
15135SI     SI115135   8.223   0.292   1.132
15136SI     SI115136   2.162   0.975   7.703
15137SI     SI115137   3.002   8.545   3.176
15138SI     SI115138   1.438   9.083   6.768
15139SI     SI115139   9.050   0.748   5.947
15140SI     SI115140   7.413   8.786   7.731
15141SI     SI115141   6.119   0.098   5.253
15142SI     SI115142   5.486   8.659   2.569
15143SI     SI115143   5.879   1.145   2.713
15144SI     SI115144   1.205   9.277   9.048
15145SI     SI115145   0.152   0.906   0.365
15146SI     SI115146   7.417   0.087   4.182
15147SI     SI115147   6.249   0.357   3.046
15148SI     SI115148   6.737   9.048   0.650
15149SI     SI115149   8.283   9.176   5.531
15150SI     SI115150   2.649   9.582   2.230
15151SI     SI115151   4.734   9.115   8.974
15152SI     SI115152   6.680   0.612   6.460
15153SI     SI115153   9.356   9.169   8.440
15154SI     SI115154   8.510   1.331   3.979
15155SI     SI115155   4.310   9.168   6.254
15156SI     SI115156   1.559   9.106   7.060
15157SI     SI115157   4.034   0.178   5.540
15158SI     SI115158   6.469   1.153   6.120
15159SI     SI115159   6.805   8.981   3.249
15160SI     SI115160   0.668   0.857   1.007
15161SI     SI115161   1.401   0.810   1.717
15162SI     SI115162   0.142   9.447   4.840
15163SI     SI115163   2.348   9.469   7.248
15164SI     SI115164   3.683   1.017   0.348
15165SI     SI115165   3.034   1.153   6.659
15166SI     SI115166   8.045   0.200   7.591
15167SI     SI115167   8.487   1.130   3.219
15168SI     SI115168   0.416   0.869   0.815
15169SI     SI115169   7.043   0.427   8.782
15170SI     SI115170   7.068   8.835   4.440
15171SI     SI115171   7.304   0.847   6.902
15172SI     SI115172   5.997   0.441   4.859
15173SI     SI115173   0.528   8.795   3.360
15174SI     SI115174   5.442   9.562   7.745
15175SI     SI115175   4.132   0.889   9.436
15176SI     SI115176   2.809   0.770   3.681
15177SI     SI115177   3.337   8.979   0.775
15178SI     SI115178   8.906   1.003   9.174
15179SI     SI115179   7.463   8.989   8.952
15180SI     SI115180   6.747   9.270   3.290
15181SI     SI115181   0.478   0.898   2.920
15182SI     SI115182   2.051   8.513   2.691
15183SI     SI115183   7.991   9.467   3.412
15184SI     SI115184   2.112   0.344   8.616
15185SI     SI115185   8.206   8.517   1.660
15186SI     SI115186   3.033   8.844   3.280
15187SI     SI115187   4.868   8.731   5.071
15188SI     SI115188   7.203   8.538   6.886
15189SI     SI115189   5.915   0.102   1.455
15190SI     SI115190   6.688   1.129   4.217
15191SI     SI115191   4.799   8.695   3.462
15192SI     SI115192   0.749   9.040   7.942
15193SI     SI115193   6.281   1.099   6.593
15194SI     SI115194   4.464   0.845   1.837
15195SI     SI115195   4.645   9.120   2.675
15196SI     SI115196   2.422   9.052   6.222
15197SI     SI115197   4.632   9.445   6.623
15198SI     SI115198   1.421   8.635   7.600
15199SI     SI115199   0.239   0.870   3.117
15200SI     SI115200   5.618   8.974   5.690
15201SI     SI115201   6.880   9.563   7.576
15202SI     SI115202   4.771   0.483   5.723
15203SI     SI115203   0.339   0.776   6.349
15204SI     SI115204   8.704   1.074   5.177
15205SI     SI115205   3.229   0.558   1.220
15206SI     SI115206   3.741   0.184   1.674
15207SI     SI115207   8.641   0.492   6.077
15208SI     SI115208   0.819   0.558   8.282
15209SI     SI115209   2.204   9.201   6.829
15210SI     SI115210   7.127   9.343   0.048
15211SI     SI115211   1.035   8.577   4.270
15212SI     SI115212   3.421   8.753   6.224
15213SI     SI115213   3.611   0.192   2.493
15214SI     SI115214   1.204   8.650   6.544
15215SI     SI115215   5.049   0.367   5.685
15216SI     SI115216   4.919   0.151   3.057
15217SI     SI115217   5.298   8.945   6.762
15218SI     SI115218   8.648   9.192   1.239
15219SI     SI115219   1.833   0.337   4.309
15220SI     SI115220   7.051   8.650   2.819
15221SI     SI115221   7.872   0.887   1.392
15222SI     SI115222   5.288   1.262   6.808
15223SI     SI115223   9.296   8.747   7.722
15224SI     SI115224   4.672   0.895   7.873
15225SI     SI115225   6.028   0.238   0.981
15226SI     SI115226   6.616   9.003   7.198
15227SI     SI115227   7.482   9.089   1.866
15228SI     SI115228   5.028   0.408   0.102
15229SI     SI115229   4.332   0.013   1.331
15230SI     SI115230   9.312   9.145   7.975
15231SI     SI115231   6.691   9.213   7.909
15232SI     SI115232   5.948   8.843   7.899
15233SI     SI115233   2.375   0.134   5.567
15234SI     SI115234   4.977   9.305   3.309
15235SI     SI115235   5.164   8.860   9.576
15236SI     SI115236   1.477   0.237   7.295
15237SI     SI115237   1.802   9.350   6.230
15238SI     SI115238   4.373   8.195   8.621
15239SI     SI115239   8.430   0.065   5.034
15240SI     SI115240   7.716   9.433   7.818
15241SI     SI115241   7.963   0.230   4.308
15242SI     SI115242   4.086   8.500   3.011
15243SI     SI115243   3.866   0.711   2.471
15244SI     SI115244   0.254   0.396   7.113
15245SI     SI115245   5.772   9.103   8.529
15246SI     SI115246   4.680   8.860   3.231
15247SI     SI115247   0.442   0.067   1.565
15248SI     SI115248   4.507   0.299   8.340
15249SI     SI115249   5.386   1.323   0.654
15250SI     SI115250   1.679   0.168   3.062
15251SI     SI115251   6.074   0.049   2.151
15252SI     SI115252   8.396   8.839   6.203
15253SI     SI115253   0.536   0.741   6.889
15254SI     SI115254   3.367   1.213   7.526
15255SI     SI115255   0.281   1.091   1.483
15256SI     SI115256   0.108   9.472   8.675
15257SI     SI115257   9.447   9.366   4.192
15258SI     SI115258   1.153   0.762   1.914
15259SI     SI115259   9.168   0.113   2.857
15260SI     SI115260   7.780   9.071   3.708
15261SI     SI115261   8.589   9.380   3.672
15262SI     SI115262   3.506   8.869   1.260
15263SI     SI115263   5.937   0.839   5.075
15264SI     SI115264   1.163   0.530   7.037
15265SI     SI115265   4.511   9.343   2.493
15266SI     SI115266   7.535   0.423   7.033
15267SI     SI115267   9.212   0.552   3.947
15268SI     SI115268   1.004   0.546   4.738
15269SI     SI115269   2.003   0.123   8.420
15270SI     SI115270   4.998   0.017   0.478
15271SI     SI115271   4.098   0.666   5.576
15272SI     SI115272   1.288   9.275   3.887
15273SI     SI115273   4.377   0.832   4.264
15274SI     SI115274   8.675   8.546   6.980
15275SI     SI115275   1.983   9.017   2.725
15276SI     SI115276   6.896   9.050   3.934
15277SI     SI115277   8.428   9.169   9.312
15278SI     SI115278   6.337   0.624   8.880
15279SI     SI115279   2.819   0.110   4.709
15280SI     SI115280   4.740   0.623   3.212
15281SI     SI115281   3.497   0.505   4.061
15282SI     SI115282   3.559   1.011   2.110
15283SI     SI115283   3.152   9.093   3.129
15284SI     SI115284   1.088   0.914   5.684
15285SI     SI115285   2.169   8.972   7.275
15286SI     SI115286   8.031   0.887   9.475
15287SI     SI115287   0.445   9.228   7.120
15288SI     SI115288   2.150   0.655   2.043
15289SI     SI115289   2.473   0.069   8.501
15290SI     SI115290   4.003   0.342   2.737
15291SI     SI115291   7.736   0.930   3.976
15292SI     SI115292   2.128   8.766   6.004
15293SI     SI115293   3.213   8.858   6.432
15294SI     SI115294   9.015   1.152   5.539
15295SI     SI115295   8.604   0.407   5.597
15296SI     SI115296   7.758   0.155   7.453
15297SI     SI115297   2.825   0.120   8.832
15298SI     SI115298   5.461   0.026   3.090
15299SI     SI115299   5.539   9.444   4.609
15300SI     SI115300   9.205   8.928   5.979
15301SI     SI115301   2.334   0.544   4.200
15302SI     SI115302   8.705   0.381   8.210
15303SI     SI115303   0.548   0.386   5.404
15304SI     SI115304   0.364   1.152   0.751
15305SI     SI115305   5.421   1.079   3.626
15306SI     SI115306   9.602   9.036   0.985
15307SI     SI115307   5.010   9.108   8.847
15308SI     SI115308   2.013   8.700   2.051
15309SI     SI115309   1.225   8.859   7.486
15310SI     SI115310   6.764   0.910   6.422
15311SI     SI115311   2.930   8.578   8.868
15312SI     SI115312   7.186   0.949   8.045
15313SI     SI115313   4.125   0.977   1.547
15314SI     SI115314   5.274   9.494   4.132
15315SI     SI115315   7.478   8.509   3.285
15316SI     SI115316   2.679   1.383   5.709
15317SI     SI115317   2.251   9.491   3.750
15318SI     SI115318   5.014   0.752   6.077
15319SI     SI115319   5.815   9.308   4.590
15320SI     SI115320   8.189   8.837   2.026
15321SI     SI115321   2.502   9.027   5.936
15322SI     SI115322   4.065   0.407   5.752
15323SI     SI115323   1.223   8.834   4.061
15324SI     SI115324   3.556   9.127   0.310
15325SI     SI115325   4.613   8.873   0.612
15326SI     SI115326   0.657   8.534   0.076
15327SI     SI115327   3.212   0.251   0.342
15328SI     SI115328   6.375   0.937   8.086
15329SI     SI115329   3.515   0.331   0.368
15330SI     SI115330   7.246   9.221   5.597
15331SI     SI115331   5.181   8.804   5.451
15332SI     SI115332   7.210   0.314   1.434
15333SI     SI115333   2.195   0.490   4.992
15334SI     SI115334   9.594   0.718   7.417
15335SI     SI115335   9.174   1.066   7.265
15336SI     SI115336   2.797   0.436   1.608
15337SI     SI115337   4.630   1.096   7.644
15338SI     SI115338   6.850   0.750   5.636
15339SI     SI115339   6.573   9.262   8.734
15340SI     SI115340   6.373   9.093   6.210
15341SI     SI115341   0.616   8.842   0.114
15342SI     SI115342   0.990   0.263   9.360
15343SI     SI115343   5.087   8.725   8.025
15344SI     SI115344   0.158   0.775   2.518
15345SI     SI115345   0.020   8.361   3.989
15346SI     SI115346   7.243   8.391   4.292
15347SI     SI115347   1.789   0.786   9.378
15348SI     SI115348   0.190   9.121   5.696
15349SI     SI115349   0.000   0.418   0.542
15350SI     SI115350   4.716   8.873   3.980
15351SI     SI115351   8.667   1.064   6.789
15352SI     SI115352   7.274   0.262   2.475
15353SI     SI115353   8.019   8.748   1.043
15354SI     SI115354   5.658   1.054   3.414
15355SI     SI115355   0.061   0.072   4.443
15356SI     SI115356   0.123   9.356   5.891
15357SI     SI115357   7.831   8.860   1.627
15358SI     SI115358   2.267   8.629   5.759
15359SI     SI115359   5.710   8.499   5.999
15360SI     SI115360   3.751   0.561   7.265
15361SI     SI115361   4.681   0.447   1.717
15362SI     SI115362   0.327   8.921   5.887
15363SI     SI115363   4.346   9.228   3.904
15364SI     SI115364   5.463   0.655   5.925
15365SI     SI115365   6.084   0.549   7.275
15366SI     SI115366   1.720   0.453   6.213
15367SI     SI115367   2.219   9.278   0.443
15368SI     SI115368   8.050   8.512   6.346
15369SI     SI115369   7.370   0.350   6.304
15370SI     SI115370   0.397   8.630   1.168
15371SI     SI115371   9.138   0.403   4.328
15372SI     SI115372   0.375   8.627   2.669
15373SI     SI115373   9.278   9.592   8.962
15374SI     SI115374   3.641   8.975   2.112
15375SI     SI115375   3.935   9.414   3.590
15376SI     SI115376   8.260   9.295   7.513
15377SI     SI115377   4.039   9.586   9.119
15378SI     SI115378   9.345   9.484   5.621
15379SI     SI115379   4.655   8.584   7.724
15380SI     SI115380   9.236   0.825   4.517
15381SI     SI115381   1.123   9.102   6.743
15382SI     SI115382   6.851   0.228   8.368
15383SI     SI115383   7.082   8.709   5.611
15384SI     SI115384   4.634   8.476   6.317
15385SI     SI115385   7.543   8.882   0.544
15386SI     SI115386   0.829   0.351   0.706
15387SI     SI115387   7.572   8.791   4.119
15388SI     SI115388   1.220   0.918   2.704
15389SI     SI115389   6.714   8.856   9.188
15390SI     SI115390   1.027   8.729   2.645
15391SI     SI115391   9.211   8.710   8.548
15392SI     SI115392   1.269   0.447   8.275
15393SI     SI115393   1.056   8.564   5.454
15394SI     SI115394   2.826   8.974   1.876
15395SI     SI115395   1.946   9.303   2.832
15396SI     SI115396   5.882   8.823   5.695
15397SI     SI115397   4.416   0.560   2.613
15398SI     SI115398   8.327   8.519   0.461
15399SI     SI115399   1.301   8.732   3.471
15400SI     SI115400   0.129   0.839   4.402
15401SI     SI115401   8.256   8.687   2.496
15402SI     SI115402   1.015   0.660   0.389
15403SI     SI115403   8.039   8.653   6.769
15404SI     SI115404   3.363   0.435   7.292
15405SI     SI115405   1.254   8.795   8.495
15406SI     SI115406   3.107   0.485   8.024
15407SI     SI115407   9.045   9.115   0.074
15408SI     SI115408   0.974   8.993   4.168
15409SI     SI115409   2.071   8.252   8.854
15410SI     SI115410   6.536   0.849   3.840
15411SI     SI115411   5.459   8.671   0.332
15412SI     SI115412   4.772   0.795   1.058
15413SI     SI115413   3.756   8.971   1.595
15414SI     SI115414   4.396   9.316   2.208
15415SI     SI115415   3.518   9.504   1.396
15416SI     SI115416   3.224   0.010   6.271
15417SI     SI115417   9.160   0.633   7.118
15418SI     SI115418   6.112   8.788   4.334
15419SI     SI115419   5.874   9.552   8.871
15420SI     SI115420   7.269   0.437   9.310
15421SI     SI115421   4.101   1.025   7.158
15422SI     SI115422   1.386   8.652   1.678
15423SI     SI115423   7.768   0.631   6.578
15424SI     SI115424   8.094   0.009   2.922
15425SI     SI115425   2.382   8.671   2.266
15426SI     SI115426   6.799   0.708   8.539
15427SI     SI115427   8.504   8.824   6.475
15428SI     SI115428   5.864   0.837   3.515
15429SI     SI115429   3.321   1.004   4.471
15430SI     SI115430   7.932   0.992   4.453
15431SI     SI115431   1.749   9.291   5.727
15432SI     SI115432   3.711   8.864   5.822
15433SI     SI115433   0.131   0.028   5.769
15434SI     SI115434   5.937   8.590   3.269
15435SI     SI115435   4.550   8.555   9.594
15436SI     SI115436   3.880   8.981   5.447
15437SI     SI115437   4.640   0.614   2.230
15438SI     SI115438   8.797   0.392   9.013
15439SI     SI115439   4.474   8.437   8.463
15440SI     SI115440   6.314   9.238   2.349
15441SI     SI115441   5.178   0.360   1.499
15442SI     SI115442   2.532   9.305   9.328
15443SI     SI115443   0.227   0.836   7.272
15444SI     SI115444   3.434   0.923   7.461
15445SI     SI115445   1.217   0.919   5.422
15446SI     SI115446   4.823   9.248   4.166
15447SI     SI115447   4.912   0.858   9.563
15448SI     SI115448   2.004   0.570   3.816
15449SI     SI115449   4.686   9.062   9.502
15450SI     SI115450   6.159   0.221   1.896
15451SI     SI115451   3.155   0.213   5.283
15452SI     SI115452   3.689   9.529   5.258
15453SI     SI115453   1.646   8.590   6.913
15454SI     SI115454   4.785   9.263   3.655
15455SI     SI115455   5.264   0.880   1.746
15456SI     SI115456   7.086   8.467   6.612
15457SI     SI115457   4.768   0.463   7.738
15458SI     SI115458   3.829   9.120   6.318
15459SI     SI115459   8.682   0.973   3.750
15460SI     SI115460   1.083   0.771   9.010
15461SI     SI115461   0.672   1.085   4.505
15462SI     SI115462   9.447   0.402   1.179
15463SI     SI115463   2.574   9.578   4.830
15464SI     SI115464   0.855   1.006   1.437
15465SI     SI115465   9.286   0.145   1.081
15466SI     SI115466   5.570   8.729   3.502
15467SI     SI115467   7.907   9.117   0.594
15468SI     SI115468   5.129   9.305   6.523
15469SI     SI115469   3.607   0.625   2.882
15470SI     SI115470   2.901   0.949   0.572
15471SI     SI115471   8.302   0.819   9.374
15472SI     SI115472   0.857   9.441   8.809
15473SI     SI115473   2.387   1.073   0.416
15474SI     SI115474   4.853   9.592   1.649
15475SI     SI115475   7.885   8.685   8.419
15476SI     SI115476   8.680   8.916   2.512
15477SI     SI115477   9.564   8.868   1.252
15478SI     SI115478   6.279   9.101   0.850
15479SI     SI115479   7.220   0.547   1.212
15480SI     SI115480   6.640   1.045   8.165
15481SI     SI115481   7.846   8.785   5.066
15482SI     SI115482   8.977   0.863   7.377
15483SI     SI115483   9.328   8.659   7.254
15484SI     SI115484   5.390   9.387   2.921
15485SI     SI115485   5.046   0.865   4.089
15486SI     SI115486   3.227   8.414   5.456
15487SI     SI115487   7.295   8.828   2.342
15488SI     SI115488   7.292   0.333   4.955
15489SI     SI115489   0.528   0.017   2.182
15490SI     SI115490   8.650   0.476   3.602
15491SI     SI115491   5.539   0.358   8.982
15492SI     SI115492   3.449   0.970   6.219
15493SI     SI115493   8.089   0.506   5.700
15494SI     SI115494   5.245   0.472   6.936
15495SI     SI115495   3.561   8.598   1.411
15496SI     SI115496   5.851   9.073   7.052
15497SI     SI115497   3.172   0.264   2.663
15498SI     SI115498   3.145   0.717   1.629
15499SI     SI115499   1.318   1.203   7.529
15500SI     SI115500   3.253   0.071   3.997
15501SI     SI115501   8.002   0.208   5.694
15502SI     SI115502   2.704   1.040   3.787
15503SI     SI115503   9.277   9.133   7.015
15504SI     SI115504   3.530   0.528   5.031
15505SI     SI115505   3.943   0.767   4.826
15506SI     SI115506   1.428   9.131   5.176
15507SI     SI115507   2.409   0.520   4.760
15508SI     SI115508   4.819   0.417   3.679
15509SI     SI115509   3.171   8.788   9.288
15510SI     SI115510   3.364   8.500   7.495
15511SI     SI115511   6.859   9.501   0.682
15512SI     SI115512   1.644   8.721   6.247
15513SI     SI115513   1.036   9.498   3.204
15514SI     SI115514   1.489   0.109   2.061
15515SI     SI115515   4.128   1.205   9.476
15516SI     SI115516   7.892   8.492   8.186
15517SI     SI115517   0.750   9.162   8.710
15518SI     SI115518   9.316   8.402   0.284
15519SI     SI115519   3.977   9.186   6.069
15520SI     SI115520   5.566   9.485   9.239
15521SI     SI115521   7.211   9.089   9.511
15522SI     SI115522   2.366   8.605   8.101
15523SI     SI115523   8.768   0.872   4.023
15524SI     SI115524   6.230   8.865   6.048
15525SI     SI115525   6.816   0.802   9.272
15526SI     SI115526   7.008   8.549   3.773
15527SI     SI115527   3.124   8.408   3.879
15528SI     SI115528   6.975   0.261   4.345
15529SI     SI115529   7.458   8.977   6.400
15530SI     SI115530   3.155   1.132   9.584
15531SI     SI115531   6.970   0.553   6.509
15532SI     SI115532   2.748   0.844   7.353
15533SI     SI115533   9.401   9.380   6.888
15534SI     SI115534   4.850   9.414   7.268
15535SI     SI115535   4.807   0.209   6.975
15536SI     SI115536   9.053   8.740   1.415
15537SI     SI115537   6.027   0.976   3.729
15538SI     SI115538   1.276   0.221   1.097
15539SI     SI115539   1.028   1.033   2.025
15540SI     SI115540   9.309   8.624   5.566
15541SI     SI115541   7.592   0.865   5.092
15542SI     SI115542   2.438   1.112   6.006
15543SI     SI115543   2.200   9.314   0.151
15544SI     SI115544   8.979   0.772   3.128
15545SI     SI115545   8.932   0.156   9.394
15546SI     SI115546   7.603   0.534   4.176
15547SI     SI115547   1.774   9.541   6.872
15548SI     SI115548   8.891   1.083   4.214
15549SI     SI115549   9.506   8.673   7.511
15550SI     SI115550   4.404   1.119   0.172
15551SI     SI115551   5.282   9.225   8.458
15552SI     SI115552   9.099   0.341   7.195
15553SI     SI115553   8.887   9.244   3.277
15554SI     SI115554   5.242   0.343   2.234
15555SI     SI115555   6.294   9.144   4.614
15556SI     SI115556   4.541   0.190   3.510
15557SI     SI115557   1.426   1.126   1.761
15558SI     SI115558   0.116   8.588   3.073
15559SI     SI115559   0.171   0.104   8.877
15560SI     SI115560   6.877   9.162   2.358
15561SI     SI115561   6.948   0.561   4.409
15562SI     SI115562   5.222   8.387   5.101
15563SI     SI115563   3.696   8.721   6.992
15564SI     SI115564   2.420   9.299   8.796
15565SI     SI115565   8.655   0.735   2.641
15566SI     SI115566   2.886   0.435   5.817
15567SI     SI115567   6.141   8.693   0.783
15568SI     SI115568   8.420   0.990   1.310
15569SI     SI115569   5.072   8.812   4.839
15570SI     SI115570   1.295   9.233   2.450
15571SI     SI115571   8.692   0.627   6.574
15572SI     SI115572   4.816   0.386   6.156
15573SI     SI115573   2.010   9.177   7.400
15574SI     SI115574   3.806   8.577   5.896
15575SI     SI115575   7.332   1.094   9.193
15576SI     SI115576   2.349   0.778   2.493
15577SI     SI115577   1.375   0.485   9.603
15578SI     SI115578   4.551   0.307   5.226
15579SI     SI115579   4.371   8.555   4.301
15580SI     SI115580   7.931   0.627   1.266
15581SI     SI115581   4.282   0.054   4.313
15582SI     SI115582   6.827   8.990   4.463
15583SI     SI115583   3.871   1.006   6.473
15584SI     SI115584   0.614   9.298   4.190
15585SI     SI115585   5.391   9.465   6.520
15586SI     SI115586   2.224   8.755   5.234
15587SI     SI115587   8.472   0.831   0.020
15588SI     SI115588   4.291   9.269   6.905
15589SI     SI115589   7.045   0.204   5.103
15590SI     SI115590   0.774   1.098   8.734
15591SI     SI115591   1.298   0.989   0.205
15592SI     SI115592   9.137   0.637   7.539
15593SI     SI115593   2.432   9.106   1.042
15594SI     SI115594   1.230   0.548   2.139
15595SI     SI115595   1.822   0.625   4.198
15596SI     SI115596   8.303   0.044   9.528
15597SI     SI115597   6.333   0.616   1.444
15598SI     SI115598   4.071   0.431   8.518
15599SI     SI115599   0.916   0.117   4.216
15600SI     SI115600   7.393   0.807   3.030
15601SI     SI115601   8.923   8.763   8.998
15602SI     SI115602   3.018   9.041   5.695
15603SI     SI115603   4.842   8.666   7.282
15604SI     SI115604   0.388   0.278   8.016
15605SI     SI115605   5.968   8.603   2.702
15606SI     SI115606   3.166   8.528   6.753
15607SI     SI115607   1.445   1.112   2.648
15608SI     SI115608   1.515   0.796   8.092
15609SI     SI115609   1.802   0.806   2.345
15610SI     SI115610   5.751   8.488   2.283
15611SI     SI115611   0.647   0.773   2.275
15612SI     SI115612   0.937   1.220   4.412
15613SI     SI115613   2.675   0.025   5.107
15614SI     SI115614   2.219   0.537   7.486
15615SI     SI115615   0.889   9.160   8.424
15616SI     SI115616   8.741   1.030   0.560
15617SI     SI115617   5.872   8.695   1.204
15618SI     SI115618   8.424   9.044   8.050
15619SI     SI115619   5.572   9.486   7.485
15620SI     SI115620   6.838   0.547   1.698
15621SI     SI115621   8.509   8.476   7.471
15622SI     SI115622   7.048   8.398   6.047
15623SI     SI115623   7.772   0.122   3.885
15624SI     SI115624   5.369   8.837   0.567
15625SI     SI115625   7.295   9.370   2.536
15626SI     SI115626   2.454   8.390   7.594
15627SI     SI115627   2.379   0.101   2.851
15628SI     SI115628   0.425   9.574   4.873
15629SI     SI115629   2.682   0.678   8.641
15630SI     SI115630   4.531   0.324   2.185
15631SI     SI115631   3.784   8.610   7.435
15632SI     SI115632   2.696   8.774   7.760
15633SI     SI115633   0.239   0.847   1.910
15634SI     SI115634   6.271   9.512   4.349
15635SI     SI115635   9.021   9.023   0.992
15636SI     SI115636   1.301   8.519   2.207
15637SI     SI115637   3.183   0.466   4.002
15638SI     SI115638   9.470   0.875   4.731
15639SI     SI115639   6.589   0.878   3.545
15640SI     SI115640   9.298   1.198   7.763
15641SI     SI115641   5.784   1.085   5.972
15642SI     SI115642   5.432   0.845   7.021
15643SI     SI115643   8.831   0.886   8.120
15644SI     SI115644   6.411   0.914   0.417
15645SI     SI115645   0.786   0.489   3.439
15646SI     SI115646   5.567   8.712   1.184
15647SI     SI115647   1.631   8.225   3.098
15648SI     SI115648   1.023   0.515   8.649
15649SI     SI115649   2.134   0.147   4.731
15650SI     SI115650   4.874   0.848   1.552
15651SI     SI115651   3.775   0.422   5.882
15652SI     SI115652   6.393   1.258   1.165
15653SI     SI115653   4.590   8.438   0.716
15654SI     SI115654   3.533   0.434   0.660
15655SI     SI115655   1.834   0.138   6.647
15656SI     SI115656   7.967   9.150   2.314
15657SI     SI115657   8.193   0.861   6.967
15658SI     SI115658   3.003   0.864   5.601
15659SI     SI115659   5.254   8.420   5.920
15660SI     SI115660   3.864   8.665   8.789
15661SI     SI115661   3.830   0.265   2.127
15662SI     SI115662   8.432   0.302   6.926
15663SI     SI115663   7.347   0.177   8.437
15664SI     SI115664   2.866   8.538   1.657
15665SI     SI115665   6.890   9.442   3.652
15666SI     SI115666   8.697   1.013   6.068
15667SI     SI115667   6.477   9.231   5.955
15668SI     SI115668   6.834   0.768   1.480
15669SI     SI115669   9.379   9.575   3.771
15670SI     SI115670   7.077   8.551   8.400
15671SI     SI115671   8.612   0.785   5.119
15672SI     SI115672   4.582   9.389   5.111
15673SI     SI115673   6.300   8.999   7.187
15674SI     SI115674   2.901   1.118   5.441
15675SI     SI115675   3.059   0.325   1.480
15676SI     SI115676   2.272   8.948   2.673
15677SI     SI115677   5.069   0.567   8.767
15678SI     SI115678   2.919   9.448   5.199
15679SI     SI115679   2.460   0.783   3.023
15680SI     SI115680   5.674   9.540   7.953
15681SI     SI115681   0.165   0.315   0.304
15682SI     SI115682   3.862   0.814   9.541
15683SI     SI115683   4.178   0.742   0.366
15684SI     SI115684   6.248   1.042   6.289
15685SI     SI115685   4.285   0.603   1.895
15686SI     SI115686   2.854   0.507   7.492
15687SI     SI115687   4.825   8.484   9.486
15688SI     SI115688   2.411   0.640   1.862
15689SI     SI115689   8.605   0.565   1.306
15690SI     SI115690   6.608   0.369   9.114
15691SI     SI115691   1.450   8.657   3.224
15692SI     SI115692   5.674   0.873   6.136
15693SI     SI115693   0.358   8.754   9.191
15694SI     SI115694   4.172   8.604   6.318
15695SI     SI115695   5.465   0.286   3.958
15696SI     SI115696   7.079   8.673   4.682
15697SI     SI115697   4.728   8.448   5.109
15698SI     SI115698   9.544   0.895   0.155
15699SI     SI115699   1.881   0.604   4.768
15700SI     SI115700   2.454   8.631   3.322
15701SI     SI115701   2.811   0.256   3.735
15702SI     SI115702   7.080   0.780   7.575
15703SI     SI115703   1.075   8.567   8.597
15704SI     SI115704   3.887   9.331   7.150
15705SI     SI115705   1.840   0.408   6.801
15706SI     SI115706   2.489   8.773   4.617
15707SI     SI115707   0.633   9.431   7.258
15708SI     SI115708   5.533   9.472   1.164
15709SI     SI115709   6.933   0.157   6.968
15710SI     SI115710   5.832   9.442   3.259
15711SI     SI115711   7.317   8.511   1.144
15712SI     SI115712   2.922   1.133   1.510
15713SI     SI115713   7.485   0.237   2.027
15714SI     SI115714   2.252   9.298   8.096
15715SI     SI115715   3.510   0.303   8.955
15716SI     SI115716   6.781   0.597   0.525
15717SI     SI115717   6.979   8.845   6.083
15718SI     SI115718   8.676   9.086   6.842
15719SI     SI115719   8.223   8.751   5.448
15720SI     SI115720   3.615   8.613   6.714
15721SI     SI115721   2.852   8.676   8.007
15722SI     SI115722   7.220   8.699   7.346
15723SI     SI115723   8.416   0.802   5.361
15724SI     SI115724   8.458   9.213   2.819
15725SI     SI115725   4.769   8.842   4.444
15726SI     SI115726   8.381   9.343   8.041
15727SI     SI115727   5.136   1.148   4.405
15728SI     SI115728   0.116   8.901   3.115
15729SI     SI115729   6.905   0.876   3.567
15730SI     SI115730   1.526   8.256   1.837
15731SI     SI115731   6.413   8.672   3.360
15732SI     SI115732   3.354   0.688   8.802
15733SI     SI115733   2.823   8.759   6.197
15734SI     SI115734   4.057   9.200   7.659
15735SI     SI115735   6.606   0.924   9.088
15736SI     SI115736   5.031   0.116   5.087
15737SI     SI115737   2.444   9.599   0.920
15738SI     SI115738   1.727   9.066   1.469
15739SI     SI115739   8.096   0.539   3.884
15740SI     SI115740   7.138   0.729   4.271
15741SI     SI115741   7.758   1.041   6.777
15742SI     SI115742   0.176   8.997   2.235
15743SI     SI115743   4.236   0.583   7.829
15744SI     SI115744   2.359   9.386   8.507
15745SI     SI115745   6.307   9.156   0.181
15746SI     SI115746   2.566   0.187   5.318
15747SI     SI115747   0.404   0.853   8.913
15748SI     SI115748   2.474   8.451   0.725
15749SI     SI115749   2.748   9.135   4.925
15750SI     SI115750   1.056   0.318   2.243
15751SI     SI115751   4.930   9.213   8.125
15752SI     SI115752   2.933   9.267   2.997
15753SI     SI115753   4.224   0.908   8.639
15754SI     SI115754   5.265   0.852   6.510
15755SI     SI115755   8.958   8.750   1.123
15756SI     SI115756   8.020   9.378   5.826
15757SI     SI115757   8.094   0.808   0.735
15758SI     SI115758   8.534   8.399   3.577
15759SI     SI115759   9.464   9.588   0.083
15760SI     SI115760   0.844   8.844   1.672
15761SI     SI115761   7.764   0.111   8.150
15762SI     SI115762   7.736   9.074   5.162
15763SI     SI115763   5.608   0.225   2.720
15764SI     SI115764   5.575   8.448   8.236
15765SI     SI115765   6.132   9.248   1.870
15766SI     SI115766   0.856   9.550   0.389
15767SI     SI115767   4.390   0.562   8.829
15768SI     SI115768   2.138   1.143   6.734
15769SI     SI115769   2.793   0.085   9.605
15770SI     SI115770   4.904   8.789   5.360
15771SI     SI115771   6.839   0.031   2.211
15772SI     SI115772   7.782   0.167   5.212
15773SI     SI115773   1.385   8.926   4.950
15774SI     SI115774   8.324   0.541   4.095
15775SI     SI115775   8.963   0.202   8.283
15776SI     SI115776   8.582   8.516   6.429
15777SI     SI115777   0.716   0.785   4.476
15778SI     SI115778   6.612   8.932   7.498
15779SI     SI115779   7.118   9.527   7.060
15780SI     SI115780   8.921   0.112   3.904
15781SI     SI115781   8.367   0.857   7.669
15782SI     SI115782   3.739   9.389   4.724
15783SI     SI115783   5.363   0.180   6.873
15784SI     SI115784   5.902   0.114   0.002
15785SI     SI115785   3.272   0.450   4.886
15786SI     SI115786   5.871   8.532   6.580
15787SI     SI115787   2.789   1.022   1.755
15788SI     SI115788   7.190   0.629   4.922
15789SI     SI115789   9.023   1.075   1.329
15790SI     SI115790   4.471   0.594   6.052
15791SI     SI115791   7.833   1.065   7.516
15792SI     SI115792   6.348   0.655   6.855
15793SI     SI115793   8.665   8.623   2.146
15794SI     SI115794   7.591   9.413   9.576
15795SI     SI115795   5.514   1.140   6.995
15796SI     SI115796   0.332   8.592   8.318
15797SI     SI115797   7.456   1.188   3.765
15798SI     SI115798   2.047   0.685   5.427
15799SI     SI115799   6.280   0.341   8.777
15800SI     SI115800   7.421   1.236   5.340
15801SI     SI115801   2.792   0.930   8.488
15802SI     SI115802   1.659   0.968   7.867
15803SI     SI115803   7.543   8.871   0.863
15804SI     SI115804   0.728   9.339   1.781
15805SI     SI115805   6.644   0.389   7.835
15806SI     SI115806   5.359   0.487   7.229
15807SI     SI115807   3.956   0.455   3.754
15808SI     SI115808   7.643   1.012   6.014
15809SI     SI115809   0.281   0.118   3.602
15810SI     SI115810   4.736   1.053   7.344
15811SI     SI115811   6.103   9.386   4.565
15812SI     SI115812   4.197   1.096   4.812
15813SI     SI115813   5.104   0.575   2.545
15814SI     SI115814   1.050   9.422   4.847
15815SI     SI115815   7.611   0.154   7.175
15816SI     SI115816   3.180   1.291   1.520
15817SI     SI115817   6.640   1.141   5.425
15818SI     SI115818   4.580   0.770   0.813
15819SI     SI115819   0.370   0.718   0.292
15820SI     SI115820   0.853   8.438   1.394
15821SI     SI115821   1.352   9.430   8.560
15822SI     SI115822   1.738   0.979   6.403
15823SI     SI115823   9.259   9.454   8.492
15824SI     SI115824   6.001   0.260   7.353
15825SI     SI115825   7.660   9.468   7.515
15826SI     SI115826   2.841   1.125   4.381
15827SI     SI115827   5.729   8.862   2.243
15828SI     SI115828   7.350   0.084   6.134
15829SI     SI115829   6.545   9.437   8.497
15830SI     SI115830   9.257   8.963   3.123
15831SI     SI115831   7.621   9.079   9.203
15832SI     SI115832   9.385   8.481   4.447
15833SI     SI115833   1.013   8.894   8.008
15834SI     SI115834   6.346   0.392   4.021
15835SI     SI115835   4.471   0.914   3.578
15836SI     SI115836   0.537   9.103   1.288
15837SI     SI115837   0.666   8.926   7.505
15838SI     SI115838   4.991   0.739   6.391
15839SI     SI115839   3.069   9.518   2.886
15840SI     SI115840   5.422   1.221   2.276
15841SI     SI115841   5.269   0.860   5.553
15842SI     SI115842   5.389   8.382   8.719
15843SI     SI115843   8.476   0.767   4.453
15844SI     SI115844   5.177   9.354   8.068
15845SI     SI115845   0.370   0.455   2.866
15846SI     SI115846   4.474   0.332   0.100
15847SI     SI115847   0.738   8.377   0.969
15848SI     SI115848   0.730   0.413   1.894
15849SI     SI115849   7.792   0.052   9.577
15850SI     SI115850   6.533   0.849   7.007
15851SI     SI115851   3.199   8.779   7.807
15852SI     SI115852   1.717   8.562   5.779
15853SI     SI115853   1.662   0.688   1.852
15854SI     SI115854   3.878   0.656   5.358
15855SI     SI115855   6.361   0.081   2.657
15856SI     SI115856   8.736   0.220   0.261
15857SI     SI115857   7.821   0.884   5.450
15858SI     SI115858   5.911   9.458   6.224
15859SI     SI115859   9.017   0.312   8.804
15860SI     SI115860   4.101   0.215   7.113
15861SI     SI115861   4.226   0.098   9.327
15862SI     SI115862   1.633   9.593   7.356
15863SI     SI115863   9.071   0.618   2.595
15864SI     SI115864   8.541   9.200   0.767
15865SI     SI115865   8.484   0.791   1.768
15866SI     SI115866   5.332   9.293   7.832
15867SI     SI115867   9.216   9.228   0.606
15868SI     SI115868   1.782   8.395   0.496
15869SI     SI115869   6.457   0.950   1.116
15870SI     SI115870   2.127   0.069   1.356
15871SI     SI115871   1.436   0.069   3.346
15872SI     SI115872   0.931   9.355   7.660
15873SI     SI115873   8.495   8.928   1.304
15874SI     SI115874   1.921   1.081   0.638
15875SI     SI115875   0.979   0.081   5.423
15876SI     SI115876   4.804   0.312   5.043
15877SI     SI115877   7.089   0.168   5.993
15878SI     SI115878   5.767   8.715   2.502
15879SI     SI115879   2.027   9.350   0.676
15880SI     SI115880   0.837   8.662   8.342
15881SI     SI115881   8.604   8.951   8.554
15882SI     SI115882   3.341   9.422   0.973
15883SI     SI115883   8.545   9.091   3.546
15884SI     SI115884   7.009   8.888   0.040
15885SI     SI115885   9.597   0.596   4.820
15886SI     SI115886   2.934   9.189   0.948
15887SI     SI115887   2.433   0.230   4.708
15888SI     SI115888   8.286   0.456   9.549
15889SI     SI115889   4.084   8.385   0.581
15890SI     SI115890   8.869   8.856   3.921
15891SI     SI115891   4.529   0.389   9.037
15892SI     SI115892   7.236   0.729   3.779
15893SI     SI115893   3.119   9.418   8.268
15894SI     SI115894   6.752   0.239   6.725
15895SI     SI115895   5.638   0.649   4.087
15896SI     SI115896   0.588   8.427   8.743
15897SI     SI115897   6.838   0.507   9.235
15898SI     SI115898   8.466   1.086   8.575
15899SI     SI115899   7.098   8.862   5.342
15900SI     SI115900   4.688   1.162   8.548
15901SI     SI115901   6.687   9.418   6.071
15902SI     SI115902   7.427   0.823   4.838
15903SI     SI115903   5.481   9.253   6.331
15904SI     SI115904   1.689   9.210   1.026
15905SI     SI115905   1.153   0.327   5.436
15906SI     SI115906   2.804   0.766   4.915
15907SI     SI115907   0.658   8.336   0.489
15908SI     SI115908   2.263   9.499   6.128
15909SI     SI115909   5.543   0.943   4.146
15910SI     SI115910   5.230   9.080   0.420
15911SI     SI115911   7.173   9.167   0.480
15912SI     SI115912   1.467   0.361   5.434
15913SI     SI115913   0.897   0.647   6.634
15914SI     SI115914   6.956   0.112   0.504
15915SI     SI115915   9.385   0.978   4.114
15916SI     SI115916   5.491   0.390   1.476
15917SI     SI115917   3.804   0.643   1.821
15918SI     SI115918   2.421   8.942   3.672
15919SI     SI115919   6.338   0.278   0.958
15920SI     SI115920   1.728   9.104   1.977
15921SI     SI115921   8.494   8.562   1.625
15922SI     SI115922   4.588   0.184   1.259
15923SI     SI115923   0.771   8.548   1.663
15924SI     SI115924   7.240   9.237   1.472
15925SI     SI115925   0.906   8.620   7.176
15926SI     SI115926   5.752   0.387   5.342
15927SI     SI115927   6.695   8.806   2.037
15928SI     SI115928   2.928   0.456   3.259
15929SI     SI115929   5.459   8.576   4.480
15930SI     SI115930   8.637   9.246   4.948
15931SI     SI115931   0.259   0.701   7.873
15932SI     SI115932   8.408   9.354   9.554
15933SI     SI115933   1.494   0.029   0.259
15934SI     SI115934   5.147   0.505   2.009
15935SI     SI115935   7.356   0.608   5.861
15936SI     SI115936   1.352   0.913   3.535
15937SI     SI115937   2.354   8.486   9.178
15938SI     SI115938   3.782   9.599   5.557
15939SI     SI115939   9.033   9.009   8.836
15940SI     SI115940   1.092   0.226   7.012
15941SI     SI115941   7.598   1.010   2.017
15942SI     SI115942   6.593   0.592   4.027
15943SI     SI115943   1.003   8.955   3.668
15944SI     SI115944   3.814   1.183   1.001
15945SI     SI115945   1.990   8.962   5.594
15946SI     SI115946   7.610   8.478   8.067
15947SI     SI115947   5.672   0.051   6.151
15948SI     SI115948   9.163   1.078   2.277
15949SI     SI115949   3.840   9.537   6.519
15950SI     SI115950   6.063   0.293   9.156
15951SI     SI115951   3.347   0.664   5.397
15952SI     SI115952   2.564   9.081   2.972
15953SI     SI115953   4.345   0.386   6.802
15954SI     SI115954   2.161   0.569   6.106
15955SI     SI115955   3.519   9.039   8.766
15956SI     SI115956   0.823   8.459   4.623
15957SI     SI115957   4.992   9.054   6.043
15958SI     SI115958   1.387   1.206   7.233
15959SI     SI115959   8.191   8.940   2.322
15960SI     SI115960   7.176   9.498   4.583
15961SI     SI115961   1.605   0.432   1.753
15962SI     SI115962   3.970   1.195   3.664
15963SI     SI115963   4.328   9.103   4.364
15964SI     SI115964   1.127   8.617   9.399
15965SI     SI115965   5.065   1.084   8.690
15966SI     SI115966   7.286   9.194   8.806
15967SI     SI115967   4.096   9.127   6.473
15968SI     SI115968   5.751   0.095   3.129
15969SI     SI115969   8.336   0.107   6.702
15970SI     SI115970   4.330   9.149   3.592
15971SI     SI115971   0.968   0.940   8.003
15972SI     SI115972   0.518   0.833   7.948
15973SI     SI115973   1.159   0.510   4.285
15974SI     SI115974   2.535   0.325   6.215
15975SI     SI115975   2.797   8.441   2.960
15976SI     SI115976   4.831   8.740   2.378
15977SI     SI115977   6.805   0.464   2.939
15978SI     SI115978   6.084   0.180   4.695
15979SI     SI115979   4.876   9.471   5.202
15980SI     SI115980   1.901   0.850   7.060
15981SI     SI115981   1.530   9.585   9.091
15982SI     SI115982   3.843   0.055   4.601
15983SI     SI115983   5.425   8.509   9.134
15984SI     SI115984   5.130   0.137   1.276
15985SI     SI115985   8.326   9.483   5.484
15986SI     SI115986   9.497   9.257   1.146
15987SI     SI115987   5.418   9.270   8.743
15988SI     SI115988   3.081   0.420   3.706
15989SI     SI115989   9.091   8.415   9.489
15990SI     SI115990   3.032   9.297   2.396
15991SI     SI115991   7.357   0.661   8.584
15992SI     SI115992   7.833   0.455   0.143
15993SI     SI115993   8.031   9.200   3.571
15994SI     SI115994   7.887   0.806   6.944
15995SI     SI115995   4.201   0.967   5.081
15996SI     SI115996   5.937   9.555   7.012
15997SI     SI115997   0.670   0.369   6.087
15998SI     SI115998   7.955   0.620   8.947
15999SI     SI115999   6.152   9.293   3.867
16000SI     SI116000   5.205   8.399   0.948
16001SI     SI116001   8.406   0.034   4.050
16002SI     SI116002   3.562   0.533   7.740
16003SI     SI116003   7.657   0.927   0.884
16004SI     SI116004   5.521   0.642   4.953
16005SI     SI116005   7.513   0.408   3.144
16006SI     SI116006   8.389   9.178   8.581
16007SI     SI116007   1.504   8.461   4.315
16008SI     SI116008   5.659   8.914   3.293
16009SI     SI116009   4.583   0.965   9.218
16010SI     SI116010   9.540   8.652   4.828
16011SI     SI116011   5.552   0.944   1.029
16012SI     SI116012   7.098   8.888   3.295
16013SI     SI116013   1.548   0.584   1.269
16014SI     SI116014   4.956   0.694   4.512
16015SI     SI116015   4.818   0.626   5.089
16016SI     SI116016   8.383   8.528   8.871
16017SI     SI116017   6.010   8.417   1.210
16018SI     SI116018   4.024   0.633   2.052
16019SI     SI116019   9.510   0.128   8.201
16020SI     SI116020   7.225   8.803   3.031
16021SI     SI116021   1.861   9.051   7.897
16022SI     SI116022   3.218   9.440   2.615
16023SI     SI116023   1.306   1.135   4.014
16024SI     SI116024   8.119   9.268   8.668
16025SI     SI116025   8.110   1.153   4.267
16026SI     SI116026   7.913   0.580   2.543
16027SI     SI116027   9.104   9.453   8.753
16028SI     SI116028   3.975   1.288   4.848
16029SI     SI116029   5.372   8.715   2.855
16030SI     SI116030   1.505   8.936   5.405
16031SI     SI116031   2.613   0.673   9.423
16032SI     SI116032   7.631   8.760   6.276
16033SI     SI116033   9.009   0.763   0.069
16034SI     SI116034   1.997   8.374   6.156
16035SI     SI116035   6.260   9.410   2.105
16036SI     SI116036   7.776   0.278   3.269
16037SI     SI116037   5.734   0.887   2.774
16038SI     SI116038   4.098   0.200   8.129
16039SI     SI116039   6.034   9.523   3.493
16040SI     SI116040   1.781   9.523   3.191
16041SI     SI116041   7.559   1.215   9.367
16042SI     SI116042   2.520   9.391   1.472
16043SI     SI116043   2.287   0.879   6.762
16044SI     SI116044   0.991   0.027   6.118
16045SI     SI116045   9.490   8.776   5.088
16046SI     SI116046   5.965   9.352   6.497
16047SI     SI116047   7.626   0.243   8.385
16048SI     SI116048   8.588   8.831   3.076
16049SI     SI116049   7.259   1.225   0.935
16050SI     SI116050   5.081   0.239   7.532
16051SI     SI116051   9.288   8.612   6.490
16052SI     SI116052   4.040   0.534   7.131
16053SI     SI116053   3.628   9.071   7.837
16054SI     SI116054   7.736   9.354   8.683
16055SI     SI116055   9.109   0.781   8.210
16056SI     SI116056   3.301   9.292   3.550
16057SI     SI116057   6.695   1.211   2.395
16058SI     SI116058   3.866   0.056   6.238
16059SI     SI116059   9.598   9.461   1.604
16060SI     SI116060   2.149   8.858   0.668
16061SI     SI116061   4.617   8.863   8.079
16062SI     SI116062   3.484   8.616   5.065
16063SI     SI116063   8.780   0.307   2.653
16064SI     SI116064   5.303   0.423   5.029
16065SI     SI116065   2.383   0.358   8.775
16066SI     SI116066   0.082   9.382   6.844
16067SI     SI116067   1.870   0.969   0.928
16068SI     SI116068   5.636   0.546   6.718
16069SI     SI116069   1.356   1.208   3.603
16070SI     SI116070   7.887   8.939   4.569
16071SI     SI116071   8.536   8.787   5.480
16072SI     SI116072   4.367   1.242   7.563
16073SI     SI116073   1.925   8.690   4.389
16074SI     SI116074   3.108   9.516   1.957
16075SI     SI116075   3.826   8.671   5.445
16076SI     SI116076   9.555   0.739   1.860
16077SI     SI116077   9.350   0.284   1.813
16078SI     SI116078   6.400   0.038   7.636
16079SI     SI116079   7.750   0.312   2.496
16080SI     SI116080   6.387   0.452   3.538
16081SI     SI116081   0.579   1.121   0.186
16082SI     SI116082   7.071   0.930   4.498
16083SI     SI116083   4.834   9.526   7.753
16084SI     SI116084   8.010   0.596   9.522
16085SI     SI116085   6.801   9.067   5.693
16086SI     SI116086   1.446   9.457   1.575
16087SI     SI116087   7.835   8.428   4.680
16088SI     SI116088   8.615   0.068   7.028
16089SI     SI116089   3.017   8.661   5.965
16090SI     SI116090   3.875   8.546   7.159
16091SI     SI116091   4.526   9.460   8.438
16092SI     SI116092   0.908   0.473   3.934
16093SI     SI116093   8.461   0.861   7.264
16094SI     SI116094   1.805   0.009   0.310
16095SI     SI116095   4.867   8.338   6.476
16096SI     SI116096   6.672   8.918   3.528
16097SI     SI116097   5.514   9.009   1.290
16098SI     SI116098   5.311   0.597   5.398
16099SI     SI116099   5.017   0.791   6.822
16100SI     SI116100   5.480   1.150   4.747
16101SI     SI116101   5.232   0.180   7.792
16102SI     SI116102   8.239   9.146   1.685
16103SI     SI116103   2.955   0.660   1.234
16104SI     SI116104   2.879   8.581   3.959
16105SI     SI116105   5.957   0.991   0.663
16106SI     SI116106   4.700   8.552   1.451
16107SI     SI116107   1.851   0.095   5.878
16108SI     SI116108   3.900   9.322   5.149
16109SI     SI116109   9.169   9.449   0.808
16110SI     SI116110   1.300   0.331   7.534
16111SI     SI116111   6.475   8.897   0.159
16112SI     SI116112   7.243   8.863   0.511
16113SI     SI116113   9.473   9.080   4.776
16114SI     SI116114   1.685   0.194   6.373
16115SI     SI116115   4.767   8.415   4.149
16116SI     SI116116   7.029   8.506   7.862
16117SI     SI116117   6.627   0.194   5.243
16118SI     SI116118   8.369   9.073   6.006
16119SI     SI116119   9.576   0.607   6.544
16120SI     SI116120   6.161   8.560   3.636
16121SI     SI116121   4.548   0.098   5.464
16122SI     SI116122   8.166   0.878   8.335
16123SI     SI116123   5.350   8.929   8.442
16124SI     SI116124   3.591   9.354   8.258
16125SI     SI116125   5.247   0.964   7.525
16126SI     SI116126   2.699   0.976   7.858
16127SI     SI116127   1.498   9.429   1.986
16128SI     SI116128   2.197   9.461   8.960
16129SI     SI116129   9.281   0.588   0.440
16130SI     SI116130   2.526   9.596   9.463
16131SI     SI116131   4.470   1.069   1.353
16132SI     SI116132   2.643   9.535   1.713
16133SI     SI116133   0.881   1.182   7.812
16134SI     SI116134   7.500   8.458   8.696
16135SI     SI116135   0.454   8.564   7.069
16136SI     SI116136   7.760   0.977   9.342
16137SI     SI116137   3.421   0.788   7.725
16138SI     SI116138   6.542   0.837   1.380
16139SI     SI116139   8.162   9.094   1.397
16140SI     SI116140   7.531   9.256   6.274
16141SI     SI116141   0.746   8.872   2.702
16142SI     SI116142   3.850   9.176   8.299
16143SI     SI116143   2.319   0.453   8.206
16144SI     SI116144   7.751   9.237   7.329
16145SI     SI116145   0.651   8.668   5.766
16146SI     SI116146   0.991   0.067   8.441
16147SI     SI116147   8.193   8.608   8.203
16148SI     SI116148   6.804   0.506   3.241
16149SI     SI116149   5.689   0.472   5.795
16150SI     SI116150   1.485   0.136   1.483
16151SI     SI116151   5.579   8.397   7.204
16152SI     SI116152   3.356   8.830   5.238
16153SI     SI116153   8.770   0.672   2.194
16154SI     SI116154   0.984   0.536   5.289
16155SI     SI116155   0.680   8.765   7.031
16156SI     SI116156   7.043   8.651   1.450
16157SI     SI116157   0.602   9.058   5.931
16158SI     SI116158   4.909   8.411   9.011
16159SI     SI116159   6.580   0.062   3.452
16160SI     SI116160   8.858   0.328   7.808
16161SI     SI116161   1.374   0.907   6.869
16162SI     SI116162   1.906   9.481   8.849
16163SI     SI116163   4.016   9.219   2.683
16164SI     SI116164   6.211   8.845   3.758
16165SI     SI116165   6.977   9.324   5.080
16166SI     SI116166   4.563   9.565   7.896
16167SI     SI116167   8.071   8.971   8.954
16168SI     SI116168   2.437   0.323   1.872
16169SI     SI116169   2.126   8.823   0.200
16170SI     SI116170   5.343   0.232   4.797
16171SI     SI116171   6.606   8.560   1.888
16172SI     SI116172   0.901   0.079   6.828
16173SI     SI116173   3.909   9.142   4.091
16174SI     SI116174   8.534   0.583   6.829
16175SI     SI116175   0.955   0.249   2.763
16176SI     SI116176   9.142   0.992   5.783
16177SI     SI116177   6.319   1.285   1.681
16178SI     SI116178   4.466   8.849   3.005
16179SI     SI116179   3.334   0.155   7.728
16180SI     SI116180   2.899   8.841   2.644
16181SI     SI116181   7.806   0.869   8.565
16182SI     SI116182   2.428   1.177   3.700
16183SI     SI116183   5.342   0.873   4.821
16184SI     SI116184   7.428   0.738   2.011
16185SI     SI116185   7.481   9.042   8.082
16186SI     SI116186   8.220   0.609   1.766
16187SI     SI116187   0.035   0.682   9.060
16188SI     SI116188   5.814   9.277   0.349
16189SI     SI116189   2.317   0.831   7.492
16190SI     SI116190   1.616   9.172   9.387
16191SI     SI116191   7.131   8.719   8.825
16192SI     SI116192   0.111   0.601   2.777
16193SI     SI116193   6.141   8.759   5.293
16194SI     SI116194   4.921   0.681   0.220
16195SI     SI116195   2.124   0.809   0.998
16196SI     SI116196   4.187   9.383   4.420
16197SI     SI116197   7.549   0.697   8.140
16198SI     SI116198   9.087   0.060   5.586
16199SI     SI116199   3.971   8.837   7.526
16200SI     SI116200   0.576   0.274   2.372
16201SI     SI116201   6.379   0.096   2.960
16202SI     SI116202   1.653   9.320   5.067
16203SI     SI116203   9.047   0.242   0.897
16204SI     SI116204   8.295   8.834   2.773
16205SI     SI116205   9.149   0.757   5.366
16206SI     SI116206   9.508   0.019   8.501
16207SI     SI116207   0.588   0.921   3.880
16208SI     SI116208   8.168   9.129   6.672
16209SI     SI116209   2.566   1.028   8.286
16210SI     SI116210   0.723   9.047   1.855
16211SI     SI116211   0.302   9.605   7.576
16212SI     SI116212   5.709   8.457   3.088
16213SI     SI116213   5.006   8.488   3.086
16214SI     SI116214   6.550   9.366   2.028
16215SI     SI116215   4.370   8.985   1.516
16216SI     SI116216   8.709   1.193   5.620
16217SI     SI116217   2.993   0.965   7.743
16218SI     SI116218   2.385   1.144   4.132
16219SI     SI116219   4.522   0.665   7.761
16220SI     SI116220   1.115   1.275   2.392
16221SI     SI116221   6.589   8.579   4.092
16222SI     SI116222   8.148   9.546   2.624
16223SI     SI116223   7.707   0.005   8.843
16224SI     SI116224   2.696   0.477   2.191
16225SI     SI116225   2.848   9.379   4.326
16226SI     SI116226   1.477   9.525   6.906
16227SI     SI116227   8.941   0.163   4.761
16228SI     SI116228   1.154   9.044   1.872
16229SI     SI116229   7.200   8.255   5.819
16230SI     SI116230   3.330   0.909   0.057
16231SI     SI116231   5.522   1.321   8.913
16232SI     SI116232   0.850   0.479   2.948
16233SI     SI116233   4.615   1.122   8.091
16234SI     SI116234   1.181   9.278   7.812
16235SI     SI116235   4.114   9.456   0.165
16236SI     SI116236   2.040   0.093   3.189
16237SI     SI116237   0.350   1.031   9.331
16238SI     SI116238   3.261   0.253   6.755
16239SI     SI116239   7.919   1.177   5.400
16240SI     SI116240   8.878   8.615   0.661
16241SI     SI116241   0.184   9.428   1.864
16242SI     SI116242   5.243   9.278   3.748
16243SI     SI116243   2.926   1.008   6.058
16244SI     SI116244   3.706   9.368   5.755
16245SI     SI116245   6.005   9.079   0.220
16246SI     SI116246   4.636   1.240   9.344
16247SI     SI116247   3.380   8.690   1.656
16248SI     SI116248   8.949   0.564   3.530
16249SI     SI116249   2.663   0.606   0.971
16250SI     SI116250   2.989   9.559   8.646
16251SI     SI116251   7.144   0.991   3.032
16252SI     SI116252   3.517   8.773   7.435
16253SI     SI116253   0.818   8.836   5.970
16254SI     SI116254   5.883   0.725   3.005
16255SI     SI116255   5.984   0.778   4.368
16256SI     SI116256   9.594   8.809   2.386
16257SI     SI116257   8.503   8.586   5.043
16258SI     SI116258   6.126   8.717   1.895
16259SI     SI116259   8.546   0.312   4.123
16260SI     SI116260   6.705   9.567   9.218
16261SI     SI116261   8.042   0.519   1.541
16262SI     SI116262   4.863   8.816   8.486
16263SI     SI116263   3.251   1.383   6.596
16264SI     SI116264   1.807   1.100   2.380
16265SI     SI116265   0.082   0.200   5.056
16266SI     SI116266   4.283   0.821   5.981
16267SI     SI116267   2.808   0.869   2.180
16268SI     SI116268   3.494   8.656   0.320
16269SI     SI116269   5.652   0.773   9.592
16270SI     SI116270   9.531   0.674   6.079
16271SI     SI116271   8.911   9.053   2.067
16272SI     SI116272   4.270   8.911   1.229
16273SI     SI116273   3.532   9.395   2.266
16274SI     SI116274   0.525   8.603   2.387
16275SI     SI116275   8.563   0.382   2.855
16276SI     SI116276   2.239   8.729   3.105
16277SI     SI116277   3.194   9.272   9.033
16278SI     SI116278   8.874   8.782   8.128
16279SI     SI116279   1.083   0.451   9.576
16280TPSG   HA216280   4.798   8.057   4.607
16280TPSG   CA216281   4.825   8.006   4.515
16280TPSG   CA116282   4.850   8.076   4.396
16280TPSG    Si16283   4.850   8.262   4.396
16280TPSG   CA616284   4.891   8.004   4.282
16280TPSG   HH616285   4.906   8.053   4.186
16280TPSG   CA516286   4.914   7.865   4.289
16280TPSG   HA516287   4.946   7.810   4.202
16280TPSG   CA416288   4.891   7.797   4.410
16280TPSG   HA416289   4.910   7.690   4.416
16280TPSG   CA316290   4.844   7.867   4.522
16280TPSG   HA316291   4.827   7.813   4.615
16280TPSG    O116292   4.966   8.146   4.396
16280TPSG    H616293   4.966   8.048   4.396
16281TPSG   HA216294   3.760   1.604   0.316
16281TPSG   CA216295   3.787   1.655   0.408
16281TPSG   CA116296   3.812   1.585   0.527
16281TPSG    Si16297   3.812   1.399   0.527
16281TPSG   CA616298   3.853   1.657   0.641
16281TPSG   HH616299   3.868   1.608   0.737
16281TPSG   CA516300   3.876   1.796   0.634
16281TPSG   HA516301   3.908   1.851   0.721
16281TPSG   CA416302   3.853   1.864   0.513
16281TPSG   HA416303   3.872   1.971   0.507
16281TPSG   CA316304   3.806   1.794   0.401
16281TPSG   HA316305   3.789   1.848   0.308
16281TPSG    O116306   3.928   1.515   0.527
16281TPSG    H616307   3.928   1.613   0.527
16282TPSG   HA216308   1.071   1.614   2.458
16282TPSG   CA216309   1.098   1.665   2.550
16282TPSG   CA116310   1.123   1.595   2.669
16282TPSG    Si16311   1.123   1.409   2.669
16282TPSG   CA616312   1.164   1.667   2.783
16282TPSG   HH616313   1.179   1.618   2.879
16282TPSG   CA516314   1.187   1.806   2.776
16282TPSG   HA516315   1.219   1.861   2.863
16282TPSG   CA416316   1.164   1.874   2.655
16282TPSG   HA416317   1.183   1.981   2.649
16282TPSG   CA316318   1.117   1.804   2.543
16282TPSG   HA316319   1.100   1.858   2.450
16282TPSG    O116320   1.239   1.525   2.669
16282TPSG    H616321   1.239   1.623   2.669
16283TPSG   HA216322   7.523   1.492   3.008
16283TPSG   CA216323   7.550   1.543   3.100
16283TPSG   CA116324   7.575   1.473   3.219
16283TPSG    Si16325   7.575   1.287   3.219
16283TPSG   CA616326   7.616   1.545   3.333
16283TPSG   HH616327   7.631   1.496   3.429
16283TPSG   CA516328   7.639   1.684   3.326
16283TPSG   HA516329   7.671   1.739   3.413
16283TPSG   CA416330   7.616   1.752   3.205
16283TPSG   HA416331   7.635   1.859   3.199
16283TPSG   CA316332   7.569   1.682   3.093
16283TPSG   HA316333   7.552   1.736   3.000
16283TPSG    O116334   7.691   1.403   3.219
16283TPSG    H616335   7.691   1.501   3.219
16284TPSG   HA216336   4.375   7.964   0.953
16284TPSG   CA216337   4.402   7.913   0.861
16284TPSG   CA116338   4.427   7.983   0.742
16284TPSG    Si16339   4.427   8.169   0.742
16284TPSG   CA616340   4.468   7.911   0.628
16284TPSG   HH616341   4.483   7.960   0.532
16284TPSG   CA516342   4.491   7.772   0.635
16284TPSG   HA516343   4.523   7.717   0.548
16284TPSG   CA416344   4.468   7.704   0.756
16284TPSG   HA416345   4.487   7.597   0.762
16284TPSG   CA316346   4.421   7.774   0.868
16284TPSG   HA316347   4.404   7.720   0.961
16284TPSG    O116348   4.543   8.053   0.742
16284TPSG    H616349   4.543   7.955   0.742
16285TPSG   HA216350   5.011   1.613   1.760
16285TPSG   CA216351   5.038   1.664   1.852
16285TPSG   CA116352   5.063   1.594   1.971
16285TPSG    Si16353   5.063   1.408   1.971
16285TPSG   CA616354   5.104   1.666   2.085
16285TPSG   HH616355   5.119   1.617   2.181
16285TPSG   CA516356   5.127   1.805   2.078
16285TPSG   HA516357   5.159   1.860   2.165
16285TPSG   CA416358   5.104   1.873   1.957
16285TPSG   HA416359   5.123   1.980   1.951
16285TPSG   CA316360   5.057   1.803   1.845
16285TPSG   HA316361   5.040   1.857   1.752
16285TPSG    O116362   5.179   1.524   1.971
16285TPSG    H616363   5.179   1.622   1.971
16286TPSG   HA216364   1.372   1.585   4.517
16286TPSG   CA216365   1.399   1.636   4.609
16286TPSG   CA116366   1.424   1.566   4.728
16286TPSG    Si16367   1.424   1.380   4.728
16286TPSG   CA616368   1.465   1.638   4.842
16286TPSG   HH616369   1.480   1.589   4.938
16286TPSG   CA516370   1.488   1.777   4.835
16286TPSG   HA516371   1.520   1.832   4.922
16286TPSG   CA416372   1.465   1.845   4.714
16286TPSG   HA416373   1.484   1.952   4.708
16286TPSG   CA316374   1.418   1.775   4.602
16286TPSG   HA316375   1.401   1.829   4.509
16286TPSG    O116376   1.540   1.496   4.728
16286TPSG    H616377   1.540   1.594   4.728
16287TPSG   HA216378   0.148   1.535   3.687
16287TPSG   CA216379   0.175   1.586   3.779
16287TPSG   CA116380   0.200   1.516   3.898
16287TPSG    Si16381   0.200   1.330   3.898
16287TPSG   CA616382   0.241   1.588   4.012
16287TPSG   HH616383   0.256   1.539   4.108
16287TPSG   CA516384   0.264   1.727   4.005
16287TPSG   HA516385   0.296   1.782   4.092
16287TPSG   CA416386   0.241   1.795   3.884
16287TPSG   HA416387   0.260   1.902   3.878
16287TPSG   CA316388   0.194   1.725   3.772
16287TPSG   HA316389   0.177   1.779   3.679
16287TPSG    O116390   0.316   1.446   3.898
16287TPSG    H616391   0.316   1.544   3.898
16288TPSG   HA216392   0.894   8.078   2.805
16288TPSG   CA216393   0.921   8.027   2.713
16288TPSG   CA116394   0.946   8.097   2.594
16288TPSG    Si16395   0.946   8.283   2.594
16288TPSG   CA616396   0.987   8.025   2.480
16288TPSG   HH616397   1.002   8.074   2.384
16288TPSG   CA516398   1.010   7.886   2.487
16288TPSG   HA516399   1.042   7.831   2.400
16288TPSG   CA416400   0.987   7.818   2.608
16288TPSG   HA416401   1.006   7.711   2.614
16288TPSG   CA316402   0.940   7.888   2.720
16288TPSG   HA316403   0.923   7.834   2.813
16288TPSG    O116404   1.062   8.167   2.594
16288TPSG    H616405   1.062   8.069   2.594
16289TPSG   HA216406   6.176   1.511   8.952
16289TPSG   CA216407   6.203   1.562   9.044
16289TPSG   CA116408   6.228   1.492   9.163
16289TPSG    Si16409   6.228   1.306   9.163
16289TPSG   CA616410   6.269   1.564   9.277
16289TPSG   HH616411   6.284   1.515   9.373
16289TPSG   CA516412   6.292   1.703   9.270
16289TPSG   HA516413   6.324   1.758   9.357
16289TPSG   CA416414   6.269   1.771   9.149
16289TPSG   HA416415   6.288   1.878   9.143
16289TPSG   CA316416   6.222   1.701   9.037
16289TPSG   HA316417   6.205   1.755   8.944
16289TPSG    O116418   6.344   1.422   9.163
16289TPSG    H616419   6.344   1.520   9.163
16290TPSG   HA216420   4.278   8.037   5.597
16290TPSG   CA216421   4.305   7.986   5.505
16290TPSG   CA116422   4.330   8.056   5.386
16290TPSG    Si16423   4.330   8.242   5.386
16290TPSG   CA616424   4.371   7.984   5.272
16290TPSG   HH616425   4.386   8.033   5.176
16290TPSG   CA516426   4.394   7.845   5.279
16290TPSG   HA516427   4.426   7.790   5.192
16290TPSG   CA416428   4.371   7.777   5.400
16290TPSG   HA416429   4.390   7.670   5.406
16290TPSG   CA316430   4.324   7.847   5.512
16290TPSG   HA316431   4.307   7.793   5.605
16290TPSG    O116432   4.446   8.126   5.386
16290TPSG    H616433   4.446   8.028   5.386
16291TPSG   HA216434   4.315   1.602   9.182
16291TPSG   CA216435   4.342   1.653   9.274
16291TPSG   CA116436   4.367   1.583   9.393
16291TPSG    Si16437   4.367   1.397   9.393
16291TPSG   CA616438   4.408   1.655   9.507
16291TPSG   HH616439   4.423   1.606   9.603
16291TPSG   CA516440   4.431   1.794   9.500
16291TPSG   HA516441   4.463   1.849   9.587
16291TPSG   CA416442   4.408   1.862   9.379
16291TPSG   HA416443   4.427   1.969   9.373
16291TPSG   CA316444   4.361   1.792   9.267
16291TPSG   HA316445   4.344   1.846   9.174
16291TPSG    O116446   4.483   1.513   9.393
16291TPSG    H616447   4.483   1.611   9.393
16292TPSG   HA216448   8.239   8.036   0.805
16292TPSG   CA216449   8.266   7.985   0.713
16292TPSG   CA116450   8.291   8.055   0.594
16292TPSG    Si16451   8.291   8.241   0.594
16292TPSG   CA616452   8.332   7.983   0.480
16292TPSG   HH616453   8.347   8.032   0.384
16292TPSG   CA516454   8.355   7.844   0.487
16292TPSG   HA516455   8.387   7.789   0.400
16292TPSG   CA416456   8.332   7.776   0.608
16292TPSG   HA416457   8.351   7.669   0.614
16292TPSG   CA316458   8.285   7.846   0.720
16292TPSG   HA316459   8.268   7.792   0.813
16292TPSG    O116460   8.407   8.125   0.594
16292TPSG    H616461   8.407   8.027   0.594
16293TPSG   HA216462   0.830   1.511   2.811
16293TPSG   CA216463   0.857   1.562   2.903
16293TPSG   CA116464   0.882   1.492   3.022
16293TPSG    Si16465   0.882   1.306   3.022
16293TPSG   CA616466   0.923   1.564   3.136
16293TPSG   HH616467   0.938   1.515   3.232
16293TPSG   CA516468   0.946   1.703   3.129
16293TPSG   HA516469   0.978   1.758   3.216
16293TPSG   CA416470   0.923   1.771   3.008
16293TPSG   HA416471   0.942   1.878   3.002
16293TPSG   CA316472   0.876   1.701   2.896
16293TPSG   HA316473   0.859   1.755   2.803
16293TPSG    O116474   0.998   1.422   3.022
16293TPSG    H616475   0.998   1.520   3.022
16294TPSG   HA216476   7.937   8.060   6.385
16294TPSG   CA216477   7.964   8.009   6.293
16294TPSG   CA116478   7.989   8.079   6.174
16294TPSG    Si16479   7.989   8.265   6.174
16294TPSG   CA616480   8.030   8.007   6.060
16294TPSG   HH616481   8.045   8.056   5.964
16294TPSG   CA516482   8.053   7.868   6.067
16294TPSG   HA516483   8.085   7.813   5.980
16294TPSG   CA416484   8.030   7.800   6.188
16294TPSG   HA416485   8.049   7.693   6.194
16294TPSG   CA316486   7.983   7.870   6.300
16294TPSG   HA316487   7.966   7.816   6.393
16294TPSG    O116488   8.105   8.149   6.174
16294TPSG    H616489   8.105   8.051   6.174
16295TPSG   HA216490   0.548   1.592   8.842
16295TPSG   CA216491   0.575   1.643   8.934
16295TPSG   CA116492   0.600   1.573   9.053
16295TPSG    Si16493   0.600   1.387   9.053
16295TPSG   CA616494   0.641   1.645   9.167
16295TPSG   HH616495   0.656   1.596   9.263
16295TPSG   CA516496   0.664   1.784   9.160
16295TPSG   HA516497   0.696   1.839   9.247
16295TPSG   CA416498   0.641   1.852   9.039
16295TPSG   HA416499   0.660   1.959   9.033
16295TPSG   CA316500   0.594   1.782   8.927
16295TPSG   HA316501   0.577   1.836   8.834
16295TPSG    O116502   0.716   1.503   9.053
16295TPSG    H616503   0.716   1.601   9.053
16296TPSG   HA216504   6.008   8.077   0.608
16296TPSG   CA216505   6.035   8.026   0.516
16296TPSG   CA116506   6.060   8.096   0.397
16296TPSG    Si16507   6.060   8.282   0.397
16296TPSG   CA616508   6.101   8.024   0.283
16296TPSG   HH616509   6.116   8.073   0.187
16296TPSG   CA516510   6.124   7.885   0.290
16296TPSG   HA516511   6.156   7.830   0.203
16296TPSG   CA416512   6.101   7.817   0.411
16296TPSG   HA416513   6.120   7.710   0.417
16296TPSG   CA316514   6.054   7.887   0.523
16296TPSG   HA316515   6.037   7.833   0.616
16296TPSG    O116516   6.176   8.166   0.397
16296TPSG    H616517   6.176   8.068   0.397
16297TPSG   HA216518   4.836   7.956   9.386
16297TPSG   CA216519   4.863   7.905   9.294
16297TPSG   CA116520   4.888   7.975   9.175
16297TPSG    Si16521   4.888   8.161   9.175
16297TPSG   CA616522   4.929   7.903   9.061
16297TPSG   HH616523   4.944   7.952   8.965
16297TPSG   CA516524   4.952   7.764   9.068
16297TPSG   HA516525   4.984   7.709   8.981
16297TPSG   CA416526   4.929   7.696   9.189
16297TPSG   HA416527   4.948   7.589   9.195
16297TPSG   CA316528   4.882   7.766   9.301
16297TPSG   HA316529   4.865   7.712   9.394
16297TPSG    O116530   5.004   8.045   9.175
16297TPSG    H616531   5.004   7.947   9.175
16298TPSG   HA216532   4.893   7.980   0.482
16298TPSG   CA216533   4.920   7.929   0.390
16298TPSG   CA116534   4.945   7.999   0.271
16298TPSG    Si16535   4.945   8.185   0.271
16298TPSG   CA616536   4.986   7.927   0.157
16298TPSG   HH616537   5.001   7.976   0.061
16298TPSG   CA516538   5.009   7.788   0.164
16298TPSG   HA516539   5.041   7.733   0.077
16298TPSG   CA416540   4.986   7.720   0.285
16298TPSG   HA416541   5.005   7.613   0.291
16298TPSG   CA316542   4.939   7.790   0.397
16298TPSG   HA316543   4.922   7.736   0.490
16298TPSG    O116544   5.061   8.069   0.271
16298TPSG    H616545   5.061   7.971   0.271
16299TPSG   HA216546   6.145   8.091   4.758
16299TPSG   CA216547   6.172   8.040   4.666
16299TPSG   CA116548   6.197   8.110   4.547
16299TPSG    Si16549   6.197   8.296   4.547
16299TPSG   CA616550   6.238   8.038   4.433
16299TPSG   HH616551   6.253   8.087   4.337
16299TPSG   CA516552   6.261   7.899   4.440
16299TPSG   HA516553   6.293   7.844   4.353
16299TPSG   CA416554   6.238   7.831   4.561
16299TPSG   HA416555   6.257   7.724   4.567
16299TPSG   CA316556   6.191   7.901   4.673
16299TPSG   HA316557   6.174   7.847   4.766
16299TPSG    O116558   6.313   8.180   4.547
16299TPSG    H616559   6.313   8.082   4.547
16300TPSG   HA216560   5.602   7.956   2.877
16300TPSG   CA216561   5.629   7.905   2.785
16300TPSG   CA116562   5.654   7.975   2.666
16300TPSG    Si16563   5.654   8.161   2.666
16300TPSG   CA616564   5.695   7.903   2.552
16300TPSG   HH616565   5.710   7.952   2.456
16300TPSG   CA516566   5.718   7.764   2.559
16300TPSG   HA516567   5.750   7.709   2.472
16300TPSG   CA416568   5.695   7.696   2.680
16300TPSG   HA416569   5.714   7.589   2.686
16300TPSG   CA316570   5.648   7.766   2.792
16300TPSG   HA316571   5.631   7.712   2.885
16300TPSG    O116572   5.770   8.045   2.666
16300TPSG    H616573   5.770   7.947   2.666
16301TPSG   HA216574   2.879   8.099   6.529
16301TPSG   CA216575   2.906   8.048   6.437
16301TPSG   CA116576   2.931   8.118   6.318
16301TPSG    Si16577   2.931   8.304   6.318
16301TPSG   CA616578   2.972   8.046   6.204
16301TPSG   HH616579   2.987   8.095   6.108
16301TPSG   CA516580   2.995   7.907   6.211
16301TPSG   HA516581   3.027   7.852   6.124
16301TPSG   CA416582   2.972   7.839   6.332
16301TPSG   HA416583   2.991   7.732   6.338
16301TPSG   CA316584   2.925   7.909   6.444
16301TPSG   HA316585   2.908   7.855   6.537
16301TPSG    O116586   3.047   8.188   6.318
16301TPSG    H616587   3.047   8.090   6.318
16302TPSG   HA216588   0.038   7.956   3.968
16302TPSG   CA216589   0.065   7.905   3.876
16302TPSG   CA116590   0.090   7.975   3.757
16302TPSG    Si16591   0.090   8.161   3.757
16302TPSG   CA616592   0.131   7.903   3.643
16302TPSG   HH616593   0.146   7.952   3.547
16302TPSG   CA516594   0.154   7.764   3.650
16302TPSG   HA516595   0.186   7.709   3.563
16302TPSG   CA416596   0.131   7.696   3.771
16302TPSG   HA416597   0.150   7.589   3.777
16302TPSG   CA316598   0.084   7.766   3.883
16302TPSG   HA316599   0.067   7.712   3.976
16302TPSG    O116600   0.206   8.045   3.757
16302TPSG    H616601   0.206   7.947   3.757
16303TPSG   HA216602   1.982   1.532   1.511
16303TPSG   CA216603   2.009   1.583   1.603
16303TPSG   CA116604   2.034   1.513   1.722
16303TPSG    Si16605   2.034   1.327   1.722
16303TPSG   CA616606   2.075   1.585   1.836
16303TPSG   HH616607   2.090   1.536   1.932
16303TPSG   CA516608   2.098   1.724   1.829
16303TPSG   HA516609   2.130   1.779   1.916
16303TPSG   CA416610   2.075   1.792   1.708
16303TPSG   HA416611   2.094   1.899   1.702
16303TPSG   CA316612   2.028   1.722   1.596
16303TPSG   HA316613   2.011   1.776   1.503
16303TPSG    O116614   2.150   1.443   1.722
16303TPSG    H616615   2.150   1.541   1.722
16304TPSG   HA216616   2.910   7.975   8.494
16304TPSG   CA216617   2.937   7.924   8.402
16304TPSG   CA116618   2.962   7.994   8.283
16304TPSG    Si16619   2.962   8.180   8.283
16304TPSG   CA616620   3.003   7.922   8.169
16304TPSG   HH616621   3.018   7.971   8.073
16304TPSG   CA516622   3.026   7.783   8.176
16304TPSG   HA516623   3.058   7.728   8.089
16304TPSG   CA416624   3.003   7.715   8.297
16304TPSG   HA416625   3.022   7.608   8.303
16304TPSG   CA316626   2.956   7.785   8.409
16304TPSG   HA316627   2.939   7.731   8.502
16304TPSG    O116628   3.078   8.064   8.283
16304TPSG    H616629   3.078   7.966   8.283
16305TPSG   HA216630   1.091   8.082   3.837
16305TPSG   CA216631   1.118   8.031   3.745
16305TPSG   CA116632   1.143   8.101   3.626
16305TPSG    Si16633   1.143   8.287   3.626
16305TPSG   CA616634   1.184   8.029   3.512
16305TPSG   HH616635   1.199   8.078   3.416
16305TPSG   CA516636   1.207   7.890   3.519
16305TPSG   HA516637   1.239   7.835   3.432
16305TPSG   CA416638   1.184   7.822   3.640
16305TPSG   HA416639   1.203   7.715   3.646
16305TPSG   CA316640   1.137   7.892   3.752
16305TPSG   HA316641   1.120   7.838   3.845
16305TPSG    O116642   1.259   8.171   3.626
16305TPSG    H616643   1.259   8.073   3.626
16306TPSG   HA216644   1.351   8.038   9.431
16306TPSG   CA216645   1.378   7.987   9.339
16306TPSG   CA116646   1.403   8.057   9.220
16306TPSG    Si16647   1.403   8.243   9.220
16306TPSG   CA616648   1.444   7.985   9.106
16306TPSG   HH616649   1.459   8.034   9.010
16306TPSG   CA516650   1.467   7.846   9.113
16306TPSG   HA516651   1.499   7.791   9.026
16306TPSG   CA416652   1.444   7.778   9.234
16306TPSG   HA416653   1.463   7.671   9.240
16306TPSG   CA316654   1.397   7.848   9.346
16306TPSG   HA316655   1.380   7.794   9.439
16306TPSG    O116656   1.519   8.127   9.220
16306TPSG    H616657   1.519   8.029   9.220
16307TPSG   HA216658   7.887   1.467   1.376
16307TPSG   CA216659   7.914   1.518   1.468
16307TPSG   CA116660   7.939   1.448   1.587
16307TPSG    Si16661   7.939   1.262   1.587
16307TPSG   CA616662   7.980   1.520   1.701
16307TPSG   HH616663   7.995   1.471   1.797
16307TPSG   CA516664   8.003   1.659   1.694
16307TPSG   HA516665   8.035   1.714   1.781
16307TPSG   CA416666   7.980   1.727   1.573
16307TPSG   HA416667   7.999   1.834   1.567
16307TPSG   CA316668   7.933   1.657   1.461
16307TPSG   HA316669   7.916   1.711   1.368
16307TPSG    O116670   8.055   1.378   1.587
16307TPSG    H616671   8.055   1.476   1.587
16308TPSG   HA216672   2.301   7.996   8.799
16308TPSG   CA216673   2.328   7.945   8.707
16308TPSG   CA116674   2.353   8.015   8.588
16308TPSG    Si16675   2.353   8.201   8.588
16308TPSG   CA616676   2.394   7.943   8.474
16308TPSG   HH616677   2.409   7.992   8.378
16308TPSG   CA516678   2.417   7.804   8.481
16308TPSG   HA516679   2.449   7.749   8.394
16308TPSG   CA416680   2.394   7.736   8.602
16308TPSG   HA416681   2.413   7.629   8.608
16308TPSG   CA316682   2.347   7.806   8.714
16308TPSG   HA316683   2.330   7.752   8.807
16308TPSG    O116684   2.469   8.085   8.588
16308TPSG    H616685   2.469   7.987   8.588
16309TPSG   HA216686   9.446   8.024   2.032
16309TPSG   CA216687   9.473   7.973   1.940
16309TPSG   CA116688   9.498   8.043   1.821
16309TPSG    Si16689   9.498   8.229   1.821
16309TPSG   CA616690   9.539   7.971   1.707
16309TPSG   HH616691   9.554   8.020   1.611
16309TPSG   CA516692   9.562   7.832   1.714
16309TPSG   HA516693   9.594   7.777   1.627
16309TPSG   CA416694   9.539   7.764   1.835
16309TPSG   HA416695   9.558   7.657   1.841
16309TPSG   CA316696   9.492   7.834   1.947
16309TPSG   HA316697   9.475   7.780   2.040
16309TPSG    O116698   9.614   8.113   1.821
16309TPSG    H616699   9.614   8.015   1.821
16310TPSG   HA216700   4.450   1.482   4.312
16310TPSG   CA216701   4.477   1.533   4.404
16310TPSG   CA116702   4.502   1.463   4.523
16310TPSG    Si16703   4.502   1.277   4.523
16310TPSG   CA616704   4.543   1.535   4.637
16310TPSG   HH616705   4.558   1.486   4.733
16310TPSG   CA516706   4.566   1.674   4.630
16310TPSG   HA516707   4.598   1.729   4.717
16310TPSG   CA416708   4.543   1.742   4.509
16310TPSG   HA416709   4.562   1.849   4.503
16310TPSG   CA316710   4.496   1.672   4.397
16310TPSG   HA316711   4.479   1.726   4.304
16310TPSG    O116712   4.618   1.393   4.523
16310TPSG    H616713   4.618   1.491   4.523
16311TPSG   HA216714   1.796   7.988   6.956
16311TPSG   CA216715   1.823   7.937   6.864
16311TPSG   CA116716   1.848   8.007   6.745
16311TPSG    Si16717   1.848   8.193   6.745
16311TPSG   CA616718   1.889   7.935   6.631
16311TPSG   HH616719   1.904   7.984   6.535
16311TPSG   CA516720   1.912   7.796   6.638
16311TPSG   HA516721   1.944   7.741   6.551
16311TPSG   CA416722   1.889   7.728   6.759
16311TPSG   HA416723   1.908   7.621   6.765
16311TPSG   CA316724   1.842   7.798   6.871
16311TPSG   HA316725   1.825   7.744   6.964
16311TPSG    O116726   1.964   8.077   6.745
16311TPSG    H616727   1.964   7.979   6.745
16312TPSG   HA216728   1.567   1.533   0.836
16312TPSG   CA216729   1.528   1.584   0.923
16312TPSG   CA116730   1.471   1.514   1.031
16312TPSG    Si16731   1.471   1.328   1.031
16312TPSG   CA616732   1.429   1.586   1.145
16312TPSG   HH616733   1.379   1.537   1.228
16312TPSG   CA516734   1.451   1.725   1.153
16312TPSG   HA516735   1.420   1.780   1.242
16312TPSG   CA416736   1.511   1.793   1.047
16312TPSG   HA416737   1.530   1.900   1.054
16312TPSG   CA316738   1.547   1.723   0.931
16312TPSG   HA316739   1.594   1.777   0.848
16312TPSG    O116740   1.560   1.444   1.106
16312TPSG    H616741   1.560   1.542   1.106
16313TPSG   HA216742   2.748   8.071   3.814
16313TPSG   CA216743   2.775   8.020   3.722
16313TPSG   CA116744   2.800   8.090   3.603
16313TPSG    Si16745   2.800   8.276   3.603
16313TPSG   CA616746   2.841   8.018   3.489
16313TPSG   HH616747   2.856   8.067   3.393
16313TPSG   CA516748   2.864   7.879   3.496
16313TPSG   HA516749   2.896   7.824   3.409
16313TPSG   CA416750   2.841   7.811   3.617
16313TPSG   HA416751   2.860   7.704   3.623
16313TPSG   CA316752   2.794   7.881   3.729
16313TPSG   HA316753   2.777   7.827   3.822
16313TPSG    O116754   2.916   8.160   3.603
16313TPSG    H616755   2.916   8.062   3.603
16314TPSG   HA216756   1.330   8.035   6.960
16314TPSG   CA216757   1.357   7.984   6.868
16314TPSG   CA116758   1.382   8.054   6.749
16314TPSG    Si16759   1.382   8.240   6.749
16314TPSG   CA616760   1.423   7.982   6.635
16314TPSG   HH616761   1.438   8.031   6.539
16314TPSG   CA516762   1.446   7.843   6.642
16314TPSG   HA516763   1.478   7.788   6.555
16314TPSG   CA416764   1.423   7.775   6.763
16314TPSG   HA416765   1.442   7.668   6.769
16314TPSG   CA316766   1.376   7.845   6.875
16314TPSG   HA316767   1.359   7.791   6.968
16314TPSG    O116768   1.498   8.124   6.749
16314TPSG    H616769   1.498   8.026   6.749
16315TPSG   HA216770   3.855   1.558   6.549
16315TPSG   CA216771   3.882   1.609   6.641
16315TPSG   CA116772   3.907   1.539   6.760
16315TPSG    Si16773   3.907   1.353   6.760
16315TPSG   CA616774   3.948   1.611   6.874
16315TPSG   HH616775   3.963   1.562   6.970
16315TPSG   CA516776   3.971   1.750   6.867
16315TPSG   HA516777   4.003   1.805   6.954
16315TPSG   CA416778   3.948   1.818   6.746
16315TPSG   HA416779   3.967   1.925   6.740
16315TPSG   CA316780   3.901   1.748   6.634
16315TPSG   HA316781   3.884   1.802   6.541
16315TPSG    O116782   4.023   1.469   6.760
16315TPSG    H616783   4.023   1.567   6.760
16316TPSG   HA216784   7.905   8.052   0.473
16316TPSG   CA216785   7.932   8.001   0.381
16316TPSG   CA116786   7.957   8.071   0.262
16316TPSG    Si16787   7.957   8.257   0.262
16316TPSG   CA616788   7.998   7.999   0.148
16316TPSG   HH616789   8.013   8.048   0.052
16316TPSG   CA516790   8.021   7.860   0.155
16316TPSG   HA516791   8.053   7.805   0.068
16316TPSG   CA416792   7.998   7.792   0.276
16316TPSG   HA416793   8.017   7.685   0.282
16316TPSG   CA316794   7.951   7.862   0.388
16316TPSG   HA316795   7.934   7.808   0.481
16316TPSG    O116796   8.073   8.141   0.262
16316TPSG    H616797   8.073   8.043   0.262
16317TPSG   HA216798   8.927   1.507   2.142
16317TPSG   CA216799   8.954   1.558   2.234
16317TPSG   CA116800   8.979   1.488   2.353
16317TPSG    Si16801   8.979   1.302   2.353
16317TPSG   CA616802   9.020   1.560   2.467
16317TPSG   HH616803   9.035   1.511   2.563
16317TPSG   CA516804   9.043   1.699   2.460
16317TPSG   HA516805   9.075   1.754   2.547
16317TPSG   CA416806   9.020   1.767   2.339
16317TPSG   HA416807   9.039   1.874   2.333
16317TPSG   CA316808   8.973   1.697   2.227
16317TPSG   HA316809   8.956   1.751   2.134
16317TPSG    O116810   9.095   1.418   2.353
16317TPSG    H616811   9.095   1.516   2.353
16318TPSG   HA216812   8.763   1.479   6.771
16318TPSG   CA216813   8.790   1.530   6.863
16318TPSG   CA116814   8.815   1.460   6.982
16318TPSG    Si16815   8.815   1.274   6.982
16318TPSG   CA616816   8.856   1.532   7.096
16318TPSG   HH616817   8.871   1.483   7.192
16318TPSG   CA516818   8.879   1.671   7.089
16318TPSG   HA516819   8.911   1.726   7.176
16318TPSG   CA416820   8.856   1.739   6.968
16318TPSG   HA416821   8.875   1.846   6.962
16318TPSG   CA316822   8.809   1.669   6.856
16318TPSG   HA316823   8.792   1.723   6.763
16318TPSG    O116824   8.931   1.390   6.982
16318TPSG    H616825   8.931   1.488   6.982
16319TPSG   HA216826   3.598   1.578   1.528
16319TPSG   CA216827   3.625   1.629   1.620
16319TPSG   CA116828   3.650   1.559   1.739
16319TPSG    Si16829   3.650   1.373   1.739
16319TPSG   CA616830   3.691   1.631   1.853
16319TPSG   HH616831   3.706   1.582   1.949
16319TPSG   CA516832   3.714   1.770   1.846
16319TPSG   HA516833   3.746   1.825   1.933
16319TPSG   CA416834   3.691   1.838   1.725
16319TPSG   HA416835   3.710   1.945   1.719
16319TPSG   CA316836   3.644   1.768   1.613
16319TPSG   HA316837   3.627   1.822   1.520
16319TPSG    O116838   3.766   1.489   1.739
16319TPSG    H616839   3.766   1.587   1.739
16320TPSG   HA216840   3.635   1.490   6.947
16320TPSG   CA216841   3.662   1.541   7.039
16320TPSG   CA116842   3.687   1.471   7.158
16320TPSG    Si16843   3.687   1.285   7.158
16320TPSG   CA616844   3.728   1.543   7.272
16320TPSG   HH616845   3.743   1.494   7.368
16320TPSG   CA516846   3.751   1.682   7.265
16320TPSG   HA516847   3.783   1.737   7.352
16320TPSG   CA416848   3.728   1.750   7.144
16320TPSG   HA416849   3.747   1.857   7.138
16320TPSG   CA316850   3.681   1.680   7.032
16320TPSG   HA316851   3.664   1.734   6.939
16320TPSG    O116852   3.803   1.401   7.158
16320TPSG    H616853   3.803   1.499   7.158
16321TPSG   HA216854   0.685   8.054   7.880
16321TPSG   CA216855   0.712   8.003   7.788
16321TPSG   CA116856   0.737   8.073   7.669
16321TPSG    Si16857   0.737   8.259   7.669
16321TPSG   CA616858   0.778   8.001   7.555
16321TPSG   HH616859   0.793   8.050   7.459
16321TPSG   CA516860   0.801   7.862   7.562
16321TPSG   HA516861   0.833   7.807   7.475
16321TPSG   CA416862   0.778   7.794   7.683
16321TPSG   HA416863   0.797   7.687   7.689
16321TPSG   CA316864   0.731   7.864   7.795
16321TPSG   HA316865   0.714   7.810   7.888
16321TPSG    O116866   0.853   8.143   7.669
16321TPSG    H616867   0.853   8.045   7.669
16322TPSG   HA216868   1.716   7.979   6.483
16322TPSG   CA216869   1.743   7.928   6.391
16322TPSG   CA116870   1.768   7.998   6.272
16322TPSG    Si16871   1.768   8.184   6.272
16322TPSG   CA616872   1.809   7.926   6.158
16322TPSG   HH616873   1.824   7.975   6.062
16322TPSG   CA516874   1.832   7.787   6.165
16322TPSG   HA516875   1.864   7.732   6.078
16322TPSG   CA416876   1.809   7.719   6.286
16322TPSG   HA416877   1.828   7.612   6.292
16322TPSG   CA316878   1.762   7.789   6.398
16322TPSG   HA316879   1.745   7.735   6.491
16322TPSG    O116880   1.884   8.068   6.272
16322TPSG    H616881   1.884   7.970   6.272
16323TPSG   HA216882   6.409   8.080   8.891
16323TPSG   CA216883   6.436   8.029   8.799
16323TPSG   CA116884   6.461   8.099   8.680
16323TPSG    Si16885   6.461   8.285   8.680
16323TPSG   CA616886   6.502   8.027   8.566
16323TPSG   HH616887   6.517   8.076   8.470
16323TPSG   CA516888   6.525   7.888   8.573
16323TPSG   HA516889   6.557   7.833   8.486
16323TPSG   CA416890   6.502   7.820   8.694
16323TPSG   HA416891   6.521   7.713   8.700
16323TPSG   CA316892   6.455   7.890   8.806
16323TPSG   HA316893   6.438   7.836   8.899
16323TPSG    O116894   6.577   8.169   8.680
16323TPSG    H616895   6.577   8.071   8.680
16324TPSG   HA216896   3.137   8.028   0.468
16324TPSG   CA216897   3.164   7.977   0.376
16324TPSG   CA116898   3.189   8.047   0.257
16324TPSG    Si16899   3.189   8.233   0.257
16324TPSG   CA616900   3.230   7.975   0.143
16324TPSG   HH616901   3.245   8.024   0.047
16324TPSG   CA516902   3.253   7.836   0.150
16324TPSG   HA516903   3.285   7.781   0.063
16324TPSG   CA416904   3.230   7.768   0.271
16324TPSG   HA416905   3.249   7.661   0.277
16324TPSG   CA316906   3.183   7.838   0.383
16324TPSG   HA316907   3.166   7.784   0.476
16324TPSG    O116908   3.305   8.117   0.257
16324TPSG    H616909   3.305   8.019   0.257
16325TPSG   HA216910   3.585   8.009   3.672
16325TPSG   CA216911   3.612   7.958   3.580
16325TPSG   CA116912   3.637   8.028   3.461
16325TPSG    Si16913   3.637   8.214   3.461
16325TPSG   CA616914   3.678   7.956   3.347
16325TPSG   HH616915   3.693   8.005   3.251
16325TPSG   CA516916   3.701   7.817   3.354
16325TPSG   HA516917   3.733   7.762   3.267
16325TPSG   CA416918   3.678   7.749   3.475
16325TPSG   HA416919   3.697   7.642   3.481
16325TPSG   CA316920   3.631   7.819   3.587
16325TPSG   HA316921   3.614   7.765   3.680
16325TPSG    O116922   3.753   8.098   3.461
16325TPSG    H616923   3.753   8.000   3.461
16326TPSG   HA216924   3.718   1.536   3.961
16326TPSG   CA216925   3.652   1.587   4.029
16326TPSG   CA116926   3.561   1.517   4.111
16326TPSG    Si16927   3.561   1.331   4.111
16326TPSG   CA616928   3.483   1.589   4.204
16326TPSG   HH616929   3.408   1.540   4.265
16326TPSG   CA516930   3.500   1.728   4.219
16326TPSG   HA516931   3.441   1.783   4.291
16326TPSG   CA416932   3.593   1.796   4.140
16326TPSG   HA416933   3.608   1.903   4.153
16326TPSG   CA316934   3.667   1.726   4.043
16326TPSG   HA316935   3.739   1.780   3.981
16326TPSG    O116936   3.619   1.447   4.211
16326TPSG    H616937   3.619   1.545   4.211
16327TPSG   HA216938   2.053   1.570   9.137
16327TPSG   CA216939   2.080   1.621   9.229
16327TPSG   CA116940   2.105   1.551   9.348
16327TPSG    Si16941   2.105   1.365   9.348
16327TPSG   CA616942   2.146   1.623   9.462
16327TPSG   HH616943   2.161   1.574   9.558
16327TPSG   CA516944   2.169   1.762   9.455
16327TPSG   HA516945   2.201   1.817   9.542
16327TPSG   CA416946   2.146   1.830   9.334
16327TPSG   HA416947   2.165   1.937   9.328
16327TPSG   CA316948   2.099   1.760   9.222
16327TPSG   HA316949   2.082   1.814   9.129
16327TPSG    O116950   2.221   1.481   9.348
16327TPSG    H616951   2.221   1.579   9.348
16328TPSG   HA216952   9.021   8.153   0.701
16328TPSG   CA216953   8.982   8.102   0.614
16328TPSG   CA116954   8.925   8.172   0.506
16328TPSG    Si16955   8.925   8.358   0.506
16328TPSG   CA616956   8.883   8.100   0.392
16328TPSG   HH616957   8.833   8.149   0.309
16328TPSG   CA516958   8.905   7.961   0.384
16328TPSG   HA516959   8.874   7.906   0.295
16328TPSG   CA416960   8.965   7.893   0.490
16328TPSG   HA416961   8.984   7.786   0.483
16328TPSG   CA316962   9.001   7.963   0.606
16328TPSG   HA316963   9.048   7.909   0.689
16328TPSG    O116964   9.014   8.242   0.431
16328TPSG    H616965   9.014   8.144   0.431
16329TPSG   HA216966   0.481   1.485   1.585
16329TPSG   CA216967   0.508   1.536   1.677
16329TPSG   CA116968   0.533   1.466   1.796
16329TPSG    Si16969   0.533   1.280   1.796
16329TPSG   CA616970   0.574   1.538   1.910
16329TPSG   HH616971   0.589   1.489   2.006
16329TPSG   CA516972   0.597   1.677   1.903
16329TPSG   HA516973   0.629   1.732   1.990
16329TPSG   CA416974   0.574   1.745   1.782
16329TPSG   HA416975   0.593   1.852   1.776
16329TPSG   CA316976   0.527   1.675   1.670
16329TPSG   HA316977   0.510   1.729   1.577
16329TPSG    O116978   0.649   1.396   1.796
16329TPSG    H616979   0.649   1.494   1.796
16330TPSG   HA216980   5.834   8.088   1.094
16330TPSG   CA216981   5.748   8.037   1.052
16330TPSG   CA116982   5.635   8.107   1.006
16330TPSG    Si16983   5.635   8.293   1.006
16330TPSG   CA616984   5.530   8.035   0.946
16330TPSG   HH616985   5.438   8.084   0.914
16330TPSG   CA516986   5.541   7.896   0.925
16330TPSG   HA516987   5.460   7.841   0.878
16330TPSG   CA416988   5.656   7.828   0.968
16330TPSG   HA416989   5.665   7.721   0.950
16330TPSG   CA316990   5.758   7.898   1.034
16330TPSG   HA316991   5.846   7.844   1.067
16330TPSG    O116992   5.655   8.177   0.892
16330TPSG    H616993   5.655   8.079   0.892
16331TPSG   HA216994   7.179   7.946   1.587
16331TPSG   CA216995   7.206   7.895   1.495
16331TPSG   CA116996   7.231   7.965   1.376
16331TPSG    Si16997   7.231   8.151   1.376
16331TPSG   CA616998   7.272   7.893   1.262
16331TPSG   HH616999   7.287   7.942   1.166
16331TPSG   CA517000   7.295   7.754   1.269
16331TPSG   HA517001   7.327   7.699   1.182
16331TPSG   CA417002   7.272   7.686   1.390
16331TPSG   HA417003   7.291   7.579   1.396
16331TPSG   CA317004   7.225   7.756   1.502
16331TPSG   HA317005   7.208   7.702   1.595
16331TPSG    O117006   7.347   8.035   1.376
16331TPSG    H617007   7.347   7.937   1.376
16332TPSG   HA217008   2.430   1.618   1.987
16332TPSG   CA217009   2.457   1.669   2.079
16332TPSG   CA117010   2.482   1.599   2.198
16332TPSG    Si17011   2.482   1.413   2.198
16332TPSG   CA617012   2.523   1.671   2.312
16332TPSG   HH617013   2.538   1.622   2.408
16332TPSG   CA517014   2.546   1.810   2.305
16332TPSG   HA517015   2.578   1.865   2.392
16332TPSG   CA417016   2.523   1.878   2.184
16332TPSG   HA417017   2.542   1.985   2.178
16332TPSG   CA317018   2.476   1.808   2.072
16332TPSG   HA317019   2.459   1.862   1.979
16332TPSG    O117020   2.598   1.529   2.198
16332TPSG    H617021   2.598   1.627   2.198
16333TPSG   HA217022   1.590   1.540   5.578
16333TPSG   CA217023   1.617   1.591   5.670
16333TPSG   CA117024   1.642   1.521   5.789
16333TPSG    Si17025   1.642   1.335   5.789
16333TPSG   CA617026   1.683   1.593   5.903
16333TPSG   HH617027   1.698   1.544   5.999
16333TPSG   CA517028   1.706   1.732   5.896
16333TPSG   HA517029   1.738   1.787   5.983
16333TPSG   CA417030   1.683   1.800   5.775
16333TPSG   HA417031   1.702   1.907   5.769
16333TPSG   CA317032   1.636   1.730   5.663
16333TPSG   HA317033   1.619   1.784   5.570
16333TPSG    O117034   1.758   1.451   5.789
16333TPSG    H617035   1.758   1.549   5.789
16334TPSG   HA217036   6.823   1.518   5.826
16334TPSG   CA217037   6.850   1.569   5.918
16334TPSG   CA117038   6.875   1.499   6.037
16334TPSG    Si17039   6.875   1.313   6.037
16334TPSG   CA617040   6.916   1.571   6.151
16334TPSG   HH617041   6.931   1.522   6.247
16334TPSG   CA517042   6.939   1.710   6.144
16334TPSG   HA517043   6.971   1.765   6.231
16334TPSG   CA417044   6.916   1.778   6.023
16334TPSG   HA417045   6.935   1.885   6.017
16334TPSG   CA317046   6.869   1.708   5.911
16334TPSG   HA317047   6.852   1.762   5.818
16334TPSG    O117048   6.991   1.429   6.037
16334TPSG    H617049   6.991   1.527   6.037
16335TPSG   HA217050   2.128   8.040   7.768
16335TPSG   CA217051   2.155   7.989   7.676
16335TPSG   CA117052   2.180   8.059   7.557
16335TPSG    Si17053   2.180   8.245   7.557
16335TPSG   CA617054   2.221   7.987   7.443
16335TPSG   HH617055   2.236   8.036   7.347
16335TPSG   CA517056   2.244   7.848   7.450
16335TPSG   HA517057   2.276   7.793   7.363
16335TPSG   CA417058   2.221   7.780   7.571
16335TPSG   HA417059   2.240   7.673   7.577
16335TPSG   CA317060   2.174   7.850   7.683
16335TPSG   HA317061   2.157   7.796   7.776
16335TPSG    O117062   2.296   8.129   7.557
16335TPSG    H617063   2.296   8.031   7.557
16336TPSG   HA217064   1.897   7.984   1.588
16336TPSG   CA217065   1.924   7.933   1.496
16336TPSG   CA117066   1.949   8.003   1.377
16336TPSG    Si17067   1.949   8.189   1.377
16336TPSG   CA617068   1.990   7.931   1.263
16336TPSG   HH617069   2.005   7.980   1.167
16336TPSG   CA517070   2.013   7.792   1.270
16336TPSG   HA517071   2.045   7.737   1.183
16336TPSG   CA417072   1.990   7.724   1.391
16336TPSG   HA417073   2.009   7.617   1.397
16336TPSG   CA317074   1.943   7.794   1.503
16336TPSG   HA317075   1.926   7.740   1.596
16336TPSG    O117076   2.065   8.073   1.377
16336TPSG    H617077   2.065   7.975   1.377
16337TPSG   HA217078   8.534   7.968   2.181
16337TPSG   CA217079   8.561   7.917   2.089
16337TPSG   CA117080   8.586   7.987   1.970
16337TPSG    Si17081   8.586   8.173   1.970
16337TPSG   CA617082   8.627   7.915   1.856
16337TPSG   HH617083   8.642   7.964   1.760
16337TPSG   CA517084   8.650   7.776   1.863
16337TPSG   HA517085   8.682   7.721   1.776
16337TPSG   CA417086   8.627   7.708   1.984
16337TPSG   HA417087   8.646   7.601   1.990
16337TPSG   CA317088   8.580   7.778   2.096
16337TPSG   HA317089   8.563   7.724   2.189
16337TPSG    O117090   8.702   8.057   1.970
16337TPSG    H617091   8.702   7.959   1.970
16338TPSG   HA217092   7.296   8.008   2.484
16338TPSG   CA217093   7.323   7.957   2.392
16338TPSG   CA117094   7.348   8.027   2.273
16338TPSG    Si17095   7.348   8.213   2.273
16338TPSG   CA617096   7.389   7.955   2.159
16338TPSG   HH617097   7.404   8.004   2.063
16338TPSG   CA517098   7.412   7.816   2.166
16338TPSG   HA517099   7.444   7.761   2.079
16338TPSG   CA417100   7.389   7.748   2.287
16338TPSG   HA417101   7.408   7.641   2.293
16338TPSG   CA317102   7.342   7.818   2.399
16338TPSG   HA317103   7.325   7.764   2.492
16338TPSG    O117104   7.464   8.097   2.273
16338TPSG    H617105   7.464   7.999   2.273
16339TPSG   HA217106   8.952   1.495  -0.040
16339TPSG   CA217107   8.979   1.546   0.052
16339TPSG   CA117108   9.004   1.476   0.171
16339TPSG    Si17109   9.004   1.290   0.171
16339TPSG   CA617110   9.045   1.548   0.285
16339TPSG   HH617111   9.060   1.499   0.381
16339TPSG   CA517112   9.068   1.687   0.278
16339TPSG   HA517113   9.100   1.742   0.365
16339TPSG   CA417114   9.045   1.755   0.157
16339TPSG   HA417115   9.064   1.862   0.151
16339TPSG   CA317116   8.998   1.685   0.045
16339TPSG   HA317117   8.981   1.739  -0.048
16339TPSG    O117118   9.120   1.406   0.171
16339TPSG    H617119   9.120   1.504   0.171
16340TPSG   HA217120   9.479   1.429   3.304
16340TPSG   CA217121   9.506   1.480   3.396
16340TPSG   CA117122   9.531   1.410   3.515
16340TPSG    Si17123   9.531   1.224   3.515
16340TPSG   CA617124   9.572   1.482   3.629
16340TPSG   HH617125   9.587   1.433   3.725
16340TPSG   CA517126   9.595   1.621   3.622
16340TPSG   HA517127   9.627   1.676   3.709
16340TPSG   CA417128   9.572   1.689   3.501
16340TPSG   HA417129   9.591   1.796   3.495
16340TPSG   CA317130   9.525   1.619   3.389
16340TPSG   HA317131   9.508   1.673   3.296
16340TPSG    O117132   9.647   1.340   3.515
16340TPSG    H617133   9.647   1.438   3.515
16341TPSG   HA217134   4.157   1.576   3.353
16341TPSG   CA217135   4.184   1.627   3.445
16341TPSG   CA117136   4.209   1.557   3.564
16341TPSG    Si17137   4.209   1.371   3.564
16341TPSG   CA617138   4.250   1.629   3.678
16341TPSG   HH617139   4.265   1.580   3.774
16341TPSG   CA517140   4.273   1.768   3.671
16341TPSG   HA517141   4.305   1.823   3.758
16341TPSG   CA417142   4.250   1.836   3.550
16341TPSG   HA417143   4.269   1.943   3.544
16341TPSG   CA317144   4.203   1.766   3.438
16341TPSG   HA317145   4.186   1.820   3.345
16341TPSG    O117146   4.325   1.487   3.564
16341TPSG    H617147   4.325   1.585   3.564
16342TPSG   HA217148   4.717   1.552   7.566
16342TPSG   CA217149   4.744   1.603   7.658
16342TPSG   CA117150   4.769   1.533   7.777
16342TPSG    Si17151   4.769   1.347   7.777
16342TPSG   CA617152   4.810   1.605   7.891
16342TPSG   HH617153   4.825   1.556   7.987
16342TPSG   CA517154   4.833   1.744   7.884
16342TPSG   HA517155   4.865   1.799   7.971
16342TPSG   CA417156   4.810   1.812   7.763
16342TPSG   HA417157   4.829   1.919   7.757
16342TPSG   CA317158   4.763   1.742   7.651
16342TPSG   HA317159   4.746   1.796   7.558
16342TPSG    O117160   4.885   1.463   7.777
16342TPSG    H617161   4.885   1.561   7.777
16343TPSG   HA217162   1.816   1.576   0.988
16343TPSG   CA217163   1.843   1.627   1.080
16343TPSG   CA117164   1.868   1.557   1.199
16343TPSG    Si17165   1.868   1.371   1.199
16343TPSG   CA617166   1.909   1.629   1.313
16343TPSG   HH617167   1.924   1.580   1.409
16343TPSG   CA517168   1.932   1.768   1.306
16343TPSG   HA517169   1.964   1.823   1.393
16343TPSG   CA417170   1.909   1.836   1.185
16343TPSG   HA417171   1.928   1.943   1.179
16343TPSG   CA317172   1.862   1.766   1.073
16343TPSG   HA317173   1.845   1.820   0.980
16343TPSG    O117174   1.984   1.487   1.199
16343TPSG    H617175   1.984   1.585   1.199
16344TPSG   HA217176   6.505   7.986   3.957
16344TPSG   CA217177   6.532   7.935   3.865
16344TPSG   CA117178   6.557   8.005   3.746
16344TPSG    Si17179   6.557   8.191   3.746
16344TPSG   CA617180   6.598   7.933   3.632
16344TPSG   HH617181   6.613   7.982   3.536
16344TPSG   CA517182   6.621   7.794   3.639
16344TPSG   HA517183   6.653   7.739   3.552
16344TPSG   CA417184   6.598   7.726   3.760
16344TPSG   HA417185   6.617   7.619   3.766
16344TPSG   CA317186   6.551   7.796   3.872
16344TPSG   HA317187   6.534   7.742   3.965
16344TPSG    O117188   6.673   8.075   3.746
16344TPSG    H617189   6.673   7.977   3.746
16345TPSG   HA217190   9.535   1.558   0.903
16345TPSG   CA217191   9.496   1.609   0.990
16345TPSG   CA117192   9.439   1.539   1.098
16345TPSG    Si17193   9.439   1.353   1.098
16345TPSG   CA617194   9.397   1.611   1.212
16345TPSG   HH617195   9.347   1.562   1.295
16345TPSG   CA517196   9.419   1.750   1.220
16345TPSG   HA517197   9.388   1.805   1.309
16345TPSG   CA417198   9.479   1.818   1.114
16345TPSG   HA417199   9.498   1.925   1.121
16345TPSG   CA317200   9.515   1.748   0.998
16345TPSG   HA317201   9.562   1.802   0.915
16345TPSG    O117202   9.528   1.469   1.173
16345TPSG    H617203   9.528   1.567   1.173
16346TPSG   HA217204   4.662   8.003   5.813
16346TPSG   CA217205   4.689   7.952   5.721
16346TPSG   CA117206   4.714   8.022   5.602
16346TPSG    Si17207   4.714   8.208   5.602
16346TPSG   CA617208   4.755   7.950   5.488
16346TPSG   HH617209   4.770   7.999   5.392
16346TPSG   CA517210   4.778   7.811   5.495
16346TPSG   HA517211   4.810   7.756   5.408
16346TPSG   CA417212   4.755   7.743   5.616
16346TPSG   HA417213   4.774   7.636   5.622
16346TPSG   CA317214   4.708   7.813   5.728
16346TPSG   HA317215   4.691   7.759   5.821
16346TPSG    O117216   4.830   8.092   5.602
16346TPSG    H617217   4.830   7.994   5.602
16347TPSG   HA217218   5.249   1.550   4.377
16347TPSG   CA217219   5.276   1.601   4.469
16347TPSG   CA117220   5.301   1.531   4.588
16347TPSG    Si17221   5.301   1.345   4.588
16347TPSG   CA617222   5.342   1.603   4.702
16347TPSG   HH617223   5.357   1.554   4.798
16347TPSG   CA517224   5.365   1.742   4.695
16347TPSG   HA517225   5.397   1.797   4.782
16347TPSG   CA417226   5.342   1.810   4.574
16347TPSG   HA417227   5.361   1.917   4.568
16347TPSG   CA317228   5.295   1.740   4.462
16347TPSG   HA317229   5.278   1.794   4.369
16347TPSG    O117230   5.417   1.461   4.588
16347TPSG    H617231   5.417   1.559   4.588
16348TPSG   HA217232   8.233   1.627   4.507
16348TPSG   CA217233   8.260   1.678   4.599
16348TPSG   CA117234   8.285   1.608   4.718
16348TPSG    Si17235   8.285   1.422   4.718
16348TPSG   CA617236   8.326   1.680   4.832
16348TPSG   HH617237   8.341   1.631   4.928
16348TPSG   CA517238   8.349   1.819   4.825
16348TPSG   HA517239   8.381   1.874   4.912
16348TPSG   CA417240   8.326   1.887   4.704
16348TPSG   HA417241   8.345   1.994   4.698
16348TPSG   CA317242   8.279   1.817   4.592
16348TPSG   HA317243   8.262   1.871   4.499
16348TPSG    O117244   8.401   1.538   4.718
16348TPSG    H617245   8.401   1.636   4.718
16349TPSG   HA217246   1.436   1.632   8.303
16349TPSG   CA217247   1.463   1.683   8.395
16349TPSG   CA117248   1.488   1.613   8.514
16349TPSG    Si17249   1.488   1.427   8.514
16349TPSG   CA617250   1.529   1.685   8.628
16349TPSG   HH617251   1.544   1.636   8.724
16349TPSG   CA517252   1.552   1.824   8.621
16349TPSG   HA517253   1.584   1.879   8.708
16349TPSG   CA417254   1.529   1.892   8.500
16349TPSG   HA417255   1.548   1.999   8.494
16349TPSG   CA317256   1.482   1.822   8.388
16349TPSG   HA317257   1.465   1.876   8.295
16349TPSG    O117258   1.604   1.543   8.514
16349TPSG    H617259   1.604   1.641   8.514
16350TPSG   HA217260   3.335   1.562   0.178
16350TPSG   CA217261   3.362   1.613   0.270
16350TPSG   CA117262   3.387   1.543   0.389
16350TPSG    Si17263   3.387   1.357   0.389
16350TPSG   CA617264   3.428   1.615   0.503
16350TPSG   HH617265   3.443   1.566   0.599
16350TPSG   CA517266   3.451   1.754   0.496
16350TPSG   HA517267   3.483   1.809   0.583
16350TPSG   CA417268   3.428   1.822   0.375
16350TPSG   HA417269   3.447   1.929   0.369
16350TPSG   CA317270   3.381   1.752   0.263
16350TPSG   HA317271   3.364   1.806   0.170
16350TPSG    O117272   3.503   1.473   0.389
16350TPSG    H617273   3.503   1.571   0.389
16351TPSG   HA217274  -0.031   8.131   6.018
16351TPSG   CA217275  -0.004   8.080   5.926
16351TPSG   CA117276   0.021   8.150   5.807
16351TPSG    Si17277   0.021   8.336   5.807
16351TPSG   CA617278   0.062   8.078   5.693
16351TPSG   HH617279   0.077   8.127   5.597
16351TPSG   CA517280   0.085   7.939   5.700
16351TPSG   HA517281   0.117   7.884   5.613
16351TPSG   CA417282   0.062   7.871   5.821
16351TPSG   HA417283   0.081   7.764   5.827
16351TPSG   CA317284   0.015   7.941   5.933
16351TPSG   HA317285  -0.002   7.887   6.026
16351TPSG    O117286   0.137   8.220   5.807
16351TPSG    H617287   0.137   8.122   5.807
16352TPSG   HA217288   1.790   1.596   4.983
16352TPSG   CA217289   1.817   1.647   5.075
16352TPSG   CA117290   1.842   1.577   5.194
16352TPSG    Si17291   1.842   1.391   5.194
16352TPSG   CA617292   1.883   1.649   5.308
16352TPSG   HH617293   1.898   1.600   5.404
16352TPSG   CA517294   1.906   1.788   5.301
16352TPSG   HA517295   1.938   1.843   5.388
16352TPSG   CA417296   1.883   1.856   5.180
16352TPSG   HA417297   1.902   1.963   5.174
16352TPSG   CA317298   1.836   1.786   5.068
16352TPSG   HA317299   1.819   1.840   4.975
16352TPSG    O117300   1.958   1.507   5.194
16352TPSG    H617301   1.958   1.605   5.194
16353TPSG   HA217302   5.190   1.533   7.025
16353TPSG   CA217303   5.184   1.584   7.120
16353TPSG   CA117304   5.167   1.514   7.241
16353TPSG    Si17305   5.167   1.328   7.241
16353TPSG   CA617306   5.167   1.586   7.362
16353TPSG   HH617307   5.148   1.537   7.457
16353TPSG   CA517308   5.190   1.725   7.363
16353TPSG   HA517309   5.191   1.780   7.456
16353TPSG   CA417310   5.210   1.793   7.242
16353TPSG   HA417311   5.230   1.900   7.243
16353TPSG   CA317312   5.204   1.723   7.121
16353TPSG   HA317313   5.220   1.777   7.028
16353TPSG    O117314   5.276   1.444   7.281
16353TPSG    H617315   5.276   1.542   7.281
16354TPSG   HA217316   5.981   7.996   7.180
16354TPSG   CA217317   6.008   7.945   7.088
16354TPSG   CA117318   6.033   8.015   6.969
16354TPSG    Si17319   6.033   8.201   6.969
16354TPSG   CA617320   6.074   7.943   6.855
16354TPSG   HH617321   6.089   7.992   6.759
16354TPSG   CA517322   6.097   7.804   6.862
16354TPSG   HA517323   6.129   7.749   6.775
16354TPSG   CA417324   6.074   7.736   6.983
16354TPSG   HA417325   6.093   7.629   6.989
16354TPSG   CA317326   6.027   7.806   7.095
16354TPSG   HA317327   6.010   7.752   7.188
16354TPSG    O117328   6.149   8.085   6.969
16354TPSG    H617329   6.149   7.987   6.969
16355TPSG   HA217330   8.873   1.527   8.582
16355TPSG   CA217331   8.900   1.578   8.674
16355TPSG   CA117332   8.925   1.508   8.793
16355TPSG    Si17333   8.925   1.322   8.793
16355TPSG   CA617334   8.966   1.580   8.907
16355TPSG   HH617335   8.981   1.531   9.003
16355TPSG   CA517336   8.989   1.719   8.900
16355TPSG   HA517337   9.021   1.774   8.987
16355TPSG   CA417338   8.966   1.787   8.779
16355TPSG   HA417339   8.985   1.894   8.773
16355TPSG   CA317340   8.919   1.717   8.667
16355TPSG   HA317341   8.902   1.771   8.574
16355TPSG    O117342   9.041   1.438   8.793
16355TPSG    H617343   9.041   1.536   8.793
16356TPSG   HA217344   1.790   8.106   2.800
16356TPSG   CA217345   1.817   8.055   2.708
16356TPSG   CA117346   1.842   8.125   2.589
16356TPSG    Si17347   1.842   8.311   2.589
16356TPSG   CA617348   1.883   8.053   2.475
16356TPSG   HH617349   1.898   8.102   2.379
16356TPSG   CA517350   1.906   7.914   2.482
16356TPSG   HA517351   1.938   7.859   2.395
16356TPSG   CA417352   1.883   7.846   2.603
16356TPSG   HA417353   1.902   7.739   2.609
16356TPSG   CA317354   1.836   7.916   2.715
16356TPSG   HA317355   1.819   7.862   2.808
16356TPSG    O117356   1.958   8.195   2.589
16356TPSG    H617357   1.958   8.097   2.589
16357TPSG   HA217358   5.975   8.024   4.058
16357TPSG   CA217359   6.002   7.973   3.966
16357TPSG   CA117360   6.027   8.043   3.847
16357TPSG    Si17361   6.027   8.229   3.847
16357TPSG   CA617362   6.068   7.971   3.733
16357TPSG   HH617363   6.083   8.020   3.637
16357TPSG   CA517364   6.091   7.832   3.740
16357TPSG   HA517365   6.123   7.777   3.653
16357TPSG   CA417366   6.068   7.764   3.861
16357TPSG   HA417367   6.087   7.657   3.867
16357TPSG   CA317368   6.021   7.834   3.973
16357TPSG   HA317369   6.004   7.780   4.066
16357TPSG    O117370   6.143   8.113   3.847
16357TPSG    H617371   6.143   8.015   3.847
16358TPSG   HA217372   8.586   8.049   0.304
16358TPSG   CA217373   8.613   7.998   0.212
16358TPSG   CA117374   8.638   8.068   0.093
16358TPSG    Si17375   8.638   8.254   0.093
16358TPSG   CA617376   8.679   7.996  -0.021
16358TPSG   HH617377   8.694   8.045  -0.117
16358TPSG   CA517378   8.702   7.857  -0.014
16358TPSG   HA517379   8.734   7.802  -0.101
16358TPSG   CA417380   8.679   7.789   0.107
16358TPSG   HA417381   8.698   7.682   0.113
16358TPSG   CA317382   8.632   7.859   0.219
16358TPSG   HA317383   8.615   7.805   0.312
16358TPSG    O117384   8.754   8.138   0.093
16358TPSG    H617385   8.754   8.040   0.093
16359TPSG   HA217386   7.359   8.042   0.506
16359TPSG   CA217387   7.386   7.991   0.414
16359TPSG   CA117388   7.411   8.061   0.295
16359TPSG    Si17389   7.411   8.247   0.295
16359TPSG   CA617390   7.452   7.989   0.181
16359TPSG   HH617391   7.467   8.038   0.085
16359TPSG   CA517392   7.475   7.850   0.188
16359TPSG   HA517393   7.507   7.795   0.101
16359TPSG   CA417394   7.452   7.782   0.309
16359TPSG   HA417395   7.471   7.675   0.315
16359TPSG   CA317396   7.405   7.852   0.421
16359TPSG   HA317397   7.388   7.798   0.514
16359TPSG    O117398   7.527   8.131   0.295
16359TPSG    H617399   7.527   8.033   0.295
16360TPSG   HA217400   3.614   1.602   8.257
16360TPSG   CA217401   3.641   1.653   8.349
16360TPSG   CA117402   3.666   1.583   8.468
16360TPSG    Si17403   3.666   1.397   8.468
16360TPSG   CA617404   3.707   1.655   8.582
16360TPSG   HH617405   3.722   1.606   8.678
16360TPSG   CA517406   3.730   1.794   8.575
16360TPSG   HA517407   3.762   1.849   8.662
16360TPSG   CA417408   3.707   1.862   8.454
16360TPSG   HA417409   3.726   1.969   8.448
16360TPSG   CA317410   3.660   1.792   8.342
16360TPSG   HA317411   3.643   1.846   8.249
16360TPSG    O117412   3.782   1.513   8.468
16360TPSG    H617413   3.782   1.611   8.468
16361TPSG   HA217414   1.601   1.632   6.123
16361TPSG   CA217415   1.628   1.683   6.215
16361TPSG   CA117416   1.653   1.613   6.334
16361TPSG    Si17417   1.653   1.427   6.334
16361TPSG   CA617418   1.694   1.685   6.448
16361TPSG   HH617419   1.709   1.636   6.544
16361TPSG   CA517420   1.717   1.824   6.441
16361TPSG   HA517421   1.749   1.879   6.528
16361TPSG   CA417422   1.694   1.892   6.320
16361TPSG   HA417423   1.713   1.999   6.314
16361TPSG   CA317424   1.647   1.822   6.208
16361TPSG   HA317425   1.630   1.876   6.115
16361TPSG    O117426   1.769   1.543   6.334
16361TPSG    H617427   1.769   1.641   6.334
16362TPSG   HA217428   4.433   1.463   3.795
16362TPSG   CA217429   4.427   1.514   3.890
16362TPSG   CA117430   4.410   1.444   4.011
16362TPSG    Si17431   4.410   1.258   4.011
16362TPSG   CA617432   4.410   1.516   4.132
16362TPSG   HH617433   4.391   1.467   4.227
16362TPSG   CA517434   4.433   1.655   4.133
16362TPSG   HA517435   4.434   1.710   4.226
16362TPSG   CA417436   4.453   1.723   4.012
16362TPSG   HA417437   4.473   1.830   4.013
16362TPSG   CA317438   4.447   1.653   3.891
16362TPSG   HA317439   4.463   1.707   3.798
16362TPSG    O117440   4.519   1.374   4.051
16362TPSG    H617441   4.519   1.472   4.051
16363TPSG   HA217442   8.821   8.033   4.703
16363TPSG   CA217443   8.848   7.982   4.611
16363TPSG   CA117444   8.873   8.052   4.492
16363TPSG    Si17445   8.873   8.238   4.492
16363TPSG   CA617446   8.914   7.980   4.378
16363TPSG   HH617447   8.929   8.029   4.282
16363TPSG   CA517448   8.937   7.841   4.385
16363TPSG   HA517449   8.969   7.786   4.298
16363TPSG   CA417450   8.914   7.773   4.506
16363TPSG   HA417451   8.933   7.666   4.512
16363TPSG   CA317452   8.867   7.843   4.618
16363TPSG   HA317453   8.850   7.789   4.711
16363TPSG    O117454   8.989   8.122   4.492
16363TPSG    H617455   8.989   8.024   4.492
16364TPSG   HA217456   6.798   8.036   1.799
16364TPSG   CA217457   6.759   7.985   1.712
16364TPSG   CA117458   6.702   8.055   1.604
16364TPSG    Si17459   6.702   8.241   1.604
16364TPSG   CA617460   6.660   7.983   1.490
16364TPSG   HH617461   6.610   8.032   1.407
16364TPSG   CA517462   6.682   7.844   1.482
16364TPSG   HA517463   6.651   7.789   1.393
16364TPSG   CA417464   6.742   7.776   1.588
16364TPSG   HA417465   6.761   7.669   1.581
16364TPSG   CA317466   6.778   7.846   1.704
16364TPSG   HA317467   6.825   7.792   1.787
16364TPSG    O117468   6.791   8.125   1.529
16364TPSG    H617469   6.791   8.027   1.529
16365TPSG   HA217470   2.184   1.445  -0.013
16365TPSG   CA217471   2.211   1.496   0.079
16365TPSG   CA117472   2.236   1.426   0.198
16365TPSG    Si17473   2.236   1.240   0.198
16365TPSG   CA617474   2.277   1.498   0.312
16365TPSG   HH617475   2.292   1.449   0.408
16365TPSG   CA517476   2.300   1.637   0.305
16365TPSG   HA517477   2.332   1.692   0.392
16365TPSG   CA417478   2.277   1.705   0.184
16365TPSG   HA417479   2.296   1.812   0.178
16365TPSG   CA317480   2.230   1.635   0.072
16365TPSG   HA317481   2.213   1.689  -0.021
16365TPSG    O117482   2.352   1.356   0.198
16365TPSG    H617483   2.352   1.454   0.198
16366TPSG   HA217484   7.426   8.173   5.173
16366TPSG   CA217485   7.453   8.122   5.081
16366TPSG   CA117486   7.478   8.192   4.962
16366TPSG    Si17487   7.478   8.378   4.962
16366TPSG   CA617488   7.519   8.120   4.848
16366TPSG   HH617489   7.534   8.169   4.752
16366TPSG   CA517490   7.542   7.981   4.855
16366TPSG   HA517491   7.574   7.926   4.768
16366TPSG   CA417492   7.519   7.913   4.976
16366TPSG   HA417493   7.538   7.806   4.982
16366TPSG   CA317494   7.472   7.983   5.088
16366TPSG   HA317495   7.455   7.929   5.181
16366TPSG    O117496   7.594   8.262   4.962
16366TPSG    H617497   7.594   8.164   4.962
16367TPSG   HA217498   2.565   1.516   7.281
16367TPSG   CA217499   2.592   1.567   7.373
16367TPSG   CA117500   2.617   1.497   7.492
16367TPSG    Si17501   2.617   1.311   7.492
16367TPSG   CA617502   2.658   1.569   7.606
16367TPSG   HH617503   2.673   1.520   7.702
16367TPSG   CA517504   2.681   1.708   7.599
16367TPSG   HA517505   2.713   1.763   7.686
16367TPSG   CA417506   2.658   1.776   7.478
16367TPSG   HA417507   2.677   1.883   7.472
16367TPSG   CA317508   2.611   1.706   7.366
16367TPSG   HA317509   2.594   1.760   7.273
16367TPSG    O117510   2.733   1.427   7.492
16367TPSG    H617511   2.733   1.525   7.492
16368TPSG   HA217512   4.625   1.612   7.976
16368TPSG   CA217513   4.652   1.663   8.068
16368TPSG   CA117514   4.677   1.593   8.187
16368TPSG    Si17515   4.677   1.407   8.187
16368TPSG   CA617516   4.718   1.665   8.301
16368TPSG   HH617517   4.733   1.616   8.397
16368TPSG   CA517518   4.741   1.804   8.294
16368TPSG   HA517519   4.773   1.859   8.381
16368TPSG   CA417520   4.718   1.872   8.173
16368TPSG   HA417521   4.737   1.979   8.167
16368TPSG   CA317522   4.671   1.802   8.061
16368TPSG   HA317523   4.654   1.856   7.968
16368TPSG    O117524   4.793   1.523   8.187
16368TPSG    H617525   4.793   1.621   8.187
16369TPSG   HA217526   3.141   1.605   9.208
16369TPSG   CA217527   3.168   1.656   9.300
16369TPSG   CA117528   3.193   1.586   9.419
16369TPSG    Si17529   3.193   1.400   9.419
16369TPSG   CA617530   3.234   1.658   9.533
16369TPSG   HH617531   3.249   1.609   9.629
16369TPSG   CA517532   3.257   1.797   9.526
16369TPSG   HA517533   3.289   1.852   9.613
16369TPSG   CA417534   3.234   1.865   9.405
16369TPSG   HA417535   3.253   1.972   9.399
16369TPSG   CA317536   3.187   1.795   9.293
16369TPSG   HA317537   3.170   1.849   9.200
16369TPSG    O117538   3.309   1.516   9.419
16369TPSG    H617539   3.309   1.614   9.419
16370TPSG   HA217540   4.459   8.108   7.528
16370TPSG   CA217541   4.486   8.057   7.436
16370TPSG   CA117542   4.511   8.127   7.317
16370TPSG    Si17543   4.511   8.313   7.317
16370TPSG   CA617544   4.552   8.055   7.203
16370TPSG   HH617545   4.567   8.104   7.107
16370TPSG   CA517546   4.575   7.916   7.210
16370TPSG   HA517547   4.607   7.861   7.123
16370TPSG   CA417548   4.552   7.848   7.331
16370TPSG   HA417549   4.571   7.741   7.337
16370TPSG   CA317550   4.505   7.918   7.443
16370TPSG   HA317551   4.488   7.864   7.536
16370TPSG    O117552   4.627   8.197   7.317
16370TPSG    H617553   4.627   8.099   7.317
16371TPSG   HA217554   7.794   7.997   4.410
16371TPSG   CA217555   7.821   7.946   4.318
16371TPSG   CA117556   7.846   8.016   4.199
16371TPSG    Si17557   7.846   8.202   4.199
16371TPSG   CA617558   7.887   7.944   4.085
16371TPSG   HH617559   7.902   7.993   3.989
16371TPSG   CA517560   7.910   7.805   4.092
16371TPSG   HA517561   7.942   7.750   4.005
16371TPSG   CA417562   7.887   7.737   4.213
16371TPSG   HA417563   7.906   7.630   4.219
16371TPSG   CA317564   7.840   7.807   4.325
16371TPSG   HA317565   7.823   7.753   4.418
16371TPSG    O117566   7.962   8.086   4.199
16371TPSG    H617567   7.962   7.988   4.199
16372TPSG   HA217568   2.088   1.505   0.862
16372TPSG   CA217569   2.115   1.556   0.954
16372TPSG   CA117570   2.140   1.486   1.073
16372TPSG    Si17571   2.140   1.300   1.073
16372TPSG   CA617572   2.181   1.558   1.187
16372TPSG   HH617573   2.196   1.509   1.283
16372TPSG   CA517574   2.204   1.697   1.180
16372TPSG   HA517575   2.236   1.752   1.267
16372TPSG   CA417576   2.181   1.765   1.059
16372TPSG   HA417577   2.200   1.872   1.053
16372TPSG   CA317578   2.134   1.695   0.947
16372TPSG   HA317579   2.117   1.749   0.854
16372TPSG    O117580   2.256   1.416   1.073
16372TPSG    H617581   2.256   1.514   1.073
16373TPSG   HA217582   5.900   8.062   2.496
16373TPSG   CA217583   5.927   8.011   2.404
16373TPSG   CA117584   5.952   8.081   2.285
16373TPSG    Si17585   5.952   8.267   2.285
16373TPSG   CA617586   5.993   8.009   2.171
16373TPSG   HH617587   6.008   8.058   2.075
16373TPSG   CA517588   6.016   7.870   2.178
16373TPSG   HA517589   6.048   7.815   2.091
16373TPSG   CA417590   5.993   7.802   2.299
16373TPSG   HA417591   6.012   7.695   2.305
16373TPSG   CA317592   5.946   7.872   2.411
16373TPSG   HA317593   5.929   7.818   2.504
16373TPSG    O117594   6.068   8.151   2.285
16373TPSG    H617595   6.068   8.053   2.285
16374TPSG   HA217596   4.232   1.629   6.656
16374TPSG   CA217597   4.259   1.680   6.748
16374TPSG   CA117598   4.284   1.610   6.867
16374TPSG    Si17599   4.284   1.424   6.867
16374TPSG   CA617600   4.325   1.682   6.981
16374TPSG   HH617601   4.340   1.633   7.077
16374TPSG   CA517602   4.348   1.821   6.974
16374TPSG   HA517603   4.380   1.876   7.061
16374TPSG   CA417604   4.325   1.889   6.853
16374TPSG   HA417605   4.344   1.996   6.847
16374TPSG   CA317606   4.278   1.819   6.741
16374TPSG   HA317607   4.261   1.873   6.648
16374TPSG    O117608   4.400   1.540   6.867
16374TPSG    H617609   4.400   1.638   6.867
16375TPSG   HA217610   4.668   1.596   1.320
16375TPSG   CA217611   4.695   1.647   1.412
16375TPSG   CA117612   4.720   1.577   1.531
16375TPSG    Si17613   4.720   1.391   1.531
16375TPSG   CA617614   4.761   1.649   1.645
16375TPSG   HH617615   4.776   1.600   1.741
16375TPSG   CA517616   4.784   1.788   1.638
16375TPSG   HA517617   4.816   1.843   1.725
16375TPSG   CA417618   4.761   1.856   1.517
16375TPSG   HA417619   4.780   1.963   1.511
16375TPSG   CA317620   4.714   1.786   1.405
16375TPSG   HA317621   4.697   1.840   1.312
16375TPSG    O117622   4.836   1.507   1.531
16375TPSG    H617623   4.836   1.605   1.531
16376TPSG   HA217624   7.486   8.018   1.109
16376TPSG   CA217625   7.391   7.967   1.098
16376TPSG   CA117626   7.269   8.037   1.094
16376TPSG    Si17627   7.269   8.223   1.094
16376TPSG   CA617628   7.149   7.965   1.073
16376TPSG   HH617629   7.053   8.014   1.075
16376TPSG   CA517630   7.153   7.826   1.050
16376TPSG   HA517631   7.061   7.771   1.033
16376TPSG   CA417632   7.275   7.758   1.051
16376TPSG   HA417633   7.278   7.651   1.031
16376TPSG   CA317634   7.394   7.828   1.078
16376TPSG   HA317635   7.488   7.774   1.079
16376TPSG    O117636   7.249   8.107   0.980
16376TPSG    H617637   7.249   8.009   0.980
16377TPSG   HA217638   6.104   8.065   3.117
16377TPSG   CA217639   6.131   8.014   3.025
16377TPSG   CA117640   6.156   8.084   2.906
16377TPSG    Si17641   6.156   8.270   2.906
16377TPSG   CA617642   6.197   8.012   2.792
16377TPSG   HH617643   6.212   8.061   2.696
16377TPSG   CA517644   6.220   7.873   2.799
16377TPSG   HA517645   6.252   7.818   2.712
16377TPSG   CA417646   6.197   7.805   2.920
16377TPSG   HA417647   6.216   7.698   2.926
16377TPSG   CA317648   6.150   7.875   3.032
16377TPSG   HA317649   6.133   7.821   3.125
16377TPSG    O117650   6.272   8.154   2.906
16377TPSG    H617651   6.272   8.056   2.906
16378TPSG   HA217652   6.784   1.605   6.098
16378TPSG   CA217653   6.778   1.656   6.193
16378TPSG   CA117654   6.761   1.586   6.314
16378TPSG    Si17655   6.761   1.400   6.314
16378TPSG   CA617656   6.761   1.658   6.435
16378TPSG   HH617657   6.742   1.609   6.530
16378TPSG   CA517658   6.784   1.797   6.436
16378TPSG   HA517659   6.785   1.852   6.529
16378TPSG   CA417660   6.804   1.865   6.315
16378TPSG   HA417661   6.824   1.972   6.316
16378TPSG   CA317662   6.798   1.795   6.194
16378TPSG   HA317663   6.814   1.849   6.101
16378TPSG    O117664   6.870   1.516   6.354
16378TPSG    H617665   6.870   1.614   6.354
16379TPSG   HA217666   6.482   1.561   5.372
16379TPSG   CA217667   6.509   1.612   5.464
16379TPSG   CA117668   6.534   1.542   5.583
16379TPSG    Si17669   6.534   1.356   5.583
16379TPSG   CA617670   6.575   1.614   5.697
16379TPSG   HH617671   6.590   1.565   5.793
16379TPSG   CA517672   6.598   1.753   5.690
16379TPSG   HA517673   6.630   1.808   5.777
16379TPSG   CA417674   6.575   1.821   5.569
16379TPSG   HA417675   6.594   1.928   5.563
16379TPSG   CA317676   6.528   1.751   5.457
16379TPSG   HA317677   6.511   1.805   5.364
16379TPSG    O117678   6.650   1.472   5.583
16379TPSG    H617679   6.650   1.570   5.583
16380TPSG   HA217680   6.640   1.639   7.272
16380TPSG   CA217681   6.667   1.690   7.364
16380TPSG   CA117682   6.692   1.620   7.483
16380TPSG    Si17683   6.692   1.434   7.483
16380TPSG   CA617684   6.733   1.692   7.597
16380TPSG   HH617685   6.748   1.643   7.693
16380TPSG   CA517686   6.756   1.831   7.590
16380TPSG   HA517687   6.788   1.886   7.677
16380TPSG   CA417688   6.733   1.899   7.469
16380TPSG   HA417689   6.752   2.006   7.463
16380TPSG   CA317690   6.686   1.829   7.357
16380TPSG   HA317691   6.669   1.883   7.264
16380TPSG    O117692   6.808   1.550   7.483
16380TPSG    H617693   6.808   1.648   7.483
16381TPSG   HA217694   2.335   8.003   9.506
16381TPSG   CA217695   2.362   7.952   9.414
16381TPSG   CA117696   2.387   8.022   9.295
16381TPSG    Si17697   2.387   8.208   9.295
16381TPSG   CA617698   2.428   7.950   9.181
16381TPSG   HH617699   2.443   7.999   9.085
16381TPSG   CA517700   2.451   7.811   9.188
16381TPSG   HA517701   2.483   7.756   9.101
16381TPSG   CA417702   2.428   7.743   9.309
16381TPSG   HA417703   2.447   7.636   9.315
16381TPSG   CA317704   2.381   7.813   9.421
16381TPSG   HA317705   2.364   7.759   9.514
16381TPSG    O117706   2.503   8.092   9.295
16381TPSG    H617707   2.503   7.994   9.295
16382TPSG   HA217708   0.291   1.567   2.175
16382TPSG   CA217709   0.318   1.618   2.267
16382TPSG   CA117710   0.343   1.548   2.386
16382TPSG    Si17711   0.343   1.362   2.386
16382TPSG   CA617712   0.384   1.620   2.500
16382TPSG   HH617713   0.399   1.571   2.596
16382TPSG   CA517714   0.407   1.759   2.493
16382TPSG   HA517715   0.439   1.814   2.580
16382TPSG   CA417716   0.384   1.827   2.372
16382TPSG   HA417717   0.403   1.934   2.366
16382TPSG   CA317718   0.337   1.757   2.260
16382TPSG   HA317719   0.320   1.811   2.167
16382TPSG    O117720   0.459   1.478   2.386
16382TPSG    H617721   0.459   1.576   2.386
16383TPSG   HA217722   8.109   1.603   9.355
16383TPSG   CA217723   8.136   1.654   9.447
16383TPSG   CA117724   8.161   1.584   9.566
16383TPSG    Si17725   8.161   1.398   9.566
16383TPSG   CA617726   8.202   1.656   9.680
16383TPSG   HH617727   8.217   1.607   9.776
16383TPSG   CA517728   8.225   1.795   9.673
16383TPSG   HA517729   8.257   1.850   9.760
16383TPSG   CA417730   8.202   1.863   9.552
16383TPSG   HA417731   8.221   1.970   9.546
16383TPSG   CA317732   8.155   1.793   9.440
16383TPSG   HA317733   8.138   1.847   9.347
16383TPSG    O117734   8.277   1.514   9.566
16383TPSG    H617735   8.277   1.612   9.566
16384TPSG   HA217736   5.845   1.577   8.307
16384TPSG   CA217737   5.872   1.628   8.399
16384TPSG   CA117738   5.897   1.558   8.518
16384TPSG    Si17739   5.897   1.372   8.518
16384TPSG   CA617740   5.938   1.630   8.632
16384TPSG   HH617741   5.953   1.581   8.728
16384TPSG   CA517742   5.961   1.769   8.625
16384TPSG   HA517743   5.993   1.824   8.712
16384TPSG   CA417744   5.938   1.837   8.504
16384TPSG   HA417745   5.957   1.944   8.498
16384TPSG   CA317746   5.891   1.767   8.392
16384TPSG   HA317747   5.874   1.821   8.299
16384TPSG    O117748   6.013   1.488   8.518
16384TPSG    H617749   6.013   1.586   8.518
16385TPSG   HA217750   5.545   1.605   0.895
16385TPSG   CA217751   5.572   1.656   0.987
16385TPSG   CA117752   5.597   1.586   1.106
16385TPSG    Si17753   5.597   1.400   1.106
16385TPSG   CA617754   5.638   1.658   1.220
16385TPSG   HH617755   5.653   1.609   1.316
16385TPSG   CA517756   5.661   1.797   1.213
16385TPSG   HA517757   5.693   1.852   1.300
16385TPSG   CA417758   5.638   1.865   1.092
16385TPSG   HA417759   5.657   1.972   1.086
16385TPSG   CA317760   5.591   1.795   0.980
16385TPSG   HA317761   5.574   1.849   0.887
16385TPSG    O117762   5.713   1.516   1.106
16385TPSG    H617763   5.713   1.614   1.106
16386TPSG   HA217764   0.018   8.069   0.790
16386TPSG   CA217765   0.045   8.018   0.698
16386TPSG   CA117766   0.070   8.088   0.579
16386TPSG    Si17767   0.070   8.274   0.579
16386TPSG   CA617768   0.111   8.016   0.465
16386TPSG   HH617769   0.126   8.065   0.369
16386TPSG   CA517770   0.134   7.877   0.472
16386TPSG   HA517771   0.166   7.822   0.385
16386TPSG   CA417772   0.111   7.809   0.593
16386TPSG   HA417773   0.130   7.702   0.599
16386TPSG   CA317774   0.064   7.879   0.705
16386TPSG   HA317775   0.047   7.825   0.798
16386TPSG    O117776   0.186   8.158   0.579
16386TPSG    H617777   0.186   8.060   0.579
16387TPSG   HA217778   9.454   1.592   1.879
16387TPSG   CA217779   9.481   1.643   1.971
16387TPSG   CA117780   9.506   1.573   2.090
16387TPSG    Si17781   9.506   1.387   2.090
16387TPSG   CA617782   9.547   1.645   2.204
16387TPSG   HH617783   9.562   1.596   2.300
16387TPSG   CA517784   9.570   1.784   2.197
16387TPSG   HA517785   9.602   1.839   2.284
16387TPSG   CA417786   9.547   1.852   2.076
16387TPSG   HA417787   9.566   1.959   2.070
16387TPSG   CA317788   9.500   1.782   1.964
16387TPSG   HA317789   9.483   1.836   1.871
16387TPSG    O117790   9.622   1.503   2.090
16387TPSG    H617791   9.622   1.601   2.090
16388TPSG   HA217792   7.591   1.496  -0.174
16388TPSG   CA217793   7.618   1.547  -0.082
16388TPSG   CA117794   7.643   1.477   0.037
16388TPSG    Si17795   7.643   1.291   0.037
16388TPSG   CA617796   7.684   1.549   0.151
16388TPSG   HH617797   7.699   1.500   0.247
16388TPSG   CA517798   7.707   1.688   0.144
16388TPSG   HA517799   7.739   1.743   0.231
16388TPSG   CA417800   7.684   1.756   0.023
16388TPSG   HA417801   7.703   1.863   0.017
16388TPSG   CA317802   7.637   1.686  -0.089
16388TPSG   HA317803   7.620   1.740  -0.182
16388TPSG    O117804   7.759   1.407   0.037
16388TPSG    H617805   7.759   1.505   0.037
16389TPSG   HA217806   3.961   1.636   7.570
16389TPSG   CA217807   3.988   1.687   7.662
16389TPSG   CA117808   4.013   1.617   7.781
16389TPSG    Si17809   4.013   1.431   7.781
16389TPSG   CA617810   4.054   1.689   7.895
16389TPSG   HH617811   4.069   1.640   7.991
16389TPSG   CA517812   4.077   1.828   7.888
16389TPSG   HA517813   4.109   1.883   7.975
16389TPSG   CA417814   4.054   1.896   7.767
16389TPSG   HA417815   4.073   2.003   7.761
16389TPSG   CA317816   4.007   1.826   7.655
16389TPSG   HA317817   3.990   1.880   7.562
16389TPSG    O117818   4.129   1.547   7.781
16389TPSG    H617819   4.129   1.645   7.781
16390TPSG   HA217820   6.193   8.117   1.614
16390TPSG   CA217821   6.220   8.066   1.522
16390TPSG   CA117822   6.245   8.136   1.403
16390TPSG    Si17823   6.245   8.322   1.403
16390TPSG   CA617824   6.286   8.064   1.289
16390TPSG   HH617825   6.301   8.113   1.193
16390TPSG   CA517826   6.309   7.925   1.296
16390TPSG   HA517827   6.341   7.870   1.209
16390TPSG   CA417828   6.286   7.857   1.417
16390TPSG   HA417829   6.305   7.750   1.423
16390TPSG   CA317830   6.239   7.927   1.529
16390TPSG   HA317831   6.222   7.873   1.622
16390TPSG    O117832   6.361   8.206   1.403
16390TPSG    H617833   6.361   8.108   1.403
16391TPSG   HA217834   3.802   8.098   6.467
16391TPSG   CA217835   3.829   8.047   6.375
16391TPSG   CA117836   3.854   8.117   6.256
16391TPSG    Si17837   3.854   8.303   6.256
16391TPSG   CA617838   3.895   8.045   6.142
16391TPSG   HH617839   3.910   8.094   6.046
16391TPSG   CA517840   3.918   7.906   6.149
16391TPSG   HA517841   3.950   7.851   6.062
16391TPSG   CA417842   3.895   7.838   6.270
16391TPSG   HA417843   3.914   7.731   6.276
16391TPSG   CA317844   3.848   7.908   6.382
16391TPSG   HA317845   3.831   7.854   6.475
16391TPSG    O117846   3.970   8.187   6.256
16391TPSG    H617847   3.970   8.089   6.256
16392TPSG   HA217848   0.790   7.980   4.478
16392TPSG   CA217849   0.817   7.929   4.386
16392TPSG   CA117850   0.842   7.999   4.267
16392TPSG    Si17851   0.842   8.185   4.267
16392TPSG   CA617852   0.883   7.927   4.153
16392TPSG   HH617853   0.898   7.976   4.057
16392TPSG   CA517854   0.906   7.788   4.160
16392TPSG   HA517855   0.938   7.733   4.073
16392TPSG   CA417856   0.883   7.720   4.281
16392TPSG   HA417857   0.902   7.613   4.287
16392TPSG   CA317858   0.836   7.790   4.393
16392TPSG   HA317859   0.819   7.736   4.486
16392TPSG    O117860   0.958   8.069   4.267
16392TPSG    H617861   0.958   7.971   4.267
16393TPSG   HA217862   9.366   8.056   3.477
16393TPSG   CA217863   9.393   8.005   3.385
16393TPSG   CA117864   9.418   8.075   3.266
16393TPSG    Si17865   9.418   8.261   3.266
16393TPSG   CA617866   9.459   8.003   3.152
16393TPSG   HH617867   9.474   8.052   3.056
16393TPSG   CA517868   9.482   7.864   3.159
16393TPSG   HA517869   9.514   7.809   3.072
16393TPSG   CA417870   9.459   7.796   3.280
16393TPSG   HA417871   9.478   7.689   3.286
16393TPSG   CA317872   9.412   7.866   3.392
16393TPSG   HA317873   9.395   7.812   3.485
16393TPSG    O117874   9.534   8.145   3.266
16393TPSG    H617875   9.534   8.047   3.266
16394TPSG   HA217876   4.682   7.997   9.191
16394TPSG   CA217877   4.688   7.946   9.286
16394TPSG   CA117878   4.705   8.016   9.407
16394TPSG    Si17879   4.705   8.202   9.407
16394TPSG   CA617880   4.705   7.944   9.528
16394TPSG   HH617881   4.724   7.993   9.623
16394TPSG   CA517882   4.682   7.805   9.529
16394TPSG   HA517883   4.681   7.750   9.622
16394TPSG   CA417884   4.662   7.737   9.408
16394TPSG   HA417885   4.642   7.630   9.409
16394TPSG   CA317886   4.668   7.807   9.287
16394TPSG   HA317887   4.652   7.753   9.194
16394TPSG    O117888   4.596   8.086   9.447
16394TPSG    H617889   4.596   7.988   9.447
16395TPSG   HA217890   3.230   1.540   2.375
16395TPSG   CA217891   3.257   1.591   2.467
16395TPSG   CA117892   3.282   1.521   2.586
16395TPSG    Si17893   3.282   1.335   2.586
16395TPSG   CA617894   3.323   1.593   2.700
16395TPSG   HH617895   3.338   1.544   2.796
16395TPSG   CA517896   3.346   1.732   2.693
16395TPSG   HA517897   3.378   1.787   2.780
16395TPSG   CA417898   3.323   1.800   2.572
16395TPSG   HA417899   3.342   1.907   2.566
16395TPSG   CA317900   3.276   1.730   2.460
16395TPSG   HA317901   3.259   1.784   2.367
16395TPSG    O117902   3.398   1.451   2.586
16395TPSG    H617903   3.398   1.549   2.586
16396TPSG   HA217904   2.245   1.555   3.716
16396TPSG   CA217905   2.272   1.606   3.808
16396TPSG   CA117906   2.297   1.536   3.927
16396TPSG    Si17907   2.297   1.350   3.927
16396TPSG   CA617908   2.338   1.608   4.041
16396TPSG   HH617909   2.353   1.559   4.137
16396TPSG   CA517910   2.361   1.747   4.034
16396TPSG   HA517911   2.393   1.802   4.121
16396TPSG   CA417912   2.338   1.815   3.913
16396TPSG   HA417913   2.357   1.922   3.907
16396TPSG   CA317914   2.291   1.745   3.801
16396TPSG   HA317915   2.274   1.799   3.708
16396TPSG    O117916   2.413   1.466   3.927
16396TPSG    H617917   2.413   1.564   3.927
16397TPSG   HA217918   6.643   8.083   8.457
16397TPSG   CA217919   6.670   8.032   8.365
16397TPSG   CA117920   6.695   8.102   8.246
16397TPSG    Si17921   6.695   8.288   8.246
16397TPSG   CA617922   6.736   8.030   8.132
16397TPSG   HH617923   6.751   8.079   8.036
16397TPSG   CA517924   6.759   7.891   8.139
16397TPSG   HA517925   6.791   7.836   8.052
16397TPSG   CA417926   6.736   7.823   8.260
16397TPSG   HA417927   6.755   7.716   8.266
16397TPSG   CA317928   6.689   7.893   8.372
16397TPSG   HA317929   6.672   7.839   8.465
16397TPSG    O117930   6.811   8.172   8.246
16397TPSG    H617931   6.811   8.074   8.246
16398TPSG   HA217932   2.642   8.015   7.682
16398TPSG   CA217933   2.669   7.964   7.590
16398TPSG   CA117934   2.694   8.034   7.471
16398TPSG    Si17935   2.694   8.220   7.471
16398TPSG   CA617936   2.735   7.962   7.357
16398TPSG   HH617937   2.750   8.011   7.261
16398TPSG   CA517938   2.758   7.823   7.364
16398TPSG   HA517939   2.790   7.768   7.277
16398TPSG   CA417940   2.735   7.755   7.485
16398TPSG   HA417941   2.754   7.648   7.491
16398TPSG   CA317942   2.688   7.825   7.597
16398TPSG   HA317943   2.671   7.771   7.690
16398TPSG    O117944   2.810   8.104   7.471
16398TPSG    H617945   2.810   8.006   7.471
16399TPSG   HA217946   9.537   1.622   9.016
16399TPSG   CA217947   9.564   1.673   9.108
16399TPSG   CA117948   9.589   1.603   9.227
16399TPSG    Si17949   9.589   1.417   9.227
16399TPSG   CA617950   9.630   1.675   9.341
16399TPSG   HH617951   9.645   1.626   9.437
16399TPSG   CA517952   9.653   1.814   9.334
16399TPSG   HA517953   9.685   1.869   9.421
16399TPSG   CA417954   9.630   1.882   9.213
16399TPSG   HA417955   9.649   1.989   9.207
16399TPSG   CA317956   9.583   1.812   9.101
16399TPSG   HA317957   9.566   1.866   9.008
16399TPSG    O117958   9.705   1.533   9.227
16399TPSG    H617959   9.705   1.631   9.227
16400TPSG   HA217960   5.525   7.955   8.831
16400TPSG   CA217961   5.552   7.904   8.739
16400TPSG   CA117962   5.577   7.974   8.620
16400TPSG    Si17963   5.577   8.160   8.620
16400TPSG   CA617964   5.618   7.902   8.506
16400TPSG   HH617965   5.633   7.951   8.410
16400TPSG   CA517966   5.641   7.763   8.513
16400TPSG   HA517967   5.673   7.708   8.426
16400TPSG   CA417968   5.618   7.695   8.634
16400TPSG   HA417969   5.637   7.588   8.640
16400TPSG   CA317970   5.571   7.765   8.746
16400TPSG   HA317971   5.554   7.711   8.839
16400TPSG    O117972   5.693   8.044   8.620
16400TPSG    H617973   5.693   7.946   8.620
16401TPSG   HA217974   6.136   1.621   3.523
16401TPSG   CA217975   6.163   1.672   3.615
16401TPSG   CA117976   6.188   1.602   3.734
16401TPSG    Si17977   6.188   1.416   3.734
16401TPSG   CA617978   6.229   1.674   3.848
16401TPSG   HH617979   6.244   1.625   3.944
16401TPSG   CA517980   6.252   1.813   3.841
16401TPSG   HA517981   6.284   1.868   3.928
16401TPSG   CA417982   6.229   1.881   3.720
16401TPSG   HA417983   6.248   1.988   3.714
16401TPSG   CA317984   6.182   1.811   3.608
16401TPSG   HA317985   6.165   1.865   3.515
16401TPSG    O117986   6.304   1.532   3.734
16401TPSG    H617987   6.304   1.630   3.734
16402TPSG   HA217988   0.019   1.624   6.542
16402TPSG   CA217989   0.046   1.675   6.634
16402TPSG   CA117990   0.071   1.605   6.753
16402TPSG    Si17991   0.071   1.419   6.753
16402TPSG   CA617992   0.112   1.677   6.867
16402TPSG   HH617993   0.127   1.628   6.963
16402TPSG   CA517994   0.135   1.816   6.860
16402TPSG   HA517995   0.167   1.871   6.947
16402TPSG   CA417996   0.112   1.884   6.739
16402TPSG   HA417997   0.131   1.991   6.733
16402TPSG   CA317998   0.065   1.814   6.627
16402TPSG   HA317999   0.048   1.868   6.534
16402TPSG    O118000   0.187   1.535   6.753
16402TPSG    H618001   0.187   1.633   6.753
16403TPSG   HA218002   7.761   1.646   0.243
16403TPSG   CA218003   7.788   1.697   0.335
16403TPSG   CA118004   7.813   1.627   0.454
16403TPSG    Si18005   7.813   1.441   0.454
16403TPSG   CA618006   7.854   1.699   0.568
16403TPSG   HH618007   7.869   1.650   0.664
16403TPSG   CA518008   7.877   1.838   0.561
16403TPSG   HA518009   7.909   1.893   0.648
16403TPSG   CA418010   7.854   1.906   0.440
16403TPSG   HA418011   7.873   2.013   0.434
16403TPSG   CA318012   7.807   1.836   0.328
16403TPSG   HA318013   7.790   1.890   0.235
16403TPSG    O118014   7.929   1.557   0.454
16403TPSG    H618015   7.929   1.655   0.454
16404TPSG   HA218016   8.828   8.008   2.291
16404TPSG   CA218017   8.855   7.957   2.199
16404TPSG   CA118018   8.880   8.027   2.080
16404TPSG    Si18019   8.880   8.213   2.080
16404TPSG   CA618020   8.921   7.955   1.966
16404TPSG   HH618021   8.936   8.004   1.870
16404TPSG   CA518022   8.944   7.816   1.973
16404TPSG   HA518023   8.976   7.761   1.886
16404TPSG   CA418024   8.921   7.748   2.094
16404TPSG   HA418025   8.940   7.641   2.100
16404TPSG   CA318026   8.874   7.818   2.206
16404TPSG   HA318027   8.857   7.764   2.299
16404TPSG    O118028   8.996   8.097   2.080
16404TPSG    H618029   8.996   7.999   2.080
16405TPSG   HA218030   5.024   1.573   7.768
16405TPSG   CA218031   5.018   1.624   7.863
16405TPSG   CA118032   5.001   1.554   7.984
16405TPSG    Si18033   5.001   1.368   7.984
16405TPSG   CA618034   5.001   1.626   8.105
16405TPSG   HH618035   4.982   1.577   8.200
16405TPSG   CA518036   5.024   1.765   8.106
16405TPSG   HA518037   5.025   1.820   8.199
16405TPSG   CA418038   5.044   1.833   7.985
16405TPSG   HA418039   5.064   1.940   7.986
16405TPSG   CA318040   5.038   1.763   7.864
16405TPSG   HA318041   5.054   1.817   7.771
16405TPSG    O118042   5.110   1.484   8.024
16405TPSG    H618043   5.110   1.582   8.024
16406TPSG   HA218044   2.028   1.537   4.242
16406TPSG   CA218045   2.055   1.588   4.334
16406TPSG   CA118046   2.080   1.518   4.453
16406TPSG    Si18047   2.080   1.332   4.453
16406TPSG   CA618048   2.121   1.590   4.567
16406TPSG   HH618049   2.136   1.541   4.663
16406TPSG   CA518050   2.144   1.729   4.560
16406TPSG   HA518051   2.176   1.784   4.647
16406TPSG   CA418052   2.121   1.797   4.439
16406TPSG   HA418053   2.140   1.904   4.433
16406TPSG   CA318054   2.074   1.727   4.327
16406TPSG   HA318055   2.057   1.781   4.234
16406TPSG    O118056   2.196   1.448   4.453
16406TPSG    H618057   2.196   1.546   4.453
16407TPSG   HA218058   5.122   1.556   8.243
16407TPSG   CA218059   5.149   1.607   8.335
16407TPSG   CA118060   5.174   1.537   8.454
16407TPSG    Si18061   5.174   1.351   8.454
16407TPSG   CA618062   5.215   1.609   8.568
16407TPSG   HH618063   5.230   1.560   8.664
16407TPSG   CA518064   5.238   1.748   8.561
16407TPSG   HA518065   5.270   1.803   8.648
16407TPSG   CA418066   5.215   1.816   8.440
16407TPSG   HA418067   5.234   1.923   8.434
16407TPSG   CA318068   5.168   1.746   8.328
16407TPSG   HA318069   5.151   1.800   8.235
16407TPSG    O118070   5.290   1.467   8.454
16407TPSG    H618071   5.290   1.565   8.454
16408TPSG   HA218072   2.683   1.529  -0.063
16408TPSG   CA218073   2.710   1.580   0.029
16408TPSG   CA118074   2.735   1.510   0.148
16408TPSG    Si18075   2.735   1.324   0.148
16408TPSG   CA618076   2.776   1.582   0.262
16408TPSG   HH618077   2.791   1.533   0.358
16408TPSG   CA518078   2.799   1.721   0.255
16408TPSG   HA518079   2.831   1.776   0.342
16408TPSG   CA418080   2.776   1.789   0.134
16408TPSG   HA418081   2.795   1.896   0.128
16408TPSG   CA318082   2.729   1.719   0.022
16408TPSG   HA318083   2.712   1.773  -0.071
16408TPSG    O118084   2.851   1.440   0.148
16408TPSG    H618085   2.851   1.538   0.148
16409TPSG   HA218086   8.124   8.008   2.540
16409TPSG   CA218087   8.151   7.957   2.448
16409TPSG   CA118088   8.176   8.027   2.329
16409TPSG    Si18089   8.176   8.213   2.329
16409TPSG   CA618090   8.217   7.955   2.215
16409TPSG   HH618091   8.232   8.004   2.119
16409TPSG   CA518092   8.240   7.816   2.222
16409TPSG   HA518093   8.272   7.761   2.135
16409TPSG   CA418094   8.217   7.748   2.343
16409TPSG   HA418095   8.236   7.641   2.349
16409TPSG   CA318096   8.170   7.818   2.455
16409TPSG   HA318097   8.153   7.764   2.548
16409TPSG    O118098   8.292   8.097   2.329
16409TPSG    H618099   8.292   7.999   2.329
16410TPSG   HA218100   9.269   7.983   1.376
16410TPSG   CA218101   9.296   7.932   1.284
16410TPSG   CA118102   9.321   8.002   1.165
16410TPSG    Si18103   9.321   8.188   1.165
16410TPSG   CA618104   9.362   7.930   1.051
16410TPSG   HH618105   9.377   7.979   0.955
16410TPSG   CA518106   9.385   7.791   1.058
16410TPSG   HA518107   9.417   7.736   0.971
16410TPSG   CA418108   9.362   7.723   1.179
16410TPSG   HA418109   9.381   7.616   1.185
16410TPSG   CA318110   9.315   7.793   1.291
16410TPSG   HA318111   9.298   7.739   1.384
16410TPSG    O118112   9.437   8.072   1.165
16410TPSG    H618113   9.437   7.974   1.165
16411TPSG   HA218114   5.774   8.064   1.966
16411TPSG   CA218115   5.801   8.013   1.874
16411TPSG   CA118116   5.826   8.083   1.755
16411TPSG    Si18117   5.826   8.269   1.755
16411TPSG   CA618118   5.867   8.011   1.641
16411TPSG   HH618119   5.882   8.060   1.545
16411TPSG   CA518120   5.890   7.872   1.648
16411TPSG   HA518121   5.922   7.817   1.561
16411TPSG   CA418122   5.867   7.804   1.769
16411TPSG   HA418123   5.886   7.697   1.775
16411TPSG   CA318124   5.820   7.874   1.881
16411TPSG   HA318125   5.803   7.820   1.974
16411TPSG    O118126   5.942   8.153   1.755
16411TPSG    H618127   5.942   8.055   1.755
16412TPSG   HA218128   6.309   1.605   2.248
16412TPSG   CA218129   6.336   1.656   2.340
16412TPSG   CA118130   6.361   1.586   2.459
16412TPSG    Si18131   6.361   1.400   2.459
16412TPSG   CA618132   6.402   1.658   2.573
16412TPSG   HH618133   6.417   1.609   2.669
16412TPSG   CA518134   6.425   1.797   2.566
16412TPSG   HA518135   6.457   1.852   2.653
16412TPSG   CA418136   6.402   1.865   2.445
16412TPSG   HA418137   6.421   1.972   2.439
16412TPSG   CA318138   6.355   1.795   2.333
16412TPSG   HA318139   6.338   1.849   2.240
16412TPSG    O118140   6.477   1.516   2.459
16412TPSG    H618141   6.477   1.614   2.459
16413TPSG   HA218142   2.149   1.566   2.772
16413TPSG   CA218143   2.176   1.617   2.864
16413TPSG   CA118144   2.201   1.547   2.983
16413TPSG    Si18145   2.201   1.361   2.983
16413TPSG   CA618146   2.242   1.619   3.097
16413TPSG   HH618147   2.257   1.570   3.193
16413TPSG   CA518148   2.265   1.758   3.090
16413TPSG   HA518149   2.297   1.813   3.177
16413TPSG   CA418150   2.242   1.826   2.969
16413TPSG   HA418151   2.261   1.933   2.963
16413TPSG   CA318152   2.195   1.756   2.857
16413TPSG   HA318153   2.178   1.810   2.764
16413TPSG    O118154   2.317   1.477   2.983
16413TPSG    H618155   2.317   1.575   2.983
16414TPSG   HA218156   1.906   1.616   6.486
16414TPSG   CA218157   1.840   1.667   6.554
16414TPSG   CA118158   1.749   1.597   6.636
16414TPSG    Si18159   1.749   1.411   6.636
16414TPSG   CA618160   1.671   1.669   6.729
16414TPSG   HH618161   1.596   1.620   6.790
16414TPSG   CA518162   1.688   1.808   6.744
16414TPSG   HA518163   1.629   1.863   6.816
16414TPSG   CA418164   1.781   1.876   6.665
16414TPSG   HA418165   1.796   1.983   6.678
16414TPSG   CA318166   1.855   1.806   6.568
16414TPSG   HA318167   1.927   1.860   6.506
16414TPSG    O118168   1.807   1.527   6.736
16414TPSG    H618169   1.807   1.625   6.736
16415TPSG   HA218170   3.753   8.013   1.384
16415TPSG   CA218171   3.780   7.962   1.292
16415TPSG   CA118172   3.805   8.032   1.173
16415TPSG    Si18173   3.805   8.218   1.173
16415TPSG   CA618174   3.846   7.960   1.059
16415TPSG   HH618175   3.861   8.009   0.963
16415TPSG   CA518176   3.869   7.821   1.066
16415TPSG   HA518177   3.901   7.766   0.979
16415TPSG   CA418178   3.846   7.753   1.187
16415TPSG   HA418179   3.865   7.646   1.193
16415TPSG   CA318180   3.799   7.823   1.299
16415TPSG   HA318181   3.782   7.769   1.392
16415TPSG    O118182   3.921   8.102   1.173
16415TPSG    H618183   3.921   8.004   1.173
16416TPSG   HA218184   3.238   1.587   6.069
16416TPSG   CA218185   3.265   1.638   6.161
16416TPSG   CA118186   3.290   1.568   6.280
16416TPSG    Si18187   3.290   1.382   6.280
16416TPSG   CA618188   3.331   1.640   6.394
16416TPSG   HH618189   3.346   1.591   6.490
16416TPSG   CA518190   3.354   1.779   6.387
16416TPSG   HA518191   3.386   1.834   6.474
16416TPSG   CA418192   3.331   1.847   6.266
16416TPSG   HA418193   3.350   1.954   6.260
16416TPSG   CA318194   3.284   1.777   6.154
16416TPSG   HA318195   3.267   1.831   6.061
16416TPSG    O118196   3.406   1.498   6.280
16416TPSG    H618197   3.406   1.596   6.280
16417TPSG   HA218198   5.048   7.948   2.132
16417TPSG   CA218199   5.075   7.897   2.040
16417TPSG   CA118200   5.100   7.967   1.921
16417TPSG    Si18201   5.100   8.153   1.921
16417TPSG   CA618202   5.141   7.895   1.807
16417TPSG   HH618203   5.156   7.944   1.711
16417TPSG   CA518204   5.164   7.756   1.814
16417TPSG   HA518205   5.196   7.701   1.727
16417TPSG   CA418206   5.141   7.688   1.935
16417TPSG   HA418207   5.160   7.581   1.941
16417TPSG   CA318208   5.094   7.758   2.047
16417TPSG   HA318209   5.077   7.704   2.140
16417TPSG    O118210   5.216   8.037   1.921
16417TPSG    H618211   5.216   7.939   1.921
16418TPSG   HA218212   4.529   1.476   3.098
16418TPSG   CA218213   4.556   1.527   3.190
16418TPSG   CA118214   4.581   1.457   3.309
16418TPSG    Si18215   4.581   1.271   3.309
16418TPSG   CA618216   4.622   1.529   3.423
16418TPSG   HH618217   4.637   1.480   3.519
16418TPSG   CA518218   4.645   1.668   3.416
16418TPSG   HA518219   4.677   1.723   3.503
16418TPSG   CA418220   4.622   1.736   3.295
16418TPSG   HA418221   4.641   1.843   3.289
16418TPSG   CA318222   4.575   1.666   3.183
16418TPSG   HA318223   4.558   1.720   3.090
16418TPSG    O118224   4.697   1.387   3.309
16418TPSG    H618225   4.697   1.485   3.309
16419TPSG   HA218226   8.247   1.592   5.425
16419TPSG   CA218227   8.274   1.643   5.517
16419TPSG   CA118228   8.299   1.573   5.636
16419TPSG    Si18229   8.299   1.387   5.636
16419TPSG   CA618230   8.340   1.645   5.750
16419TPSG   HH618231   8.355   1.596   5.846
16419TPSG   CA518232   8.363   1.784   5.743
16419TPSG   HA518233   8.395   1.839   5.830
16419TPSG   CA418234   8.340   1.852   5.622
16419TPSG   HA418235   8.359   1.959   5.616
16419TPSG   CA318236   8.293   1.782   5.510
16419TPSG   HA318237   8.276   1.836   5.417
16419TPSG    O118238   8.415   1.503   5.636
16419TPSG    H618239   8.415   1.601   5.636
16420TPSG   HA218240   6.269   8.029   5.483
16420TPSG   CA218241   6.296   7.978   5.391
16420TPSG   CA118242   6.321   8.048   5.272
16420TPSG    Si18243   6.321   8.234   5.272
16420TPSG   CA618244   6.362   7.976   5.158
16420TPSG   HH618245   6.377   8.025   5.062
16420TPSG   CA518246   6.385   7.837   5.165
16420TPSG   HA518247   6.417   7.782   5.078
16420TPSG   CA418248   6.362   7.769   5.286
16420TPSG   HA418249   6.381   7.662   5.292
16420TPSG   CA318250   6.315   7.839   5.398
16420TPSG   HA318251   6.298   7.785   5.491
16420TPSG    O118252   6.437   8.118   5.272
16420TPSG    H618253   6.437   8.020   5.272
16421TPSG   HA218254   5.890   8.112   9.400
16421TPSG   CA218255   5.917   8.061   9.308
16421TPSG   CA118256   5.942   8.131   9.189
16421TPSG    Si18257   5.942   8.317   9.189
16421TPSG   CA618258   5.983   8.059   9.075
16421TPSG   HH618259   5.998   8.108   8.979
16421TPSG   CA518260   6.006   7.920   9.082
16421TPSG   HA518261   6.038   7.865   8.995
16421TPSG   CA418262   5.983   7.852   9.203
16421TPSG   HA418263   6.002   7.745   9.209
16421TPSG   CA318264   5.936   7.922   9.315
16421TPSG   HA318265   5.919   7.868   9.408
16421TPSG    O118266   6.058   8.201   9.189
16421TPSG    H618267   6.058   8.103   9.189
16422TPSG   HA218268   7.486   1.494   2.287
16422TPSG   CA218269   7.513   1.545   2.379
16422TPSG   CA118270   7.538   1.475   2.498
16422TPSG    Si18271   7.538   1.289   2.498
16422TPSG   CA618272   7.579   1.547   2.612
16422TPSG   HH618273   7.594   1.498   2.708
16422TPSG   CA518274   7.602   1.686   2.605
16422TPSG   HA518275   7.634   1.741   2.692
16422TPSG   CA418276   7.579   1.754   2.484
16422TPSG   HA418277   7.598   1.861   2.478
16422TPSG   CA318278   7.532   1.684   2.372
16422TPSG   HA318279   7.515   1.738   2.279
16422TPSG    O118280   7.654   1.405   2.498
16422TPSG    H618281   7.654   1.503   2.498
16423TPSG   HA218282   2.677   1.579   8.288
16423TPSG   CA218283   2.704   1.630   8.380
16423TPSG   CA118284   2.729   1.560   8.499
16423TPSG    Si18285   2.729   1.374   8.499
16423TPSG   CA618286   2.770   1.632   8.613
16423TPSG   HH618287   2.785   1.583   8.709
16423TPSG   CA518288   2.793   1.771   8.606
16423TPSG   HA518289   2.825   1.826   8.693
16423TPSG   CA418290   2.770   1.839   8.485
16423TPSG   HA418291   2.789   1.946   8.479
16423TPSG   CA318292   2.723   1.769   8.373
16423TPSG   HA318293   2.706   1.823   8.280
16423TPSG    O118294   2.845   1.490   8.499
16423TPSG    H618295   2.845   1.588   8.499
16424TPSG   HA218296   7.770   7.952   7.486
16424TPSG   CA218297   7.797   7.901   7.394
16424TPSG   CA118298   7.822   7.971   7.275
16424TPSG    Si18299   7.822   8.157   7.275
16424TPSG   CA618300   7.863   7.899   7.161
16424TPSG   HH618301   7.878   7.948   7.065
16424TPSG   CA518302   7.886   7.760   7.168
16424TPSG   HA518303   7.918   7.705   7.081
16424TPSG   CA418304   7.863   7.692   7.289
16424TPSG   HA418305   7.882   7.585   7.295
16424TPSG   CA318306   7.816   7.762   7.401
16424TPSG   HA318307   7.799   7.708   7.494
16424TPSG    O118308   7.938   8.041   7.275
16424TPSG    H618309   7.938   7.943   7.275
16425TPS    HA218310   3.758   1.549   5.157
16425TPS    CA218311   3.785   1.600   5.249
16425TPS    CA118312   3.810   1.530   5.368
16425TPS     Si18313   3.810   1.344   5.368
16425TPS    CA618314   3.851   1.602   5.482
16425TPS    HH618315   3.866   1.553   5.578
16425TPS    CA518316   3.874   1.741   5.475
16425TPS    HA518317   3.906   1.796   5.562
16425TPS    CA418318   3.851   1.809   5.354
16425TPS    HA418319   3.870   1.916   5.348
16425TPS    CA318320   3.804   1.739   5.242
16425TPS    HA318321   3.787   1.793   5.149
16426TPS    HA218322   4.648   8.024   4.117
16426TPS    CA218323   4.675   7.973   4.025
16426TPS    CA118324   4.700   8.043   3.906
16426TPS     Si18325   4.700   8.229   3.906
16426TPS    CA618326   4.741   7.971   3.792
16426TPS    HH618327   4.756   8.020   3.696
16426TPS    CA518328   4.764   7.832   3.799
16426TPS    HA518329   4.796   7.777   3.712
16426TPS    CA418330   4.741   7.764   3.920
16426TPS    HA418331   4.760   7.657   3.926
16426TPS    CA318332   4.694   7.834   4.032
16426TPS    HA318333   4.677   7.780   4.125
16427TPS    HA218334   7.043   8.006   8.003
16427TPS    CA218335   7.070   7.955   7.911
16427TPS    CA118336   7.095   8.025   7.792
16427TPS     Si18337   7.095   8.211   7.792
16427TPS    CA618338   7.136   7.953   7.678
16427TPS    HH618339   7.151   8.002   7.582
16427TPS    CA518340   7.159   7.814   7.685
16427TPS    HA518341   7.191   7.759   7.598
16427TPS    CA418342   7.136   7.746   7.806
16427TPS    HA418343   7.155   7.639   7.812
16427TPS    CA318344   7.089   7.816   7.918
16427TPS    HA318345   7.072   7.762   8.011
16428TPS    HA218346   8.818   8.188   5.507
16428TPS    CA218347   8.845   8.137   5.415
16428TPS    CA118348   8.870   8.207   5.296
16428TPS     Si18349   8.870   8.393   5.296
16428TPS    CA618350   8.911   8.135   5.182
16428TPS    HH618351   8.926   8.184   5.086
16428TPS    CA518352   8.934   7.996   5.189
16428TPS    HA518353   8.966   7.941   5.102
16428TPS    CA418354   8.911   7.928   5.310
16428TPS    HA418355   8.930   7.821   5.316
16428TPS    CA318356   8.864   7.998   5.422
16428TPS    HA318357   8.847   7.944   5.515
16429TPS    HA218358   6.772   8.034   9.719
16429TPS    CA218359   6.799   7.983   9.627
16429TPS    CA118360   6.824   8.053   9.508
16429TPS     Si18361   6.824   8.239   9.508
16429TPS    CA618362   6.865   7.981   9.394
16429TPS    HH618363   6.880   8.030   9.298
16429TPS    CA518364   6.888   7.842   9.401
16429TPS    HA518365   6.920   7.787   9.314
16429TPS    CA418366   6.865   7.774   9.522
16429TPS    HA418367   6.884   7.667   9.528
16429TPS    CA318368   6.818   7.844   9.634
16429TPS    HA318369   6.801   7.790   9.727
16430TPS    HA218370   3.400   8.190   9.658
16430TPS    CA218371   3.427   8.139   9.566
16430TPS    CA118372   3.452   8.209   9.447
16430TPS     Si18373   3.452   8.395   9.447
16430TPS    CA618374   3.493   8.137   9.333
16430TPS    HH618375   3.508   8.186   9.237
16430TPS    CA518376   3.516   7.998   9.340
16430TPS    HA518377   3.548   7.943   9.253
16430TPS    CA418378   3.493   7.930   9.461
16430TPS    HA418379   3.512   7.823   9.467
16430TPS    CA318380   3.446   8.000   9.573
16430TPS    HA318381   3.429   7.946   9.666
16431TPS    HA218382   6.731   1.276   4.772
16431TPS    CA218383   6.758   1.327   4.864
16431TPS    CA118384   6.783   1.257   4.983
16431TPS     Si18385   6.783   1.071   4.983
16431TPS    CA618386   6.824   1.329   5.097
16431TPS    HH618387   6.839   1.280   5.193
16431TPS    CA518388   6.847   1.468   5.090
16431TPS    HA518389   6.879   1.523   5.177
16431TPS    CA418390   6.824   1.536   4.969
16431TPS    HA418391   6.843   1.643   4.963
16431TPS    CA318392   6.777   1.466   4.857
16431TPS    HA318393   6.760   1.520   4.764
16432TPS    HA218394   4.223   8.156   2.180
16432TPS    CA218395   4.250   8.105   2.088
16432TPS    CA118396   4.275   8.175   1.969
16432TPS     Si18397   4.275   8.361   1.969
16432TPS    CA618398   4.316   8.103   1.855
16432TPS    HH618399   4.331   8.152   1.759
16432TPS    CA518400   4.339   7.964   1.862
16432TPS    HA518401   4.371   7.909   1.775
16432TPS    CA418402   4.316   7.896   1.983
16432TPS    HA418403   4.335   7.789   1.989
16432TPS    CA318404   4.269   7.966   2.095
16432TPS    HA318405   4.252   7.912   2.188
16433TPS    HA218406   8.447   8.138   9.274
16433TPS    CA218407   8.474   8.087   9.182
16433TPS    CA118408   8.499   8.157   9.063
16433TPS     Si18409   8.499   8.343   9.063
16433TPS    CA618410   8.540   8.085   8.949
16433TPS    HH618411   8.555   8.134   8.853
16433TPS    CA518412   8.563   7.946   8.956
16433TPS    HA518413   8.595   7.891   8.869
16433TPS    CA418414   8.540   7.878   9.077
16433TPS    HA418415   8.559   7.771   9.083
16433TPS    CA318416   8.493   7.948   9.189
16433TPS    HA318417   8.476   7.894   9.282
16434TPS    HA218418   9.121   8.180   9.006
16434TPS    CA218419   9.148   8.129   8.914
16434TPS    CA118420   9.173   8.199   8.795
16434TPS     Si18421   9.173   8.385   8.795
16434TPS    CA618422   9.214   8.127   8.681
16434TPS    HH618423   9.229   8.176   8.585
16434TPS    CA518424   9.237   7.988   8.688
16434TPS    HA518425   9.269   7.933   8.601
16434TPS    CA418426   9.214   7.920   8.809
16434TPS    HA418427   9.233   7.813   8.815
16434TPS    CA318428   9.167   7.990   8.921
16434TPS    HA318429   9.150   7.936   9.014
16435TPS    HA218430   5.536   1.529   8.062
16435TPS    CA218431   5.563   1.580   8.154
16435TPS    CA118432   5.588   1.510   8.273
16435TPS     Si18433   5.588   1.324   8.273
16435TPS    CA618434   5.629   1.582   8.387
16435TPS    HH618435   5.644   1.533   8.483
16435TPS    CA518436   5.652   1.721   8.380
16435TPS    HA518437   5.684   1.776   8.467
16435TPS    CA418438   5.629   1.789   8.259
16435TPS    HA418439   5.648   1.896   8.253
16435TPS    CA318440   5.582   1.719   8.147
16435TPS    HA318441   5.565   1.773   8.054
16436TPS    HA218442   3.941   1.541   2.415
16436TPS    CA218443   3.968   1.592   2.507
16436TPS    CA118444   3.993   1.522   2.626
16436TPS     Si18445   3.993   1.336   2.626
16436TPS    CA618446   4.034   1.594   2.740
16436TPS    HH618447   4.049   1.545   2.836
16436TPS    CA518448   4.057   1.733   2.733
16436TPS    HA518449   4.089   1.788   2.820
16436TPS    CA418450   4.034   1.801   2.612
16436TPS    HA418451   4.053   1.908   2.606
16436TPS    CA318452   3.987   1.731   2.500
16436TPS    HA318453   3.970   1.785   2.407
16437TPS    HA218454   6.452   1.521   1.721
16437TPS    CA218455   6.479   1.572   1.813
16437TPS    CA118456   6.504   1.502   1.932
16437TPS     Si18457   6.504   1.316   1.932
16437TPS    CA618458   6.545   1.574   2.046
16437TPS    HH618459   6.560   1.525   2.142
16437TPS    CA518460   6.568   1.713   2.039
16437TPS    HA518461   6.600   1.768   2.126
16437TPS    CA418462   6.545   1.781   1.918
16437TPS    HA418463   6.564   1.888   1.912
16437TPS    CA318464   6.498   1.711   1.806
16437TPS    HA318465   6.481   1.765   1.713
16438TPS    HA218466   4.657   7.996   0.651
16438TPS    CA218467   4.684   7.945   0.559
16438TPS    CA118468   4.709   8.015   0.440
16438TPS     Si18469   4.709   8.201   0.440
16438TPS    CA618470   4.750   7.943   0.326
16438TPS    HH618471   4.765   7.992   0.230
16438TPS    CA518472   4.773   7.804   0.333
16438TPS    HA518473   4.805   7.749   0.246
16438TPS    CA418474   4.750   7.736   0.454
16438TPS    HA418475   4.769   7.629   0.460
16438TPS    CA318476   4.703   7.806   0.566
16438TPS    HA318477   4.686   7.752   0.659
16439TPS    HA218478   0.253   1.462   0.033
16439TPS    CA218479   0.280   1.513   0.125
16439TPS    CA118480   0.305   1.443   0.244
16439TPS     Si18481   0.305   1.257   0.244
16439TPS    CA618482   0.346   1.515   0.358
16439TPS    HH618483   0.361   1.466   0.454
16439TPS    CA518484   0.369   1.654   0.351
16439TPS    HA518485   0.401   1.709   0.438
16439TPS    CA418486   0.346   1.722   0.230
16439TPS    HA418487   0.365   1.829   0.224
16439TPS    CA318488   0.299   1.652   0.118
16439TPS    HA318489   0.282   1.706   0.025
16440TPS    HA218490   4.805   8.031   6.256
16440TPS    CA218491   4.832   7.980   6.164
16440TPS    CA118492   4.857   8.050   6.045
16440TPS     Si18493   4.857   8.236   6.045
16440TPS    CA618494   4.898   7.978   5.931
16440TPS    HH618495   4.913   8.027   5.835
16440TPS    CA518496   4.921   7.839   5.938
16440TPS    HA518497   4.953   7.784   5.851
16440TPS    CA418498   4.898   7.771   6.059
16440TPS    HA418499   4.917   7.664   6.065
16440TPS    CA318500   4.851   7.841   6.171
16440TPS    HA318501   4.834   7.787   6.264
16441TPS    HA218502   3.525   1.528   1.836
16441TPS    CA218503   3.552   1.579   1.928
16441TPS    CA118504   3.577   1.509   2.047
16441TPS     Si18505   3.577   1.323   2.047
16441TPS    CA618506   3.618   1.581   2.161
16441TPS    HH618507   3.633   1.532   2.257
16441TPS    CA518508   3.641   1.720   2.154
16441TPS    HA518509   3.673   1.775   2.241
16441TPS    CA418510   3.618   1.788   2.033
16441TPS    HA418511   3.637   1.895   2.027
16441TPS    CA318512   3.571   1.718   1.921
16441TPS    HA318513   3.554   1.772   1.828
16442TPS    HA218514   3.080   1.471   0.054
16442TPS    CA218515   3.107   1.522   0.146
16442TPS    CA118516   3.132   1.452   0.265
16442TPS     Si18517   3.132   1.266   0.265
16442TPS    CA618518   3.173   1.524   0.379
16442TPS    HH618519   3.188   1.475   0.475
16442TPS    CA518520   3.196   1.663   0.372
16442TPS    HA518521   3.228   1.718   0.459
16442TPS    CA418522   3.173   1.731   0.251
16442TPS    HA418523   3.192   1.838   0.245
16442TPS    CA318524   3.126   1.661   0.139
16442TPS    HA318525   3.109   1.715   0.046
16443TPS    HA218526   4.838   1.279   4.833
16443TPS    CA218527   4.865   1.330   4.925
16443TPS    CA118528   4.890   1.260   5.044
16443TPS     Si18529   4.890   1.074   5.044
16443TPS    CA618530   4.931   1.332   5.158
16443TPS    HH618531   4.946   1.283   5.254
16443TPS    CA518532   4.954   1.471   5.151
16443TPS    HA518533   4.986   1.526   5.238
16443TPS    CA418534   4.931   1.539   5.030
16443TPS    HA418535   4.950   1.646   5.024
16443TPS    CA318536   4.884   1.469   4.918
16443TPS    HA318537   4.867   1.523   4.825
16444TPS    HA218538   2.515   1.472   8.213
16444TPS    CA218539   2.610   1.523   8.202
16444TPS    CA118540   2.732   1.453   8.198
16444TPS     Si18541   2.732   1.267   8.198
16444TPS    CA618542   2.852   1.525   8.177
16444TPS    HH618543   2.948   1.476   8.179
16444TPS    CA518544   2.848   1.664   8.154
16444TPS    HA518545   2.940   1.719   8.137
16444TPS    CA418546   2.726   1.732   8.155
16444TPS    HA418547   2.723   1.839   8.135
16444TPS    CA318548   2.607   1.662   8.182
16444TPS    HA318549   2.513   1.716   8.183
16445TPS    HA218550   6.852   1.495   1.969
16445TPS    CA218551   6.879   1.546   2.061
16445TPS    CA118552   6.904   1.476   2.180
16445TPS     Si18553   6.904   1.290   2.180
16445TPS    CA618554   6.945   1.548   2.294
16445TPS    HH618555   6.960   1.499   2.390
16445TPS    CA518556   6.968   1.687   2.287
16445TPS    HA518557   7.000   1.742   2.374
16445TPS    CA418558   6.945   1.755   2.166
16445TPS    HA418559   6.964   1.862   2.160
16445TPS    CA318560   6.898   1.685   2.054
16445TPS    HA318561   6.881   1.739   1.961
16446TPS    HA218562   1.496   1.511   1.288
16446TPS    CA218563   1.490   1.562   1.383
16446TPS    CA118564   1.473   1.492   1.504
16446TPS     Si18565   1.473   1.306   1.504
16446TPS    CA618566   1.473   1.564   1.625
16446TPS    HH618567   1.454   1.515   1.720
16446TPS    CA518568   1.496   1.703   1.626
16446TPS    HA518569   1.497   1.758   1.719
16446TPS    CA418570   1.516   1.771   1.505
16446TPS    HA418571   1.536   1.878   1.506
16446TPS    CA318572   1.510   1.701   1.384
16446TPS    HA318573   1.526   1.755   1.291
16447TPS    HA218574   9.337   1.408   3.143
16447TPS    CA218575   9.430   1.459   3.166
16447TPS    CA118576   9.546   1.389   3.204
16447TPS     Si18577   9.546   1.203   3.204
16447TPS    CA618578   9.665   1.461   3.226
16447TPS    HH618579   9.756   1.412   3.260
16447TPS    CA518580   9.670   1.600   3.202
16447TPS    HA518581   9.762   1.655   3.218
16447TPS    CA418582   9.555   1.668   3.162
16447TPS    HA418583   9.559   1.775   3.142
16447TPS    CA318584   9.434   1.598   3.146
16447TPS    HA318585   9.345   1.652   3.115
16448TPS    HA218586   5.300   8.096   6.400
16448TPS    CA218587   5.327   8.045   6.308
16448TPS    CA118588   5.352   8.115   6.189
16448TPS     Si18589   5.352   8.301   6.189
16448TPS    CA618590   5.393   8.043   6.075
16448TPS    HH618591   5.408   8.092   5.979
16448TPS    CA518592   5.416   7.904   6.082
16448TPS    HA518593   5.448   7.849   5.995
16448TPS    CA418594   5.393   7.836   6.203
16448TPS    HA418595   5.412   7.729   6.209
16448TPS    CA318596   5.346   7.906   6.315
16448TPS    HA318597   5.329   7.852   6.408
16449TPS    HA218598   7.993   1.492   0.679
16449TPS    CA218599   8.020   1.543   0.771
16449TPS    CA118600   8.045   1.473   0.890
16449TPS     Si18601   8.045   1.287   0.890
16449TPS    CA618602   8.086   1.545   1.004
16449TPS    HH618603   8.101   1.496   1.100
16449TPS    CA518604   8.109   1.684   0.997
16449TPS    HA518605   8.141   1.739   1.084
16449TPS    CA418606   8.086   1.752   0.876
16449TPS    HA418607   8.105   1.859   0.870
16449TPS    CA318608   8.039   1.682   0.764
16449TPS    HA318609   8.022   1.736   0.671
16450TPS    HA218610   3.935   8.318   1.894
16450TPS    CA218611   3.962   8.267   1.802
16450TPS    CA118612   3.987   8.337   1.683
16450TPS     Si18613   3.987   8.523   1.683
16450TPS    CA618614   4.028   8.265   1.569
16450TPS    HH618615   4.043   8.314   1.473
16450TPS    CA518616   4.051   8.126   1.576
16450TPS    HA518617   4.083   8.071   1.489
16450TPS    CA418618   4.028   8.058   1.697
16450TPS    HA418619   4.047   7.951   1.703
16450TPS    CA318620   3.981   8.128   1.809
16450TPS    HA318621   3.964   8.074   1.902
16451TPS    HA218622   5.666   8.216   4.460
16451TPS    CA218623   5.627   8.165   4.373
16451TPS    CA118624   5.570   8.235   4.265
16451TPS     Si18625   5.570   8.421   4.265
16451TPS    CA618626   5.528   8.163   4.151
16451TPS    HH618627   5.478   8.212   4.068
16451TPS    CA518628   5.550   8.024   4.143
16451TPS    HA518629   5.519   7.969   4.054
16451TPS    CA418630   5.610   7.956   4.249
16451TPS    HA418631   5.629   7.849   4.242
16451TPS    CA318632   5.646   8.026   4.365
16451TPS    HA318633   5.693   7.972   4.448
16452TPS    HA218634   6.588   1.467   9.174
16452TPS    CA218635   6.615   1.518   9.266
16452TPS    CA118636   6.640   1.448   9.385
16452TPS     Si18637   6.640   1.262   9.385
16452TPS    CA618638   6.681   1.520   9.499
16452TPS    HH618639   6.696   1.471   9.595
16452TPS    CA518640   6.704   1.659   9.492
16452TPS    HA518641   6.736   1.714   9.579
16452TPS    CA418642   6.681   1.727   9.371
16452TPS    HA418643   6.700   1.834   9.365
16452TPS    CA318644   6.634   1.657   9.259
16452TPS    HA318645   6.617   1.711   9.166
16453TPS    HA218646   6.552   8.184   6.662
16453TPS    CA218647   6.579   8.133   6.570
16453TPS    CA118648   6.604   8.203   6.451
16453TPS     Si18649   6.604   8.389   6.451
16453TPS    CA618650   6.645   8.131   6.337
16453TPS    HH618651   6.660   8.180   6.241
16453TPS    CA518652   6.668   7.992   6.344
16453TPS    HA518653   6.700   7.937   6.257
16453TPS    CA418654   6.645   7.924   6.465
16453TPS    HA418655   6.664   7.817   6.471
16453TPS    CA318656   6.598   7.994   6.577
16453TPS    HA318657   6.581   7.940   6.670
16454TPS    HA218658   0.807   1.621   2.093
16454TPS    CA218659   0.834   1.672   2.185
16454TPS    CA118660   0.859   1.602   2.304
16454TPS     Si18661   0.859   1.416   2.304
16454TPS    CA618662   0.900   1.674   2.418
16454TPS    HH618663   0.915   1.625   2.514
16454TPS    CA518664   0.923   1.813   2.411
16454TPS    HA518665   0.955   1.868   2.498
16454TPS    CA418666   0.900   1.881   2.290
16454TPS    HA418667   0.919   1.988   2.284
16454TPS    CA318668   0.853   1.811   2.178
16454TPS    HA318669   0.836   1.865   2.085
16455TPS    HA218670   4.903   1.366   6.219
16455TPS    CA218671   4.930   1.417   6.311
16455TPS    CA118672   4.955   1.347   6.430
16455TPS     Si18673   4.955   1.161   6.430
16455TPS    CA618674   4.996   1.419   6.544
16455TPS    HH618675   5.011   1.370   6.640
16455TPS    CA518676   5.019   1.558   6.537
16455TPS    HA518677   5.051   1.613   6.624
16455TPS    CA418678   4.996   1.626   6.416
16455TPS    HA418679   5.015   1.733   6.410
16455TPS    CA318680   4.949   1.556   6.304
16455TPS    HA318681   4.932   1.610   6.211
16456TPS    HA218682   8.562   8.057   8.758
16456TPS    CA218683   8.589   8.006   8.666
16456TPS    CA118684   8.614   8.076   8.547
16456TPS     Si18685   8.614   8.262   8.547
16456TPS    CA618686   8.655   8.004   8.433
16456TPS    HH618687   8.670   8.053   8.337
16456TPS    CA518688   8.678   7.865   8.440
16456TPS    HA518689   8.710   7.810   8.353
16456TPS    CA418690   8.655   7.797   8.561
16456TPS    HA418691   8.674   7.690   8.567
16456TPS    CA318692   8.608   7.867   8.673
16456TPS    HA318693   8.591   7.813   8.766
16457TPS    HA218694   8.651   8.066   9.058
16457TPS    CA218695   8.678   8.015   8.966
16457TPS    CA118696   8.703   8.085   8.847
16457TPS     Si18697   8.703   8.271   8.847
16457TPS    CA618698   8.744   8.013   8.733
16457TPS    HH618699   8.759   8.062   8.637
16457TPS    CA518700   8.767   7.874   8.740
16457TPS    HA518701   8.799   7.819   8.653
16457TPS    CA418702   8.744   7.806   8.861
16457TPS    HA418703   8.763   7.699   8.867
16457TPS    CA318704   8.697   7.876   8.973
16457TPS    HA318705   8.680   7.822   9.066
16458TPS    HA218706   9.412   8.126   2.925
16458TPS    CA218707   9.439   8.075   2.833
16458TPS    CA118708   9.464   8.145   2.714
16458TPS     Si18709   9.464   8.331   2.714
16458TPS    CA618710   9.505   8.073   2.600
16458TPS    HH618711   9.520   8.122   2.504
16458TPS    CA518712   9.528   7.934   2.607
16458TPS    HA518713   9.560   7.879   2.520
16458TPS    CA418714   9.505   7.866   2.728
16458TPS    HA418715   9.524   7.759   2.734
16458TPS    CA318716   9.458   7.936   2.840
16458TPS    HA318717   9.441   7.882   2.933
16459TPS    HA218718   3.739   1.618   0.987
16459TPS    CA218719   3.766   1.669   1.079
16459TPS    CA118720   3.791   1.599   1.198
16459TPS     Si18721   3.791   1.413   1.198
16459TPS    CA618722   3.832   1.671   1.312
16459TPS    HH618723   3.847   1.622   1.408
16459TPS    CA518724   3.855   1.810   1.305
16459TPS    HA518725   3.887   1.865   1.392
16459TPS    CA418726   3.832   1.878   1.184
16459TPS    HA418727   3.851   1.985   1.178
16459TPS    CA318728   3.785   1.808   1.072
16459TPS    HA318729   3.768   1.862   0.979
16460TPS    HA218730   7.856   1.422   6.371
16460TPS    CA218731   7.883   1.473   6.463
16460TPS    CA118732   7.908   1.403   6.582
16460TPS     Si18733   7.908   1.217   6.582
16460TPS    CA618734   7.949   1.475   6.696
16460TPS    HH618735   7.964   1.426   6.792
16460TPS    CA518736   7.972   1.614   6.689
16460TPS    HA518737   8.004   1.669   6.776
16460TPS    CA418738   7.949   1.682   6.568
16460TPS    HA418739   7.968   1.789   6.562
16460TPS    CA318740   7.902   1.612   6.456
16460TPS    HA318741   7.885   1.666   6.363
16461TPS    HA218742   3.620   7.962   4.697
16461TPS    CA218743   3.647   7.911   4.605
16461TPS    CA118744   3.672   7.981   4.486
16461TPS     Si18745   3.672   8.167   4.486
16461TPS    CA618746   3.713   7.909   4.372
16461TPS    HH618747   3.728   7.958   4.276
16461TPS    CA518748   3.736   7.770   4.379
16461TPS    HA518749   3.768   7.715   4.292
16461TPS    CA418750   3.713   7.702   4.500
16461TPS    HA418751   3.732   7.595   4.506
16461TPS    CA318752   3.666   7.772   4.612
16461TPS    HA318753   3.649   7.718   4.705
16462TPS    HA218754   4.180   8.053   6.847
16462TPS    CA218755   4.207   8.002   6.755
16462TPS    CA118756   4.232   8.072   6.636
16462TPS     Si18757   4.232   8.258   6.636
16462TPS    CA618758   4.273   8.000   6.522
16462TPS    HH618759   4.288   8.049   6.426
16462TPS    CA518760   4.296   7.861   6.529
16462TPS    HA518761   4.328   7.806   6.442
16462TPS    CA418762   4.273   7.793   6.650
16462TPS    HA418763   4.292   7.686   6.656
16462TPS    CA318764   4.226   7.863   6.762
16462TPS    HA318765   4.209   7.809   6.855
16463TPS    HA218766   7.754   1.423   7.573
16463TPS    CA218767   7.781   1.474   7.665
16463TPS    CA118768   7.806   1.404   7.784
16463TPS     Si18769   7.806   1.218   7.784
16463TPS    CA618770   7.847   1.476   7.898
16463TPS    HH618771   7.862   1.427   7.994
16463TPS    CA518772   7.870   1.615   7.891
16463TPS    HA518773   7.902   1.670   7.978
16463TPS    CA418774   7.847   1.683   7.770
16463TPS    HA418775   7.866   1.790   7.764
16463TPS    CA318776   7.800   1.613   7.658
16463TPS    HA318777   7.783   1.667   7.565
16464TPS    HA218778   2.491   1.413   1.543
16464TPS    CA218779   2.518   1.464   1.635
16464TPS    CA118780   2.543   1.394   1.754
16464TPS     Si18781   2.543   1.208   1.754
16464TPS    CA618782   2.584   1.466   1.868
16464TPS    HH618783   2.599   1.417   1.964
16464TPS    CA518784   2.607   1.605   1.861
16464TPS    HA518785   2.639   1.660   1.948
16464TPS    CA418786   2.584   1.673   1.740
16464TPS    HA418787   2.603   1.780   1.734
16464TPS    CA318788   2.537   1.603   1.628
16464TPS    HA318789   2.520   1.657   1.535
16465TPS    HA218790   8.512   8.214   4.999
16465TPS    CA218791   8.539   8.163   4.907
16465TPS    CA118792   8.564   8.233   4.788
16465TPS     Si18793   8.564   8.419   4.788
16465TPS    CA618794   8.605   8.161   4.674
16465TPS    HH618795   8.620   8.210   4.578
16465TPS    CA518796   8.628   8.022   4.681
16465TPS    HA518797   8.660   7.967   4.594
16465TPS    CA418798   8.605   7.954   4.802
16465TPS    HA418799   8.624   7.847   4.808
16465TPS    CA318800   8.558   8.024   4.914
16465TPS    HA318801   8.541   7.970   5.007
16466TPS    HA218802   8.773   8.201   3.904
16466TPS    CA218803   8.800   8.150   3.812
16466TPS    CA118804   8.825   8.220   3.693
16466TPS     Si18805   8.825   8.406   3.693
16466TPS    CA618806   8.866   8.148   3.579
16466TPS    HH618807   8.881   8.197   3.483
16466TPS    CA518808   8.889   8.009   3.586
16466TPS    HA518809   8.921   7.954   3.499
16466TPS    CA418810   8.866   7.941   3.707
16466TPS    HA418811   8.885   7.834   3.713
16466TPS    CA318812   8.819   8.011   3.819
16466TPS    HA318813   8.802   7.957   3.912
16467TPS    HA218814   4.546   1.480   1.787
16467TPS    CA218815   4.573   1.531   1.879
16467TPS    CA118816   4.598   1.461   1.998
16467TPS     Si18817   4.598   1.275   1.998
16467TPS    CA618818   4.639   1.533   2.112
16467TPS    HH618819   4.654   1.484   2.208
16467TPS    CA518820   4.662   1.672   2.105
16467TPS    HA518821   4.694   1.727   2.192
16467TPS    CA418822   4.639   1.740   1.984
16467TPS    HA418823   4.658   1.847   1.978
16467TPS    CA318824   4.592   1.670   1.872
16467TPS    HA318825   4.575   1.724   1.779
16468TPS    HA218826   5.085   8.045   2.531
16468TPS    CA218827   5.046   7.994   2.444
16468TPS    CA118828   4.989   8.064   2.336
16468TPS     Si18829   4.989   8.250   2.336
16468TPS    CA618830   4.947   7.992   2.222
16468TPS    HH618831   4.897   8.041   2.139
16468TPS    CA518832   4.969   7.853   2.214
16468TPS    HA518833   4.938   7.798   2.125
16468TPS    CA418834   5.029   7.785   2.320
16468TPS    HA418835   5.048   7.678   2.313
16468TPS    CA318836   5.065   7.855   2.436
16468TPS    HA318837   5.112   7.801   2.519
16469TPS    HA218838   6.740   8.115   3.284
16469TPS    CA218839   6.767   8.064   3.192
16469TPS    CA118840   6.792   8.134   3.073
16469TPS     Si18841   6.792   8.320   3.073
16469TPS    CA618842   6.833   8.062   2.959
16469TPS    HH618843   6.848   8.111   2.863
16469TPS    CA518844   6.856   7.923   2.966
16469TPS    HA518845   6.888   7.868   2.879
16469TPS    CA418846   6.833   7.855   3.087
16469TPS    HA418847   6.852   7.748   3.093
16469TPS    CA318848   6.786   7.925   3.199
16469TPS    HA318849   6.769   7.871   3.292
16470TPS    HA218850   7.583   1.433   6.790
16470TPS    CA218851   7.610   1.484   6.882
16470TPS    CA118852   7.635   1.414   7.001
16470TPS     Si18853   7.635   1.228   7.001
16470TPS    CA618854   7.676   1.486   7.115
16470TPS    HH618855   7.691   1.437   7.211
16470TPS    CA518856   7.699   1.625   7.108
16470TPS    HA518857   7.731   1.680   7.195
16470TPS    CA418858   7.676   1.693   6.987
16470TPS    HA418859   7.695   1.800   6.981
16470TPS    CA318860   7.629   1.623   6.875
16470TPS    HA318861   7.612   1.677   6.782
16471TPS    HA218862   6.358   8.064   1.138
16471TPS    CA218863   6.385   8.013   1.046
16471TPS    CA118864   6.410   8.083   0.927
16471TPS     Si18865   6.410   8.269   0.927
16471TPS    CA618866   6.451   8.011   0.813
16471TPS    HH618867   6.466   8.060   0.717
16471TPS    CA518868   6.474   7.872   0.820
16471TPS    HA518869   6.506   7.817   0.733
16471TPS    CA418870   6.451   7.804   0.941
16471TPS    HA418871   6.470   7.697   0.947
16471TPS    CA318872   6.404   7.874   1.053
16471TPS    HA318873   6.387   7.820   1.146
16472TPS    HA218874   3.791   8.148   0.603
16472TPS    CA218875   3.818   8.097   0.511
16472TPS    CA118876   3.843   8.167   0.392
16472TPS     Si18877   3.843   8.353   0.392
16472TPS    CA618878   3.884   8.095   0.278
16472TPS    HH618879   3.899   8.144   0.182
16472TPS    CA518880   3.907   7.956   0.285
16472TPS    HA518881   3.939   7.901   0.198
16472TPS    CA418882   3.884   7.888   0.406
16472TPS    HA418883   3.903   7.781   0.412
16472TPS    CA318884   3.837   7.958   0.518
16472TPS    HA318885   3.820   7.904   0.611
16473TPS    HA218886   3.885   8.140   7.163
16473TPS    CA218887   3.912   8.089   7.071
16473TPS    CA118888   3.937   8.159   6.952
16473TPS     Si18889   3.937   8.345   6.952
16473TPS    CA618890   3.978   8.087   6.838
16473TPS    HH618891   3.993   8.136   6.742
16473TPS    CA518892   4.001   7.948   6.845
16473TPS    HA518893   4.033   7.893   6.758
16473TPS    CA418894   3.978   7.880   6.966
16473TPS    HA418895   3.997   7.773   6.972
16473TPS    CA318896   3.931   7.950   7.078
16473TPS    HA318897   3.914   7.896   7.171
16474TPS    HA218898   7.605   1.425   1.295
16474TPS    CA218899   7.566   1.476   1.382
16474TPS    CA118900   7.509   1.406   1.490
16474TPS     Si18901   7.509   1.220   1.490
16474TPS    CA618902   7.467   1.478   1.604
16474TPS    HH618903   7.417   1.429   1.687
16474TPS    CA518904   7.489   1.617   1.612
16474TPS    HA518905   7.458   1.672   1.701
16474TPS    CA418906   7.549   1.685   1.506
16474TPS    HA418907   7.568   1.792   1.513
16474TPS    CA318908   7.585   1.615   1.390
16474TPS    HA318909   7.632   1.669   1.307
16475TPS    HA218910   2.265   1.450   2.189
16475TPS    CA218911   2.292   1.501   2.281
16475TPS    CA118912   2.317   1.431   2.400
16475TPS     Si18913   2.317   1.245   2.400
16475TPS    CA618914   2.358   1.503   2.514
16475TPS    HH618915   2.373   1.454   2.610
16475TPS    CA518916   2.381   1.642   2.507
16475TPS    HA518917   2.413   1.697   2.594
16475TPS    CA418918   2.358   1.710   2.386
16475TPS    HA418919   2.377   1.817   2.380
16475TPS    CA318920   2.311   1.640   2.274
16475TPS    HA318921   2.294   1.694   2.181
16476TPS    HA218922   7.019   7.964   2.871
16476TPS    CA218923   7.046   7.913   2.779
16476TPS    CA118924   7.071   7.983   2.660
16476TPS     Si18925   7.071   8.169   2.660
16476TPS    CA618926   7.112   7.911   2.546
16476TPS    HH618927   7.127   7.960   2.450
16476TPS    CA518928   7.135   7.772   2.553
16476TPS    HA518929   7.167   7.717   2.466
16476TPS    CA418930   7.112   7.704   2.674
16476TPS    HA418931   7.131   7.597   2.680
16476TPS    CA318932   7.065   7.774   2.786
16476TPS    HA318933   7.048   7.720   2.879
16477TPS    HA218934   9.073   7.998   0.334
16477TPS    CA218935   9.100   7.947   0.242
16477TPS    CA118936   9.125   8.017   0.123
16477TPS     Si18937   9.125   8.203   0.123
16477TPS    CA618938   9.166   7.945   0.009
16477TPS    HH618939   9.181   7.994  -0.087
16477TPS    CA518940   9.189   7.806   0.016
16477TPS    HA518941   9.221   7.751  -0.071
16477TPS    CA418942   9.166   7.738   0.137
16477TPS    HA418943   9.185   7.631   0.143
16477TPS    CA318944   9.119   7.808   0.249
16477TPS    HA318945   9.102   7.754   0.342
16478TPS    HA218946   0.389   1.474   1.063
16478TPS    CA218947   0.416   1.525   1.155
16478TPS    CA118948   0.441   1.455   1.274
16478TPS     Si18949   0.441   1.269   1.274
16478TPS    CA618950   0.482   1.527   1.388
16478TPS    HH618951   0.497   1.478   1.484
16478TPS    CA518952   0.505   1.666   1.381
16478TPS    HA518953   0.537   1.721   1.468
16478TPS    CA418954   0.482   1.734   1.260
16478TPS    HA418955   0.501   1.841   1.254
16478TPS    CA318956   0.435   1.664   1.148
16478TPS    HA318957   0.418   1.718   1.055
16479TPS    HA218958   8.400   8.251   6.099
16479TPS    CA218959   8.427   8.200   6.007
16479TPS    CA118960   8.452   8.270   5.888
16479TPS     Si18961   8.452   8.456   5.888
16479TPS    CA618962   8.493   8.198   5.774
16479TPS    HH618963   8.508   8.247   5.678
16479TPS    CA518964   8.516   8.059   5.781
16479TPS    HA518965   8.548   8.004   5.694
16479TPS    CA418966   8.493   7.991   5.902
16479TPS    HA418967   8.512   7.884   5.908
16479TPS    CA318968   8.446   8.061   6.014
16479TPS    HA318969   8.429   8.007   6.107
16480TPS    HA218970   2.919   1.596   5.383
16480TPS    CA218971   2.946   1.647   5.475
16480TPS    CA118972   2.971   1.577   5.594
16480TPS     Si18973   2.971   1.391   5.594
16480TPS    CA618974   3.012   1.649   5.708
16480TPS    HH618975   3.027   1.600   5.804
16480TPS    CA518976   3.035   1.788   5.701
16480TPS    HA518977   3.067   1.843   5.788
16480TPS    CA418978   3.012   1.856   5.580
16480TPS    HA418979   3.031   1.963   5.574
16480TPS    CA318980   2.965   1.786   5.468
16480TPS    HA318981   2.948   1.840   5.375
16481TPS    HA218982   6.959   7.993   1.858
16481TPS    CA218983   6.986   7.942   1.766
16481TPS    CA118984   7.011   8.012   1.647
16481TPS     Si18985   7.011   8.198   1.647
16481TPS    CA618986   7.052   7.940   1.533
16481TPS    HH618987   7.067   7.989   1.437
16481TPS    CA518988   7.075   7.801   1.540
16481TPS    HA518989   7.107   7.746   1.453
16481TPS    CA418990   7.052   7.733   1.661
16481TPS    HA418991   7.071   7.626   1.667
16481TPS    CA318992   7.005   7.803   1.773
16481TPS    HA318993   6.988   7.749   1.866
16482TPS    HA218994   3.954   1.590   1.203
16482TPS    CA218995   3.981   1.641   1.295
16482TPS    CA118996   4.006   1.571   1.414
16482TPS     Si18997   4.006   1.385   1.414
16482TPS    CA618998   4.047   1.643   1.528
16482TPS    HH618999   4.062   1.594   1.624
16482TPS    CA519000   4.070   1.782   1.521
16482TPS    HA519001   4.102   1.837   1.608
16482TPS    CA419002   4.047   1.850   1.400
16482TPS    HA419003   4.066   1.957   1.394
16482TPS    CA319004   4.000   1.780   1.288
16482TPS    HA319005   3.983   1.834   1.195
16483TPS    HA219006   8.517   1.415   0.151
16483TPS    CA219007   8.544   1.466   0.243
16483TPS    CA119008   8.569   1.396   0.362
16483TPS     Si19009   8.569   1.210   0.362
16483TPS    CA619010   8.610   1.468   0.476
16483TPS    HH619011   8.625   1.419   0.572
16483TPS    CA519012   8.633   1.607   0.469
16483TPS    HA519013   8.665   1.662   0.556
16483TPS    CA419014   8.610   1.675   0.348
16483TPS    HA419015   8.629   1.782   0.342
16483TPS    CA319016   8.563   1.605   0.236
16483TPS    HA319017   8.546   1.659   0.143
16484TPS    HA219018   2.983   1.469   3.477
16484TPS    CA219019   2.944   1.520   3.564
16484TPS    CA119020   2.887   1.450   3.672
16484TPS     Si19021   2.887   1.264   3.672
16484TPS    CA619022   2.845   1.522   3.786
16484TPS    HH619023   2.795   1.473   3.869
16484TPS    CA519024   2.867   1.661   3.794
16484TPS    HA519025   2.836   1.716   3.883
16484TPS    CA419026   2.927   1.729   3.688
16484TPS    HA419027   2.946   1.836   3.695
16484TPS    CA319028   2.963   1.659   3.572
16484TPS    HA319029   3.010   1.713   3.489
16485TPS    HA219030   6.817   1.615   0.761
16485TPS    CA219031   6.844   1.666   0.853
16485TPS    CA119032   6.869   1.596   0.972
16485TPS     Si19033   6.869   1.410   0.972
16485TPS    CA619034   6.910   1.668   1.086
16485TPS    HH619035   6.925   1.619   1.182
16485TPS    CA519036   6.933   1.807   1.079
16485TPS    HA519037   6.965   1.862   1.166
16485TPS    CA419038   6.910   1.875   0.958
16485TPS    HA419039   6.929   1.982   0.952
16485TPS    CA319040   6.863   1.805   0.846
16485TPS    HA319041   6.846   1.859   0.753
16486TPS    HA219042   2.128   1.584   7.287
16486TPS    CA219043   2.155   1.635   7.379
16486TPS    CA119044   2.180   1.565   7.498
16486TPS     Si19045   2.180   1.379   7.498
16486TPS    CA619046   2.221   1.637   7.612
16486TPS    HH619047   2.236   1.588   7.708
16486TPS    CA519048   2.244   1.776   7.605
16486TPS    HA519049   2.276   1.831   7.692
16486TPS    CA419050   2.221   1.844   7.484
16486TPS    HA419051   2.240   1.951   7.478
16486TPS    CA319052   2.174   1.774   7.372
16486TPS    HA319053   2.157   1.828   7.279
16487TPS    HA219054   2.877   8.187   2.127
16487TPS    CA219055   2.904   8.136   2.035
16487TPS    CA119056   2.929   8.206   1.916
16487TPS     Si19057   2.929   8.392   1.916
16487TPS    CA619058   2.970   8.134   1.802
16487TPS    HH619059   2.985   8.183   1.706
16487TPS    CA519060   2.993   7.995   1.809
16487TPS    HA519061   3.025   7.940   1.722
16487TPS    CA419062   2.970   7.927   1.930
16487TPS    HA419063   2.989   7.820   1.936
16487TPS    CA319064   2.923   7.997   2.042
16487TPS    HA319065   2.906   7.943   2.135
16488TPS    HA219066   4.764   8.057   3.388
16488TPS    CA219067   4.791   8.006   3.296
16488TPS    CA119068   4.816   8.076   3.177
16488TPS     Si19069   4.816   8.262   3.177
16488TPS    CA619070   4.857   8.004   3.063
16488TPS    HH619071   4.872   8.053   2.967
16488TPS    CA519072   4.880   7.865   3.070
16488TPS    HA519073   4.912   7.810   2.983
16488TPS    CA419074   4.857   7.797   3.191
16488TPS    HA419075   4.876   7.690   3.197
16488TPS    CA319076   4.810   7.867   3.303
16488TPS    HA319077   4.793   7.813   3.396
16489TPS    HA219078   6.487   1.376   6.480
16489TPS    CA219079   6.514   1.427   6.572
16489TPS    CA119080   6.539   1.357   6.691
16489TPS     Si19081   6.539   1.171   6.691
16489TPS    CA619082   6.580   1.429   6.805
16489TPS    HH619083   6.595   1.380   6.901
16489TPS    CA519084   6.603   1.568   6.798
16489TPS    HA519085   6.635   1.623   6.885
16489TPS    CA419086   6.580   1.636   6.677
16489TPS    HA419087   6.599   1.743   6.671
16489TPS    CA319088   6.533   1.566   6.565
16489TPS    HA319089   6.516   1.620   6.472
16490TPS    HA219090   3.838   8.208   4.996
16490TPS    CA219091   3.865   8.157   4.904
16490TPS    CA119092   3.890   8.227   4.785
16490TPS     Si19093   3.890   8.413   4.785
16490TPS    CA619094   3.931   8.155   4.671
16490TPS    HH619095   3.946   8.204   4.575
16490TPS    CA519096   3.954   8.016   4.678
16490TPS    HA519097   3.986   7.961   4.591
16490TPS    CA419098   3.931   7.948   4.799
16490TPS    HA419099   3.950   7.841   4.805
16490TPS    CA319100   3.884   8.018   4.911
16490TPS    HA319101   3.867   7.964   5.004
16491TPS    HA219102   3.286   1.512   3.516
16491TPS    CA219103   3.247   1.563   3.603
16491TPS    CA119104   3.190   1.493   3.711
16491TPS     Si19105   3.190   1.307   3.711
16491TPS    CA619106   3.148   1.565   3.825
16491TPS    HH619107   3.098   1.516   3.908
16491TPS    CA519108   3.170   1.704   3.833
16491TPS    HA519109   3.139   1.759   3.922
16491TPS    CA419110   3.230   1.772   3.727
16491TPS    HA419111   3.249   1.879   3.734
16491TPS    CA319112   3.266   1.702   3.611
16491TPS    HA319113   3.313   1.756   3.528
16492TPS    HA219114   5.570   8.219   9.125
16492TPS    CA219115   5.597   8.168   9.033
16492TPS    CA119116   5.622   8.238   8.914
16492TPS     Si19117   5.622   8.424   8.914
16492TPS    CA619118   5.663   8.166   8.800
16492TPS    HH619119   5.678   8.215   8.704
16492TPS    CA519120   5.686   8.027   8.807
16492TPS    HA519121   5.718   7.972   8.720
16492TPS    CA419122   5.663   7.959   8.928
16492TPS    HA419123   5.682   7.852   8.934
16492TPS    CA319124   5.616   8.029   9.040
16492TPS    HA319125   5.599   7.975   9.133
16493TPS    HA219126   2.135   8.149   6.585
16493TPS    CA219127   2.162   8.098   6.493
16493TPS    CA119128   2.187   8.168   6.374
16493TPS     Si19129   2.187   8.354   6.374
16493TPS    CA619130   2.228   8.096   6.260
16493TPS    HH619131   2.243   8.145   6.164
16493TPS    CA519132   2.251   7.957   6.267
16493TPS    HA519133   2.283   7.902   6.180
16493TPS    CA419134   2.228   7.889   6.388
16493TPS    HA419135   2.247   7.782   6.394
16493TPS    CA319136   2.181   7.959   6.500
16493TPS    HA319137   2.164   7.905   6.593
16494TPS    HA219138   7.728   8.093   7.013
16494TPS    CA219139   7.755   8.042   6.921
16494TPS    CA119140   7.780   8.112   6.802
16494TPS     Si19141   7.780   8.298   6.802
16494TPS    CA619142   7.821   8.040   6.688
16494TPS    HH619143   7.836   8.089   6.592
16494TPS    CA519144   7.844   7.901   6.695
16494TPS    HA519145   7.876   7.846   6.608
16494TPS    CA419146   7.821   7.833   6.816
16494TPS    HA419147   7.840   7.726   6.822
16494TPS    CA319148   7.774   7.903   6.928
16494TPS    HA319149   7.757   7.849   7.021
16495TPS    HA219150   1.004   1.410   3.472
16495TPS    CA219151   1.031   1.461   3.564
16495TPS    CA119152   1.056   1.391   3.683
16495TPS     Si19153   1.056   1.205   3.683
16495TPS    CA619154   1.097   1.463   3.797
16495TPS    HH619155   1.112   1.414   3.893
16495TPS    CA519156   1.120   1.602   3.790
16495TPS    HA519157   1.152   1.657   3.877
16495TPS    CA419158   1.097   1.670   3.669
16495TPS    HA419159   1.116   1.777   3.663
16495TPS    CA319160   1.050   1.600   3.557
16495TPS    HA319161   1.033   1.654   3.464
16496TPS    HA219162   1.854   8.049   5.664
16496TPS    CA219163   1.881   7.998   5.572
16496TPS    CA119164   1.906   8.068   5.453
16496TPS     Si19165   1.906   8.254   5.453
16496TPS    CA619166   1.947   7.996   5.339
16496TPS    HH619167   1.962   8.045   5.243
16496TPS    CA519168   1.970   7.857   5.346
16496TPS    HA519169   2.002   7.802   5.259
16496TPS    CA419170   1.947   7.789   5.467
16496TPS    HA419171   1.966   7.682   5.473
16496TPS    CA319172   1.900   7.859   5.579
16496TPS    HA319173   1.883   7.805   5.672
16497TPS    HA219174   3.640   1.513   0.474
16497TPS    CA219175   3.646   1.564   0.379
16497TPS    CA119176   3.663   1.494   0.258
16497TPS     Si19177   3.663   1.308   0.258
16497TPS    CA619178   3.663   1.566   0.137
16497TPS    HH619179   3.682   1.517   0.042
16497TPS    CA519180   3.640   1.705   0.136
16497TPS    HA519181   3.639   1.760   0.043
16497TPS    CA419182   3.620   1.773   0.257
16497TPS    HA419183   3.600   1.880   0.256
16497TPS    CA319184   3.626   1.703   0.378
16497TPS    HA319185   3.610   1.757   0.471
16498TPS    HA219186   0.607   8.284   4.176
16498TPS    CA219187   0.541   8.233   4.108
16498TPS    CA119188   0.450   8.303   4.026
16498TPS     Si19189   0.450   8.489   4.026
16498TPS    CA619190   0.372   8.231   3.933
16498TPS    HH619191   0.297   8.280   3.872
16498TPS    CA519192   0.389   8.092   3.918
16498TPS    HA519193   0.330   8.037   3.846
16498TPS    CA419194   0.482   8.024   3.997
16498TPS    HA419195   0.497   7.917   3.984
16498TPS    CA319196   0.556   8.094   4.094
16498TPS    HA319197   0.628   8.040   4.156
16499TPS    HA219198   0.725   1.508   0.723
16499TPS    CA219199   0.752   1.559   0.815
16499TPS    CA119200   0.777   1.489   0.934
16499TPS     Si19201   0.777   1.303   0.934
16499TPS    CA619202   0.818   1.561   1.048
16499TPS    HH619203   0.833   1.512   1.144
16499TPS    CA519204   0.841   1.700   1.041
16499TPS    HA519205   0.873   1.755   1.128
16499TPS    CA419206   0.818   1.768   0.920
16499TPS    HA419207   0.837   1.875   0.914
16499TPS    CA319208   0.771   1.698   0.808
16499TPS    HA319209   0.754   1.752   0.715
16500TPS    HA219210   6.005   1.329  -0.154
16500TPS    CA219211   6.032   1.380  -0.062
16500TPS    CA119212   6.057   1.310   0.057
16500TPS     Si19213   6.057   1.124   0.057
16500TPS    CA619214   6.098   1.382   0.171
16500TPS    HH619215   6.113   1.333   0.267
16500TPS    CA519216   6.121   1.521   0.164
16500TPS    HA519217   6.153   1.576   0.251
16500TPS    CA419218   6.098   1.589   0.043
16500TPS    HA419219   6.117   1.696   0.037
16500TPS    CA319220   6.051   1.519  -0.069
16500TPS    HA319221   6.034   1.573  -0.162
16501TPS    HA219222   2.556   1.474   6.677
16501TPS    CA219223   2.583   1.525   6.769
16501TPS    CA119224   2.608   1.455   6.888
16501TPS     Si19225   2.608   1.269   6.888
16501TPS    CA619226   2.649   1.527   7.002
16501TPS    HH619227   2.664   1.478   7.098
16501TPS    CA519228   2.672   1.666   6.995
16501TPS    HA519229   2.704   1.721   7.082
16501TPS    CA419230   2.649   1.734   6.874
16501TPS    HA419231   2.668   1.841   6.868
16501TPS    CA319232   2.602   1.664   6.762
16501TPS    HA319233   2.585   1.718   6.669
16502TPS    HA219234   2.945   8.037   0.953
16502TPS    CA219235   2.972   7.986   0.861
16502TPS    CA119236   2.997   8.056   0.742
16502TPS     Si19237   2.997   8.242   0.742
16502TPS    CA619238   3.038   7.984   0.628
16502TPS    HH619239   3.053   8.033   0.532
16502TPS    CA519240   3.061   7.845   0.635
16502TPS    HA519241   3.093   7.790   0.548
16502TPS    CA419242   3.038   7.777   0.756
16502TPS    HA419243   3.057   7.670   0.762
16502TPS    CA319244   2.991   7.847   0.868
16502TPS    HA319245   2.974   7.793   0.961
16503TPS    HA219246   8.463   1.426   8.077
16503TPS    CA219247   8.490   1.477   8.169
16503TPS    CA119248   8.515   1.407   8.288
16503TPS     Si19249   8.515   1.221   8.288
16503TPS    CA619250   8.556   1.479   8.402
16503TPS    HH619251   8.571   1.430   8.498
16503TPS    CA519252   8.579   1.618   8.395
16503TPS    HA519253   8.611   1.673   8.482
16503TPS    CA419254   8.556   1.686   8.274
16503TPS    HA419255   8.575   1.793   8.268
16503TPS    CA319256   8.509   1.616   8.162
16503TPS    HA319257   8.492   1.670   8.069
16504TPS    HA219258   9.275   8.180   4.118
16504TPS    CA219259   9.302   8.129   4.026
16504TPS    CA119260   9.327   8.199   3.907
16504TPS     Si19261   9.327   8.385   3.907
16504TPS    CA619262   9.368   8.127   3.793
16504TPS    HH619263   9.383   8.176   3.697
16504TPS    CA519264   9.391   7.988   3.800
16504TPS    HA519265   9.423   7.933   3.713
16504TPS    CA419266   9.368   7.920   3.921
16504TPS    HA419267   9.387   7.813   3.927
16504TPS    CA319268   9.321   7.990   4.033
16504TPS    HA319269   9.304   7.936   4.126
16505TPS    HA219270   7.286   8.036   7.743
16505TPS    CA219271   7.280   7.985   7.648
16505TPS    CA119272   7.263   8.055   7.527
16505TPS     Si19273   7.263   8.241   7.527
16505TPS    CA619274   7.263   7.983   7.406
16505TPS    HH619275   7.244   8.032   7.311
16505TPS    CA519276   7.286   7.844   7.405
16505TPS    HA519277   7.287   7.789   7.312
16505TPS    CA419278   7.306   7.776   7.526
16505TPS    HA419279   7.326   7.669   7.525
16505TPS    CA319280   7.300   7.846   7.647
16505TPS    HA319281   7.316   7.792   7.740
16506TPS    HA219282   3.653   1.343   4.623
16506TPS    CA219283   3.680   1.394   4.715
16506TPS    CA119284   3.705   1.324   4.834
16506TPS     Si19285   3.705   1.138   4.834
16506TPS    CA619286   3.746   1.396   4.948
16506TPS    HH619287   3.761   1.347   5.044
16506TPS    CA519288   3.769   1.535   4.941
16506TPS    HA519289   3.801   1.590   5.028
16506TPS    CA419290   3.746   1.603   4.820
16506TPS    HA419291   3.765   1.710   4.814
16506TPS    CA319292   3.699   1.533   4.708
16506TPS    HA319293   3.682   1.587   4.615
16507TPS    HA219294   0.471   1.481   6.139
16507TPS    CA219295   0.498   1.532   6.231
16507TPS    CA119296   0.523   1.462   6.350
16507TPS     Si19297   0.523   1.276   6.350
16507TPS    CA619298   0.564   1.534   6.464
16507TPS    HH619299   0.579   1.485   6.560
16507TPS    CA519300   0.587   1.673   6.457
16507TPS    HA519301   0.619   1.728   6.544
16507TPS    CA419302   0.564   1.741   6.336
16507TPS    HA419303   0.583   1.848   6.330
16507TPS    CA319304   0.517   1.671   6.224
16507TPS    HA319305   0.500   1.725   6.131
16508TPS    HA219306   4.444   1.498   1.333
16508TPS    CA219307   4.438   1.549   1.428
16508TPS    CA119308   4.421   1.479   1.549
16508TPS     Si19309   4.421   1.293   1.549
16508TPS    CA619310   4.421   1.551   1.670
16508TPS    HH619311   4.402   1.502   1.765
16508TPS    CA519312   4.444   1.690   1.671
16508TPS    HA519313   4.445   1.745   1.764
16508TPS    CA419314   4.464   1.758   1.550
16508TPS    HA419315   4.484   1.865   1.551
16508TPS    CA319316   4.458   1.688   1.429
16508TPS    HA319317   4.474   1.742   1.336
16509TPS    HA219318   6.161   1.538   4.115
16509TPS    CA219319   6.188   1.589   4.207
16509TPS    CA119320   6.213   1.519   4.326
16509TPS     Si19321   6.213   1.333   4.326
16509TPS    CA619322   6.254   1.591   4.440
16509TPS    HH619323   6.269   1.542   4.536
16509TPS    CA519324   6.277   1.730   4.433
16509TPS    HA519325   6.309   1.785   4.520
16509TPS    CA419326   6.254   1.798   4.312
16509TPS    HA419327   6.273   1.905   4.306
16509TPS    CA319328   6.207   1.728   4.200
16509TPS    HA319329   6.190   1.782   4.107
16510TPS    HA219330   7.887   1.440   8.815
16510TPS    CA219331   7.801   1.491   8.857
16510TPS    CA119332   7.688   1.421   8.903
16510TPS     Si19333   7.688   1.235   8.903
16510TPS    CA619334   7.583   1.493   8.963
16510TPS    HH619335   7.491   1.444   8.995
16510TPS    CA519336   7.594   1.632   8.984
16510TPS    HA519337   7.513   1.687   9.031
16510TPS    CA419338   7.709   1.700   8.941
16510TPS    HA419339   7.718   1.807   8.959
16510TPS    CA319340   7.811   1.630   8.875
16510TPS    HA319341   7.899   1.684   8.842
16511TPS    HA219342   6.681   8.182   3.560
16511TPS    CA219343   6.737   8.131   3.482
16511TPS    CA119344   6.802   8.201   3.379
16511TPS     Si19345   6.802   8.387   3.379
16511TPS    CA619346   6.880   8.129   3.286
16511TPS    HH619347   6.927   8.178   3.201
16511TPS    CA519348   6.898   7.990   3.301
16511TPS    HA519349   6.959   7.935   3.229
16511TPS    CA419350   6.836   7.922   3.406
16511TPS    HA419351   6.852   7.815   3.418
16511TPS    CA319352   6.753   7.992   3.495
16511TPS    HA319353   6.705   7.938   3.577
16512TPS    HA219354   0.985   8.126   4.678
16512TPS    CA219355   1.012   8.075   4.586
16512TPS    CA119356   1.037   8.145   4.467
16512TPS     Si19357   1.037   8.331   4.467
16512TPS    CA619358   1.078   8.073   4.353
16512TPS    HH619359   1.093   8.122   4.257
16512TPS    CA519360   1.101   7.934   4.360
16512TPS    HA519361   1.133   7.879   4.273
16512TPS    CA419362   1.078   7.866   4.481
16512TPS    HA419363   1.097   7.759   4.487
16512TPS    CA319364   1.031   7.936   4.593
16512TPS    HA319365   1.014   7.882   4.686
16513TPS    HA219366   6.074   1.482   5.633
16513TPS    CA219367   6.101   1.533   5.725
16513TPS    CA119368   6.126   1.463   5.844
16513TPS     Si19369   6.126   1.277   5.844
16513TPS    CA619370   6.167   1.535   5.958
16513TPS    HH619371   6.182   1.486   6.054
16513TPS    CA519372   6.190   1.674   5.951
16513TPS    HA519373   6.222   1.729   6.038
16513TPS    CA419374   6.167   1.742   5.830
16513TPS    HA419375   6.186   1.849   5.824
16513TPS    CA319376   6.120   1.672   5.718
16513TPS    HA319377   6.103   1.726   5.625
16514TPS    HA219378   7.387   1.390   4.157
16514TPS    CA219379   7.414   1.441   4.249
16514TPS    CA119380   7.439   1.371   4.368
16514TPS     Si19381   7.439   1.185   4.368
16514TPS    CA619382   7.480   1.443   4.482
16514TPS    HH619383   7.495   1.394   4.578
16514TPS    CA519384   7.503   1.582   4.475
16514TPS    HA519385   7.535   1.637   4.562
16514TPS    CA419386   7.480   1.650   4.354
16514TPS    HA419387   7.499   1.757   4.348
16514TPS    CA319388   7.433   1.580   4.242
16514TPS    HA319389   7.416   1.634   4.149
16515TPS    HA219390   2.671   8.068   5.720
16515TPS    CA219391   2.698   8.017   5.628
16515TPS    CA119392   2.723   8.087   5.509
16515TPS     Si19393   2.723   8.273   5.509
16515TPS    CA619394   2.764   8.015   5.395
16515TPS    HH619395   2.779   8.064   5.299
16515TPS    CA519396   2.787   7.876   5.402
16515TPS    HA519397   2.819   7.821   5.315
16515TPS    CA419398   2.764   7.808   5.523
16515TPS    HA419399   2.783   7.701   5.529
16515TPS    CA319400   2.717   7.878   5.635
16515TPS    HA319401   2.700   7.824   5.728
16516TPS    HA219402   9.501   1.559   7.543
16516TPS    CA219403   9.528   1.610   7.635
16516TPS    CA119404   9.553   1.540   7.754
16516TPS     Si19405   9.553   1.354   7.754
16516TPS    CA619406   9.594   1.612   7.868
16516TPS    HH619407   9.609   1.563   7.964
16516TPS    CA519408   9.617   1.751   7.861
16516TPS    HA519409   9.649   1.806   7.948
16516TPS    CA419410   9.594   1.819   7.740
16516TPS    HA419411   9.613   1.926   7.734
16516TPS    CA319412   9.547   1.749   7.628
16516TPS    HA319413   9.530   1.803   7.535
16517TPS    HA219414   5.822   8.150   5.721
16517TPS    CA219415   5.849   8.099   5.629
16517TPS    CA119416   5.874   8.169   5.510
16517TPS     Si19417   5.874   8.355   5.510
16517TPS    CA619418   5.915   8.097   5.396
16517TPS    HH619419   5.930   8.146   5.300
16517TPS    CA519420   5.938   7.958   5.403
16517TPS    HA519421   5.970   7.903   5.316
16517TPS    CA419422   5.915   7.890   5.524
16517TPS    HA419423   5.934   7.783   5.530
16517TPS    CA319424   5.868   7.960   5.636
16517TPS    HA319425   5.851   7.906   5.729
16518TPS    HA219426   9.351   8.091   7.796
16518TPS    CA219427   9.378   8.040   7.704
16518TPS    CA119428   9.403   8.110   7.585
16518TPS     Si19429   9.403   8.296   7.585
16518TPS    CA619430   9.444   8.038   7.471
16518TPS    HH619431   9.459   8.087   7.375
16518TPS    CA519432   9.467   7.899   7.478
16518TPS    HA519433   9.499   7.844   7.391
16518TPS    CA419434   9.444   7.831   7.599
16518TPS    HA419435   9.463   7.724   7.605
16518TPS    CA319436   9.397   7.901   7.711
16518TPS    HA319437   9.380   7.847   7.804
16519TPS    HA219438   9.604   8.130   1.307
16519TPS    CA219439   9.598   8.079   1.212
16519TPS    CA119440   9.581   8.149   1.091
16519TPS     Si19441   9.581   8.335   1.091
16519TPS    CA619442   9.581   8.077   0.970
16519TPS    HH619443   9.562   8.126   0.875
16519TPS    CA519444   9.604   7.938   0.969
16519TPS    HA519445   9.605   7.883   0.876
16519TPS    CA419446   9.624   7.870   1.090
16519TPS    HA419447   9.644   7.763   1.089
16519TPS    CA319448   9.618   7.940   1.211
16519TPS    HA319449   9.634   7.886   1.304
16520TPS    HA219450   0.857   1.617   4.434
16520TPS    CA219451   0.884   1.668   4.526
16520TPS    CA119452   0.909   1.598   4.645
16520TPS     Si19453   0.909   1.412   4.645
16520TPS    CA619454   0.950   1.670   4.759
16520TPS    HH619455   0.965   1.621   4.855
16520TPS    CA519456   0.973   1.809   4.752
16520TPS    HA519457   1.005   1.864   4.839
16520TPS    CA419458   0.950   1.877   4.631
16520TPS    HA419459   0.969   1.984   4.625
16520TPS    CA319460   0.903   1.807   4.519
16520TPS    HA319461   0.886   1.861   4.426
16521TPS    HA219462   1.895   8.117   5.123
16521TPS    CA219463   1.889   8.066   5.028
16521TPS    CA119464   1.872   8.136   4.907
16521TPS     Si19465   1.872   8.322   4.907
16521TPS    CA619466   1.872   8.064   4.786
16521TPS    HH619467   1.853   8.113   4.691
16521TPS    CA519468   1.895   7.925   4.785
16521TPS    HA519469   1.896   7.870   4.692
16521TPS    CA419470   1.915   7.857   4.906
16521TPS    HA419471   1.935   7.750   4.905
16521TPS    CA319472   1.909   7.927   5.027
16521TPS    HA319473   1.925   7.873   5.120
16522TPS    HA219474   4.227   8.265   1.462
16522TPS    CA219475   4.254   8.214   1.370
16522TPS    CA119476   4.279   8.284   1.251
16522TPS     Si19477   4.279   8.470   1.251
16522TPS    CA619478   4.320   8.212   1.137
16522TPS    HH619479   4.335   8.261   1.041
16522TPS    CA519480   4.343   8.073   1.144
16522TPS    HA519481   4.375   8.018   1.057
16522TPS    CA419482   4.320   8.005   1.265
16522TPS    HA419483   4.339   7.898   1.271
16522TPS    CA319484   4.273   8.075   1.377
16522TPS    HA319485   4.256   8.021   1.470
16523TPS    HA219486   8.433   1.540   6.132
16523TPS    CA219487   8.460   1.591   6.224
16523TPS    CA119488   8.485   1.521   6.343
16523TPS     Si19489   8.485   1.335   6.343
16523TPS    CA619490   8.526   1.593   6.457
16523TPS    HH619491   8.541   1.544   6.553
16523TPS    CA519492   8.549   1.732   6.450
16523TPS    HA519493   8.581   1.787   6.537
16523TPS    CA419494   8.526   1.800   6.329
16523TPS    HA419495   8.545   1.907   6.323
16523TPS    CA319496   8.479   1.730   6.217
16523TPS    HA319497   8.462   1.784   6.124
16524TPS    HA219498   9.072   1.476   1.346
16524TPS    CA219499   9.099   1.527   1.438
16524TPS    CA119500   9.124   1.457   1.557
16524TPS     Si19501   9.124   1.271   1.557
16524TPS    CA619502   9.165   1.529   1.671
16524TPS    HH619503   9.180   1.480   1.767
16524TPS    CA519504   9.188   1.668   1.664
16524TPS    HA519505   9.220   1.723   1.751
16524TPS    CA419506   9.165   1.736   1.543
16524TPS    HA419507   9.184   1.843   1.537
16524TPS    CA319508   9.118   1.666   1.431
16524TPS    HA319509   9.101   1.720   1.338
16525TPS    HA219510   2.513   1.353   8.839
16525TPS    CA219511   2.540   1.404   8.931
16525TPS    CA119512   2.565   1.334   9.050
16525TPS     Si19513   2.565   1.148   9.050
16525TPS    CA619514   2.606   1.406   9.164
16525TPS    HH619515   2.621   1.357   9.260
16525TPS    CA519516   2.629   1.545   9.157
16525TPS    HA519517   2.661   1.600   9.244
16525TPS    CA419518   2.606   1.613   9.036
16525TPS    HA419519   2.625   1.720   9.030
16525TPS    CA319520   2.559   1.543   8.924
16525TPS    HA319521   2.542   1.597   8.831
16526TPS    HA219522   2.479   1.383   4.199
16526TPS    CA219523   2.506   1.434   4.291
16526TPS    CA119524   2.531   1.364   4.410
16526TPS     Si19525   2.531   1.178   4.410
16526TPS    CA619526   2.572   1.436   4.524
16526TPS    HH619527   2.587   1.387   4.620
16526TPS    CA519528   2.595   1.575   4.517
16526TPS    HA519529   2.627   1.630   4.604
16526TPS    CA419530   2.572   1.643   4.396
16526TPS    HA419531   2.591   1.750   4.390
16526TPS    CA319532   2.525   1.573   4.284
16526TPS    HA319533   2.508   1.627   4.191
16527TPS    HA219534   5.122   1.526   9.070
16527TPS    CA219535   5.149   1.577   9.162
16527TPS    CA119536   5.174   1.507   9.281
16527TPS     Si19537   5.174   1.321   9.281
16527TPS    CA619538   5.215   1.579   9.395
16527TPS    HH619539   5.230   1.530   9.491
16527TPS    CA519540   5.238   1.718   9.388
16527TPS    HA519541   5.270   1.773   9.475
16527TPS    CA419542   5.215   1.786   9.267
16527TPS    HA419543   5.234   1.893   9.261
16527TPS    CA319544   5.168   1.716   9.155
16527TPS    HA319545   5.151   1.770   9.062
16528TPS    HA219546   4.014   1.365   1.720
16528TPS    CA219547   4.041   1.416   1.812
16528TPS    CA119548   4.066   1.346   1.931
16528TPS     Si19549   4.066   1.160   1.931
16528TPS    CA619550   4.107   1.418   2.045
16528TPS    HH619551   4.122   1.369   2.141
16528TPS    CA519552   4.130   1.557   2.038
16528TPS    HA519553   4.162   1.612   2.125
16528TPS    CA419554   4.107   1.625   1.917
16528TPS    HA419555   4.126   1.732   1.911
16528TPS    CA319556   4.060   1.555   1.805
16528TPS    HA319557   4.043   1.609   1.712
16529TPS    HA219558   8.093   8.067   4.102
16529TPS    CA219559   8.120   8.016   4.010
16529TPS    CA119560   8.145   8.086   3.891
16529TPS     Si19561   8.145   8.272   3.891
16529TPS    CA619562   8.186   8.014   3.777
16529TPS    HH619563   8.201   8.063   3.681
16529TPS    CA519564   8.209   7.875   3.784
16529TPS    HA519565   8.241   7.820   3.697
16529TPS    CA419566   8.186   7.807   3.905
16529TPS    HA419567   8.205   7.700   3.911
16529TPS    CA319568   8.139   7.877   4.017
16529TPS    HA319569   8.122   7.823   4.110
16530TPS    HA219570   8.191   7.990   5.672
16530TPS    CA219571   8.218   7.939   5.580
16530TPS    CA119572   8.243   8.009   5.461
16530TPS     Si19573   8.243   8.195   5.461
16530TPS    CA619574   8.284   7.937   5.347
16530TPS    HH619575   8.299   7.986   5.251
16530TPS    CA519576   8.307   7.798   5.354
16530TPS    HA519577   8.339   7.743   5.267
16530TPS    CA419578   8.284   7.730   5.475
16530TPS    HA419579   8.303   7.623   5.481
16530TPS    CA319580   8.237   7.800   5.587
16530TPS    HA319581   8.220   7.746   5.680
16531TPS    HA219582   7.132   7.980   8.884
16531TPS    CA219583   7.159   7.929   8.792
16531TPS    CA119584   7.184   7.999   8.673
16531TPS     Si19585   7.184   8.185   8.673
16531TPS    CA619586   7.225   7.927   8.559
16531TPS    HH619587   7.240   7.976   8.463
16531TPS    CA519588   7.248   7.788   8.566
16531TPS    HA519589   7.280   7.733   8.479
16531TPS    CA419590   7.225   7.720   8.687
16531TPS    HA419591   7.244   7.613   8.693
16531TPS    CA319592   7.178   7.790   8.799
16531TPS    HA319593   7.161   7.736   8.892
16532TPS    HA219594   5.322   7.990   1.930
16532TPS    CA219595   5.316   7.939   1.835
16532TPS    CA119596   5.299   8.009   1.714
16532TPS     Si19597   5.299   8.195   1.714
16532TPS    CA619598   5.299   7.937   1.593
16532TPS    HH619599   5.280   7.986   1.498
16532TPS    CA519600   5.322   7.798   1.592
16532TPS    HA519601   5.323   7.743   1.499
16532TPS    CA419602   5.342   7.730   1.713
16532TPS    HA419603   5.362   7.623   1.712
16532TPS    CA319604   5.336   7.800   1.834
16532TPS    HA319605   5.352   7.746   1.927
16533TPS    HA219606   3.524   8.028   6.571
16533TPS    CA219607   3.551   7.977   6.479
16533TPS    CA119608   3.576   8.047   6.360
16533TPS     Si19609   3.576   8.233   6.360
16533TPS    CA619610   3.617   7.975   6.246
16533TPS    HH619611   3.632   8.024   6.150
16533TPS    CA519612   3.640   7.836   6.253
16533TPS    HA519613   3.672   7.781   6.166
16533TPS    CA419614   3.617   7.768   6.374
16533TPS    HA419615   3.636   7.661   6.380
16533TPS    CA319616   3.570   7.838   6.486
16533TPS    HA319617   3.553   7.784   6.579
16534TPS    HA219618   4.244   8.215   9.696
16534TPS    CA219619   4.271   8.164   9.604
16534TPS    CA119620   4.296   8.234   9.485
16534TPS     Si19621   4.296   8.420   9.485
16534TPS    CA619622   4.337   8.162   9.371
16534TPS    HH619623   4.352   8.211   9.275
16534TPS    CA519624   4.360   8.023   9.378
16534TPS    HA519625   4.392   7.968   9.291
16534TPS    CA419626   4.337   7.955   9.499
16534TPS    HA419627   4.356   7.848   9.505
16534TPS    CA319628   4.290   8.025   9.611
16534TPS    HA319629   4.273   7.971   9.704
16535TPS    HA219630   8.292   1.466   7.264
16535TPS    CA219631   8.319   1.517   7.356
16535TPS    CA119632   8.344   1.447   7.475
16535TPS     Si19633   8.344   1.261   7.475
16535TPS    CA619634   8.385   1.519   7.589
16535TPS    HH619635   8.400   1.470   7.685
16535TPS    CA519636   8.408   1.658   7.582
16535TPS    HA519637   8.440   1.713   7.669
16535TPS    CA419638   8.385   1.726   7.461
16535TPS    HA419639   8.404   1.833   7.455
16535TPS    CA319640   8.338   1.656   7.349
16535TPS    HA319641   8.321   1.710   7.256
16536TPS    HA219642   0.959   1.395   7.311
16536TPS    CA219643   0.986   1.446   7.403
16536TPS    CA119644   1.011   1.376   7.522
16536TPS     Si19645   1.011   1.190   7.522
16536TPS    CA619646   1.052   1.448   7.636
16536TPS    HH619647   1.067   1.399   7.732
16536TPS    CA519648   1.075   1.587   7.629
16536TPS    HA519649   1.107   1.642   7.716
16536TPS    CA419650   1.052   1.655   7.508
16536TPS    HA419651   1.071   1.762   7.502
16536TPS    CA319652   1.005   1.585   7.396
16536TPS    HA319653   0.988   1.639   7.303
16537TPS    HA219654   5.415   1.407  -0.125
16537TPS    CA219655   5.442   1.458  -0.033
16537TPS    CA119656   5.467   1.388   0.086
16537TPS     Si19657   5.467   1.202   0.086
16537TPS    CA619658   5.508   1.460   0.200
16537TPS    HH619659   5.523   1.411   0.296
16537TPS    CA519660   5.531   1.599   0.193
16537TPS    HA519661   5.563   1.654   0.280
16537TPS    CA419662   5.508   1.667   0.072
16537TPS    HA419663   5.527   1.774   0.066
16537TPS    CA319664   5.461   1.597  -0.040
16537TPS    HA319665   5.444   1.651  -0.133
16538TPS    HA219666   5.901   1.485   8.813
16538TPS    CA219667   5.928   1.536   8.905
16538TPS    CA119668   5.953   1.466   9.024
16538TPS     Si19669   5.953   1.280   9.024
16538TPS    CA619670   5.994   1.538   9.138
16538TPS    HH619671   6.009   1.489   9.234
16538TPS    CA519672   6.017   1.677   9.131
16538TPS    HA519673   6.049   1.732   9.218
16538TPS    CA419674   5.994   1.745   9.010
16538TPS    HA419675   6.013   1.852   9.004
16538TPS    CA319676   5.947   1.675   8.898
16538TPS    HA319677   5.930   1.729   8.805
16539TPS    HA219678   1.907   1.459   8.406
16539TPS    CA219679   1.934   1.510   8.498
16539TPS    CA119680   1.959   1.440   8.617
16539TPS     Si19681   1.959   1.254   8.617
16539TPS    CA619682   2.000   1.512   8.731
16539TPS    HH619683   2.015   1.463   8.827
16539TPS    CA519684   2.023   1.651   8.724
16539TPS    HA519685   2.055   1.706   8.811
16539TPS    CA419686   2.000   1.719   8.603
16539TPS    HA419687   2.019   1.826   8.597
16539TPS    CA319688   1.953   1.649   8.491
16539TPS    HA319689   1.936   1.703   8.398
16540TPS    HA219690   6.738   1.544   2.447
16540TPS    CA219691   6.765   1.595   2.539
16540TPS    CA119692   6.790   1.525   2.658
16540TPS     Si19693   6.790   1.339   2.658
16540TPS    CA619694   6.831   1.597   2.772
16540TPS    HH619695   6.846   1.548   2.868
16540TPS    CA519696   6.854   1.736   2.765
16540TPS    HA519697   6.886   1.791   2.852
16540TPS    CA419698   6.831   1.804   2.644
16540TPS    HA419699   6.850   1.911   2.638
16540TPS    CA319700   6.784   1.734   2.532
16540TPS    HA319701   6.767   1.788   2.439
16541TPS    HA219702   5.944   8.066   7.633
16541TPS    CA219703   5.938   8.015   7.538
16541TPS    CA119704   5.921   8.085   7.417
16541TPS     Si19705   5.921   8.271   7.417
16541TPS    CA619706   5.921   8.013   7.296
16541TPS    HH619707   5.902   8.062   7.201
16541TPS    CA519708   5.944   7.874   7.295
16541TPS    HA519709   5.945   7.819   7.202
16541TPS    CA419710   5.964   7.806   7.416
16541TPS    HA419711   5.984   7.699   7.415
16541TPS    CA319712   5.958   7.876   7.537
16541TPS    HA319713   5.974   7.822   7.630
16542TPS    HA219714   0.460   8.100   7.174
16542TPS    CA219715   0.487   8.049   7.082
16542TPS    CA119716   0.512   8.119   6.963
16542TPS     Si19717   0.512   8.305   6.963
16542TPS    CA619718   0.553   8.047   6.849
16542TPS    HH619719   0.568   8.096   6.753
16542TPS    CA519720   0.576   7.908   6.856
16542TPS    HA519721   0.608   7.853   6.769
16542TPS    CA419722   0.553   7.840   6.977
16542TPS    HA419723   0.572   7.733   6.983
16542TPS    CA319724   0.506   7.910   7.089
16542TPS    HA319725   0.489   7.856   7.182
16543TPS    HA219726   1.083   1.439   4.838
16543TPS    CA219727   1.110   1.490   4.930
16543TPS    CA119728   1.135   1.420   5.049
16543TPS     Si19729   1.135   1.234   5.049
16543TPS    CA619730   1.176   1.492   5.163
16543TPS    HH619731   1.191   1.443   5.259
16543TPS    CA519732   1.199   1.631   5.156
16543TPS    HA519733   1.231   1.686   5.243
16543TPS    CA419734   1.176   1.699   5.035
16543TPS    HA419735   1.195   1.806   5.029
16543TPS    CA319736   1.129   1.629   4.923
16543TPS    HA319737   1.112   1.683   4.830
16544TPS    HA219738   0.297   8.112   2.955
16544TPS    CA219739   0.324   8.061   2.863
16544TPS    CA119740   0.349   8.131   2.744
16544TPS     Si19741   0.349   8.317   2.744
16544TPS    CA619742   0.390   8.059   2.630
16544TPS    HH619743   0.405   8.108   2.534
16544TPS    CA519744   0.413   7.920   2.637
16544TPS    HA519745   0.445   7.865   2.550
16544TPS    CA419746   0.390   7.852   2.758
16544TPS    HA419747   0.409   7.745   2.764
16544TPS    CA319748   0.343   7.922   2.870
16544TPS    HA319749   0.326   7.868   2.963
16545TPS    HA219750   1.962   1.452   7.947
16545TPS    CA219751   1.989   1.503   8.039
16545TPS    CA119752   2.014   1.433   8.158
16545TPS     Si19753   2.014   1.247   8.158
16545TPS    CA619754   2.055   1.505   8.272
16545TPS    HH619755   2.070   1.456   8.368
16545TPS    CA519756   2.078   1.644   8.265
16545TPS    HA519757   2.110   1.699   8.352
16545TPS    CA419758   2.055   1.712   8.144
16545TPS    HA419759   2.074   1.819   8.138
16545TPS    CA319760   2.008   1.642   8.032
16545TPS    HA319761   1.991   1.696   7.939
16546TPS    HA219762   9.317   1.411   6.304
16546TPS    CA219763   9.344   1.462   6.396
16546TPS    CA119764   9.369   1.392   6.515
16546TPS     Si19765   9.369   1.206   6.515
16546TPS    CA619766   9.410   1.464   6.629
16546TPS    HH619767   9.425   1.415   6.725
16546TPS    CA519768   9.433   1.603   6.622
16546TPS    HA519769   9.465   1.658   6.709
16546TPS    CA419770   9.410   1.671   6.501
16546TPS    HA419771   9.429   1.778   6.495
16546TPS    CA319772   9.363   1.601   6.389
16546TPS    HA319773   9.346   1.655   6.296
16547TPS    HA219774   0.610   8.087   3.690
16547TPS    CA219775   0.637   8.036   3.598
16547TPS    CA119776   0.662   8.106   3.479
16547TPS     Si19777   0.662   8.292   3.479
16547TPS    CA619778   0.703   8.034   3.365
16547TPS    HH619779   0.718   8.083   3.269
16547TPS    CA519780   0.726   7.895   3.372
16547TPS    HA519781   0.758   7.840   3.285
16547TPS    CA419782   0.703   7.827   3.493
16547TPS    HA419783   0.722   7.720   3.499
16547TPS    CA319784   0.656   7.897   3.605
16547TPS    HA319785   0.639   7.843   3.698
16548TPS    HA219786   6.144   1.399   6.973
16548TPS    CA219787   6.171   1.450   7.065
16548TPS    CA119788   6.196   1.380   7.184
16548TPS     Si19789   6.196   1.194   7.184
16548TPS    CA619790   6.237   1.452   7.298
16548TPS    HH619791   6.252   1.403   7.394
16548TPS    CA519792   6.260   1.591   7.291
16548TPS    HA519793   6.292   1.646   7.378
16548TPS    CA419794   6.237   1.659   7.170
16548TPS    HA419795   6.256   1.766   7.164
16548TPS    CA319796   6.190   1.589   7.058
16548TPS    HA319797   6.173   1.643   6.965
16549TPS    HA219798   1.790   8.082   2.064
16549TPS    CA219799   1.817   8.031   1.972
16549TPS    CA119800   1.842   8.101   1.853
16549TPS     Si19801   1.842   8.287   1.853
16549TPS    CA619802   1.883   8.029   1.739
16549TPS    HH619803   1.898   8.078   1.643
16549TPS    CA519804   1.906   7.890   1.746
16549TPS    HA519805   1.938   7.835   1.659
16549TPS    CA419806   1.883   7.822   1.867
16549TPS    HA419807   1.902   7.715   1.873
16549TPS    CA319808   1.836   7.892   1.979
16549TPS    HA319809   1.819   7.838   2.072
16550TPS    HA219810   8.559   1.512   5.144
16550TPS    CA219811   8.586   1.563   5.236
16550TPS    CA119812   8.611   1.493   5.355
16550TPS     Si19813   8.611   1.307   5.355
16550TPS    CA619814   8.652   1.565   5.469
16550TPS    HH619815   8.667   1.516   5.565
16550TPS    CA519816   8.675   1.704   5.462
16550TPS    HA519817   8.707   1.759   5.549
16550TPS    CA419818   8.652   1.772   5.341
16550TPS    HA419819   8.671   1.879   5.335
16550TPS    CA319820   8.605   1.702   5.229
16550TPS    HA319821   8.588   1.756   5.136
16551TPS    HA219822   3.616   8.172   2.746
16551TPS    CA219823   3.643   8.121   2.654
16551TPS    CA119824   3.668   8.191   2.535
16551TPS     Si19825   3.668   8.377   2.535
16551TPS    CA619826   3.709   8.119   2.421
16551TPS    HH619827   3.724   8.168   2.325
16551TPS    CA519828   3.732   7.980   2.428
16551TPS    HA519829   3.764   7.925   2.341
16551TPS    CA419830   3.709   7.912   2.549
16551TPS    HA419831   3.728   7.805   2.555
16551TPS    CA319832   3.662   7.982   2.661
16551TPS    HA319833   3.645   7.928   2.754
16552TPS    HA219834   7.252   8.068   4.041
16552TPS    CA219835   7.213   8.017   3.954
16552TPS    CA119836   7.156   8.087   3.846
16552TPS     Si19837   7.156   8.273   3.846
16552TPS    CA619838   7.114   8.015   3.732
16552TPS    HH619839   7.064   8.064   3.649
16552TPS    CA519840   7.136   7.876   3.724
16552TPS    HA519841   7.105   7.821   3.635
16552TPS    CA419842   7.196   7.808   3.830
16552TPS    HA419843   7.215   7.701   3.823
16552TPS    CA319844   7.232   7.878   3.946
16552TPS    HA319845   7.279   7.824   4.029
16553TPS    HA219846   5.703   8.183   8.219
16553TPS    CA219847   5.730   8.132   8.127
16553TPS    CA119848   5.755   8.202   8.008
16553TPS     Si19849   5.755   8.388   8.008
16553TPS    CA619850   5.796   8.130   7.894
16553TPS    HH619851   5.811   8.179   7.798
16553TPS    CA519852   5.819   7.991   7.901
16553TPS    HA519853   5.851   7.936   7.814
16553TPS    CA419854   5.796   7.923   8.022
16553TPS    HA419855   5.815   7.816   8.028
16553TPS    CA319856   5.749   7.993   8.134
16553TPS    HA319857   5.732   7.939   8.227
16554TPS    HA219858   6.390   8.192   9.337
16554TPS    CA219859   6.417   8.141   9.245
16554TPS    CA119860   6.442   8.211   9.126
16554TPS     Si19861   6.442   8.397   9.126
16554TPS    CA619862   6.483   8.139   9.012
16554TPS    HH619863   6.498   8.188   8.916
16554TPS    CA519864   6.506   8.000   9.019
16554TPS    HA519865   6.538   7.945   8.932
16554TPS    CA419866   6.483   7.932   9.140
16554TPS    HA419867   6.502   7.825   9.146
16554TPS    CA319868   6.436   8.002   9.252
16554TPS    HA319869   6.419   7.948   9.345
16555TPS    HA219870   8.249   8.173   6.698
16555TPS    CA219871   8.276   8.122   6.606
16555TPS    CA119872   8.301   8.192   6.487
16555TPS     Si19873   8.301   8.378   6.487
16555TPS    CA619874   8.342   8.120   6.373
16555TPS    HH619875   8.357   8.169   6.277
16555TPS    CA519876   8.365   7.981   6.380
16555TPS    HA519877   8.397   7.926   6.293
16555TPS    CA419878   8.342   7.913   6.501
16555TPS    HA419879   8.361   7.806   6.507
16555TPS    CA319880   8.295   7.983   6.613
16555TPS    HA319881   8.278   7.929   6.706
16556TPS    HA219882   4.045   1.401  -0.033
16556TPS    CA219883   4.072   1.452   0.059
16556TPS    CA119884   4.097   1.382   0.178
16556TPS     Si19885   4.097   1.196   0.178
16556TPS    CA619886   4.138   1.454   0.292
16556TPS    HH619887   4.153   1.405   0.388
16556TPS    CA519888   4.161   1.593   0.285
16556TPS    HA519889   4.193   1.648   0.372
16556TPS    CA419890   4.138   1.661   0.164
16556TPS    HA419891   4.157   1.768   0.158
16556TPS    CA319892   4.091   1.591   0.052
16556TPS    HA319893   4.074   1.645  -0.041
16557TPS    HA219894   1.256   8.232   5.326
16557TPS    CA219895   1.283   8.181   5.234
16557TPS    CA119896   1.308   8.251   5.115
16557TPS     Si19897   1.308   8.437   5.115
16557TPS    CA619898   1.349   8.179   5.001
16557TPS    HH619899   1.364   8.228   4.905
16557TPS    CA519900   1.372   8.040   5.008
16557TPS    HA519901   1.404   7.985   4.921
16557TPS    CA419902   1.349   7.972   5.129
16557TPS    HA419903   1.368   7.865   5.135
16557TPS    CA319904   1.302   8.042   5.241
16557TPS    HA319905   1.285   7.988   5.334
16558TPS    HA219906   0.188   1.522   6.019
16558TPS    CA219907   0.215   1.573   6.111
16558TPS    CA119908   0.240   1.503   6.230
16558TPS     Si19909   0.240   1.317   6.230
16558TPS    CA619910   0.281   1.575   6.344
16558TPS    HH619911   0.296   1.526   6.440
16558TPS    CA519912   0.304   1.714   6.337
16558TPS    HA519913   0.336   1.769   6.424
16558TPS    CA419914   0.281   1.782   6.216
16558TPS    HA419915   0.300   1.889   6.210
16558TPS    CA319916   0.234   1.712   6.104
16558TPS    HA319917   0.217   1.766   6.011
16559TPS    HA219918   6.068   1.487   7.248
16559TPS    CA219919   6.095   1.538   7.340
16559TPS    CA119920   6.120   1.468   7.459
16559TPS     Si19921   6.120   1.282   7.459
16559TPS    CA619922   6.161   1.540   7.573
16559TPS    HH619923   6.176   1.491   7.669
16559TPS    CA519924   6.184   1.679   7.566
16559TPS    HA519925   6.216   1.734   7.653
16559TPS    CA419926   6.161   1.747   7.445
16559TPS    HA419927   6.180   1.854   7.439
16559TPS    CA319928   6.114   1.677   7.333
16559TPS    HA319929   6.097   1.731   7.240
16560TPS    HA219930   5.822   1.608   1.632
16560TPS    CA219931   5.849   1.659   1.724
16560TPS    CA119932   5.874   1.589   1.843
16560TPS     Si19933   5.874   1.403   1.843
16560TPS    CA619934   5.915   1.661   1.957
16560TPS    HH619935   5.930   1.612   2.053
16560TPS    CA519936   5.938   1.800   1.950
16560TPS    HA519937   5.970   1.855   2.037
16560TPS    CA419938   5.915   1.868   1.829
16560TPS    HA419939   5.934   1.975   1.823
16560TPS    CA319940   5.868   1.798   1.717
16560TPS    HA319941   5.851   1.852   1.624
16561TPS    HA219942   8.155   1.535   8.717
16561TPS    CA219943   8.182   1.586   8.809
16561TPS    CA119944   8.207   1.516   8.928
16561TPS     Si19945   8.207   1.330   8.928
16561TPS    CA619946   8.248   1.588   9.042
16561TPS    HH619947   8.263   1.539   9.138
16561TPS    CA519948   8.271   1.727   9.035
16561TPS    HA519949   8.303   1.782   9.122
16561TPS    CA419950   8.248   1.795   8.914
16561TPS    HA419951   8.267   1.902   8.908
16561TPS    CA319952   8.201   1.725   8.802
16561TPS    HA319953   8.184   1.779   8.709
16562TPS    HA219954   1.283   1.588   0.567
16562TPS    CA219955   1.310   1.639   0.659
16562TPS    CA119956   1.335   1.569   0.778
16562TPS     Si19957   1.335   1.383   0.778
16562TPS    CA619958   1.376   1.641   0.892
16562TPS    HH619959   1.391   1.592   0.988
16562TPS    CA519960   1.399   1.780   0.885
16562TPS    HA519961   1.431   1.835   0.972
16562TPS    CA419962   1.376   1.848   0.764
16562TPS    HA419963   1.395   1.955   0.758
16562TPS    CA319964   1.329   1.778   0.652
16562TPS    HA319965   1.312   1.832   0.559
16563TPS    HA219966   2.118   7.986   4.862
16563TPS    CA219967   2.079   7.935   4.775
16563TPS    CA119968   2.022   8.005   4.667
16563TPS     Si19969   2.022   8.191   4.667
16563TPS    CA619970   1.980   7.933   4.553
16563TPS    HH619971   1.930   7.982   4.470
16563TPS    CA519972   2.002   7.794   4.545
16563TPS    HA519973   1.971   7.739   4.456
16563TPS    CA419974   2.062   7.726   4.651
16563TPS    HA419975   2.081   7.619   4.644
16563TPS    CA319976   2.098   7.796   4.767
16563TPS    HA319977   2.145   7.742   4.850
16564TPS    HA219978  -0.019   1.608   0.701
16564TPS    CA219979   0.008   1.659   0.793
16564TPS    CA119980   0.033   1.589   0.912
16564TPS     Si19981   0.033   1.403   0.912
16564TPS    CA619982   0.074   1.661   1.026
16564TPS    HH619983   0.089   1.612   1.122
16564TPS    CA519984   0.097   1.800   1.019
16564TPS    HA519985   0.129   1.855   1.106
16564TPS    CA419986   0.074   1.868   0.898
16564TPS    HA419987   0.093   1.975   0.892
16564TPS    CA319988   0.027   1.798   0.786
16564TPS    HA319989   0.010   1.852   0.693
16565TPS    HA219990   5.006   8.157   3.027
16565TPS    CA219991   5.000   8.106   2.932
16565TPS    CA119992   4.983   8.176   2.811
16565TPS     Si19993   4.983   8.362   2.811
16565TPS    CA619994   4.983   8.104   2.690
16565TPS    HH619995   4.964   8.153   2.595
16565TPS    CA519996   5.006   7.965   2.689
16565TPS    HA519997   5.007   7.910   2.596
16565TPS    CA419998   5.026   7.897   2.810
16565TPS    HA419999   5.046   7.790   2.809
16565TPS    CA320000   5.020   7.967   2.931
16565TPS    HA320001   5.036   7.913   3.024
16566TPS    HA220002   6.139   1.586   8.216
16566TPS    CA220003   6.166   1.637   8.308
16566TPS    CA120004   6.191   1.567   8.427
16566TPS     Si20005   6.191   1.381   8.427
16566TPS    CA620006   6.232   1.639   8.541
16566TPS    HH620007   6.247   1.590   8.637
16566TPS    CA520008   6.255   1.778   8.534
16566TPS    HA520009   6.287   1.833   8.621
16566TPS    CA420010   6.232   1.846   8.413
16566TPS    HA420011   6.251   1.953   8.407
16566TPS    CA320012   6.185   1.776   8.301
16566TPS    HA320013   6.168   1.830   8.208
16567TPS    HA220014   1.345   8.090   0.378
16567TPS    CA220015   1.372   8.039   0.286
16567TPS    CA120016   1.397   8.109   0.167
16567TPS     Si20017   1.397   8.295   0.167
16567TPS    CA620018   1.438   8.037   0.053
16567TPS    HH620019   1.453   8.086  -0.043
16567TPS    CA520020   1.461   7.898   0.060
16567TPS    HA520021   1.493   7.843  -0.027
16567TPS    CA420022   1.438   7.830   0.181
16567TPS    HA420023   1.457   7.723   0.187
16567TPS    CA320024   1.391   7.900   0.293
16567TPS    HA320025   1.374   7.846   0.386
16568TPS    HA220026   6.133   8.124   6.301
16568TPS    CA220027   6.160   8.073   6.209
16568TPS    CA120028   6.185   8.143   6.090
16568TPS     Si20029   6.185   8.329   6.090
16568TPS    CA620030   6.226   8.071   5.976
16568TPS    HH620031   6.241   8.120   5.880
16568TPS    CA520032   6.249   7.932   5.983
16568TPS    HA520033   6.281   7.877   5.896
16568TPS    CA420034   6.226   7.864   6.104
16568TPS    HA420035   6.245   7.757   6.110
16568TPS    CA320036   6.179   7.934   6.216
16568TPS    HA320037   6.162   7.880   6.309
16569TPS    HA220038   2.822   1.549   3.179
16569TPS    CA220039   2.816   1.600   3.274
16569TPS    CA120040   2.799   1.530   3.395
16569TPS     Si20041   2.799   1.344   3.395
16569TPS    CA620042   2.799   1.602   3.516
16569TPS    HH620043   2.780   1.553   3.611
16569TPS    CA520044   2.822   1.741   3.517
16569TPS    HA520045   2.823   1.796   3.610
16569TPS    CA420046   2.842   1.809   3.396
16569TPS    HA420047   2.862   1.916   3.397
16569TPS    CA320048   2.836   1.739   3.275
16569TPS    HA320049   2.852   1.793   3.182
16570TPS    HA220050   4.856   8.149   2.782
16570TPS    CA220051   4.777   8.098   2.835
16570TPS    CA120052   4.681   8.168   2.910
16570TPS     Si20053   4.681   8.354   2.910
16570TPS    CA620054   4.576   8.096   2.971
16570TPS    HH620055   4.503   8.145   3.034
16570TPS    CA520056   4.564   7.957   2.951
16570TPS    HA520057   4.483   7.902   2.997
16570TPS    CA420058   4.658   7.889   2.873
16570TPS    HA420059   4.648   7.782   2.856
16570TPS    CA320060   4.767   7.959   2.817
16570TPS    HA320061   4.839   7.905   2.757
16571TPS    HA220062   2.555   1.464   9.405
16571TPS    CA220063   2.648   1.515   9.428
16571TPS    CA120064   2.764   1.445   9.466
16571TPS     Si20065   2.764   1.259   9.466
16571TPS    CA620066   2.883   1.517   9.488
16571TPS    HH620067   2.974   1.468   9.522
16571TPS    CA520068   2.888   1.656   9.464
16571TPS    HA520069   2.980   1.711   9.480
16571TPS    CA420070   2.773   1.724   9.424
16571TPS    HA420071   2.777   1.831   9.404
16571TPS    CA320072   2.652   1.654   9.408
16571TPS    HA320073   2.563   1.708   9.377
16572TPS    HA220074   8.593   8.200   2.852
16572TPS    CA220075   8.620   8.149   2.760
16572TPS    CA120076   8.645   8.219   2.641
16572TPS     Si20077   8.645   8.405   2.641
16572TPS    CA620078   8.686   8.147   2.527
16572TPS    HH620079   8.701   8.196   2.431
16572TPS    CA520080   8.709   8.008   2.534
16572TPS    HA520081   8.741   7.953   2.447
16572TPS    CA420082   8.686   7.940   2.655
16572TPS    HA420083   8.705   7.833   2.661
16572TPS    CA320084   8.639   8.010   2.767
16572TPS    HA320085   8.622   7.956   2.860
16573TPS    HA220086   6.445   1.579   3.993
16573TPS    CA220087   6.472   1.630   4.085
16573TPS    CA120088   6.497   1.560   4.204
16573TPS     Si20089   6.497   1.374   4.204
16573TPS    CA620090   6.538   1.632   4.318
16573TPS    HH620091   6.553   1.583   4.414
16573TPS    CA520092   6.561   1.771   4.311
16573TPS    HA520093   6.593   1.826   4.398
16573TPS    CA420094   6.538   1.839   4.190
16573TPS    HA420095   6.557   1.946   4.184
16573TPS    CA320096   6.491   1.769   4.078
16573TPS    HA320097   6.474   1.823   3.985
16574TPS    HA220098   5.829   1.362   3.718
16574TPS    CA220099   5.856   1.413   3.810
16574TPS    CA120100   5.881   1.343   3.929
16574TPS     Si20101   5.881   1.157   3.929
16574TPS    CA620102   5.922   1.415   4.043
16574TPS    HH620103   5.937   1.366   4.139
16574TPS    CA520104   5.945   1.554   4.036
16574TPS    HA520105   5.977   1.609   4.123
16574TPS    CA420106   5.922   1.622   3.915
16574TPS    HA420107   5.941   1.729   3.909
16574TPS    CA320108   5.875   1.552   3.803
16574TPS    HA320109   5.858   1.606   3.710
16575TPS    HA220110   5.157   8.166   4.525
16575TPS    CA220111   5.078   8.115   4.578
16575TPS    CA120112   4.982   8.185   4.653
16575TPS     Si20113   4.982   8.371   4.653
16575TPS    CA620114   4.877   8.113   4.714
16575TPS    HH620115   4.804   8.162   4.777
16575TPS    CA520116   4.865   7.974   4.694
16575TPS    HA520117   4.784   7.919   4.740
16575TPS    CA420118   4.959   7.906   4.616
16575TPS    HA420119   4.949   7.799   4.599
16575TPS    CA320120   5.068   7.976   4.560
16575TPS    HA320121   5.140   7.922   4.500
16576TPS    HA220122   0.060   8.075   2.768
16576TPS    CA220123   0.087   8.024   2.676
16576TPS    CA120124   0.112   8.094   2.557
16576TPS     Si20125   0.112   8.280   2.557
16576TPS    CA620126   0.153   8.022   2.443
16576TPS    HH620127   0.168   8.071   2.347
16576TPS    CA520128   0.176   7.883   2.450
16576TPS    HA520129   0.208   7.828   2.363
16576TPS    CA420130   0.153   7.815   2.571
16576TPS    HA420131   0.172   7.708   2.577
16576TPS    CA320132   0.106   7.885   2.683
16576TPS    HA320133   0.089   7.831   2.776
16577TPS    HA220134   1.846   8.128   7.706
16577TPS    CA220135   1.873   8.077   7.614
16577TPS    CA120136   1.898   8.147   7.495
16577TPS     Si20137   1.898   8.333   7.495
16577TPS    CA620138   1.939   8.075   7.381
16577TPS    HH620139   1.954   8.124   7.285
16577TPS    CA520140   1.962   7.936   7.388
16577TPS    HA520141   1.994   7.881   7.301
16577TPS    CA420142   1.939   7.868   7.509
16577TPS    HA420143   1.958   7.761   7.515
16577TPS    CA320144   1.892   7.938   7.621
16577TPS    HA320145   1.875   7.884   7.714
16578TPS    HA220146   7.085   1.448   6.280
16578TPS    CA220147   7.112   1.499   6.372
16578TPS    CA120148   7.137   1.429   6.491
16578TPS     Si20149   7.137   1.243   6.491
16578TPS    CA620150   7.178   1.501   6.605
16578TPS    HH620151   7.193   1.452   6.701
16578TPS    CA520152   7.201   1.640   6.598
16578TPS    HA520153   7.233   1.695   6.685
16578TPS    CA420154   7.178   1.708   6.477
16578TPS    HA420155   7.197   1.815   6.471
16578TPS    CA320156   7.131   1.638   6.365
16578TPS    HA320157   7.114   1.692   6.272
16579TPS    HA220158   8.283   8.166   8.815
16579TPS    CA220159   8.310   8.115   8.723
16579TPS    CA120160   8.335   8.185   8.604
16579TPS     Si20161   8.335   8.371   8.604
16579TPS    CA620162   8.376   8.113   8.490
16579TPS    HH620163   8.391   8.162   8.394
16579TPS    CA520164   8.399   7.974   8.497
16579TPS    HA520165   8.431   7.919   8.410
16579TPS    CA420166   8.376   7.906   8.618
16579TPS    HA420167   8.395   7.799   8.624
16579TPS    CA320168   8.329   7.976   8.730
16579TPS    HA320169   8.312   7.922   8.823
16580TPS    HA220170   0.532   1.595   5.160
16580TPS    CA220171   0.559   1.646   5.252
16580TPS    CA120172   0.584   1.576   5.371
16580TPS     Si20173   0.584   1.390   5.371
16580TPS    CA620174   0.625   1.648   5.485
16580TPS    HH620175   0.640   1.599   5.581
16580TPS    CA520176   0.648   1.787   5.478
16580TPS    HA520177   0.680   1.842   5.565
16580TPS    CA420178   0.625   1.855   5.357
16580TPS    HA420179   0.644   1.962   5.351
16580TPS    CA320180   0.578   1.785   5.245
16580TPS    HA320181   0.561   1.839   5.152
16581TPS    HA220182   1.621   8.056   8.981
16581TPS    CA220183   1.615   8.005   8.886
16581TPS    CA120184   1.598   8.075   8.765
16581TPS     Si20185   1.598   8.261   8.765
16581TPS    CA620186   1.598   8.003   8.644
16581TPS    HH620187   1.579   8.052   8.549
16581TPS    CA520188   1.621   7.864   8.643
16581TPS    HA520189   1.622   7.809   8.550
16581TPS    CA420190   1.641   7.796   8.764
16581TPS    HA420191   1.661   7.689   8.763
16581TPS    CA320192   1.635   7.866   8.885
16581TPS    HA320193   1.651   7.812   8.978
16582TPS    HA220194   8.045   1.609   4.572
16582TPS    CA220195   8.111   1.660   4.504
16582TPS    CA120196   8.202   1.590   4.422
16582TPS     Si20197   8.202   1.404   4.422
16582TPS    CA620198   8.280   1.662   4.329
16582TPS    HH620199   8.355   1.613   4.268
16582TPS    CA520200   8.263   1.801   4.314
16582TPS    HA520201   8.322   1.856   4.242
16582TPS    CA420202   8.170   1.869   4.393
16582TPS    HA420203   8.155   1.976   4.380
16582TPS    CA320204   8.096   1.799   4.490
16582TPS    HA320205   8.024   1.853   4.552
16583TPS    HA220206   2.670   8.180   1.647
16583TPS    CA220207   2.697   8.129   1.555
16583TPS    CA120208   2.722   8.199   1.436
16583TPS     Si20209   2.722   8.385   1.436
16583TPS    CA620210   2.763   8.127   1.322
16583TPS    HH620211   2.778   8.176   1.226
16583TPS    CA520212   2.786   7.988   1.329
16583TPS    HA520213   2.818   7.933   1.242
16583TPS    CA420214   2.763   7.920   1.450
16583TPS    HA420215   2.782   7.813   1.456
16583TPS    CA320216   2.716   7.990   1.562
16583TPS    HA320217   2.699   7.936   1.655
16584TPS    HA220218   6.421   1.433   4.548
16584TPS    CA220219   6.448   1.484   4.640
16584TPS    CA120220   6.473   1.414   4.759
16584TPS     Si20221   6.473   1.228   4.759
16584TPS    CA620222   6.514   1.486   4.873
16584TPS    HH620223   6.529   1.437   4.969
16584TPS    CA520224   6.537   1.625   4.866
16584TPS    HA520225   6.569   1.680   4.953
16584TPS    CA420226   6.514   1.693   4.745
16584TPS    HA420227   6.533   1.800   4.739
16584TPS    CA320228   6.467   1.623   4.633
16584TPS    HA320229   6.450   1.677   4.540
16585TPS    HA220230   7.407   1.478   7.877
16585TPS    CA220231   7.434   1.529   7.969
16585TPS    CA120232   7.459   1.459   8.088
16585TPS     Si20233   7.459   1.273   8.088
16585TPS    CA620234   7.500   1.531   8.202
16585TPS    HH620235   7.515   1.482   8.298
16585TPS    CA520236   7.523   1.670   8.195
16585TPS    HA520237   7.555   1.725   8.282
16585TPS    CA420238   7.500   1.738   8.074
16585TPS    HA420239   7.519   1.845   8.068
16585TPS    CA320240   7.453   1.668   7.962
16585TPS    HA320241   7.436   1.722   7.869
16586TPS    HA220242   7.831   8.012   1.777
16586TPS    CA220243   7.858   7.961   1.685
16586TPS    CA120244   7.883   8.031   1.566
16586TPS     Si20245   7.883   8.217   1.566
16586TPS    CA620246   7.924   7.959   1.452
16586TPS    HH620247   7.939   8.008   1.356
16586TPS    CA520248   7.947   7.820   1.459
16586TPS    HA520249   7.979   7.765   1.372
16586TPS    CA420250   7.924   7.752   1.580
16586TPS    HA420251   7.943   7.645   1.586
16586TPS    CA320252   7.877   7.822   1.692
16586TPS    HA320253   7.860   7.768   1.785
16587TPS    HA220254   2.358   8.079   1.424
16587TPS    CA220255   2.352   8.028   1.329
16587TPS    CA120256   2.335   8.098   1.208
16587TPS     Si20257   2.335   8.284   1.208
16587TPS    CA620258   2.335   8.026   1.087
16587TPS    HH620259   2.316   8.075   0.992
16587TPS    CA520260   2.358   7.887   1.086
16587TPS    HA520261   2.359   7.832   0.993
16587TPS    CA420262   2.378   7.819   1.207
16587TPS    HA420263   2.398   7.712   1.206
16587TPS    CA320264   2.372   7.889   1.328
16587TPS    HA320265   2.388   7.835   1.421
16588TPS    HA220266   8.675   1.529   2.608
16588TPS    CA220267   8.702   1.580   2.700
16588TPS    CA120268   8.727   1.510   2.819
16588TPS     Si20269   8.727   1.324   2.819
16588TPS    CA620270   8.768   1.582   2.933
16588TPS    HH620271   8.783   1.533   3.029
16588TPS    CA520272   8.791   1.721   2.926
16588TPS    HA520273   8.823   1.776   3.013
16588TPS    CA420274   8.768   1.789   2.805
16588TPS    HA420275   8.787   1.896   2.799
16588TPS    CA320276   8.721   1.719   2.693
16588TPS    HA320277   8.704   1.773   2.600
16589TPS    HA220278   8.345   8.121   3.026
16589TPS    CA220279   8.372   8.070   2.934
16589TPS    CA120280   8.397   8.140   2.815
16589TPS     Si20281   8.397   8.326   2.815
16589TPS    CA620282   8.438   8.068   2.701
16589TPS    HH620283   8.453   8.117   2.605
16589TPS    CA520284   8.461   7.929   2.708
16589TPS    HA520285   8.493   7.874   2.621
16589TPS    CA420286   8.438   7.861   2.829
16589TPS    HA420287   8.457   7.754   2.835
16589TPS    CA320288   8.391   7.931   2.941
16589TPS    HA320289   8.374   7.877   3.034
16590TPS    HA220290   6.389   8.182   4.320
16590TPS    CA220291   6.383   8.131   4.225
16590TPS    CA120292   6.366   8.201   4.104
16590TPS     Si20293   6.366   8.387   4.104
16590TPS    CA620294   6.366   8.129   3.983
16590TPS    HH620295   6.347   8.178   3.888
16590TPS    CA520296   6.389   7.990   3.982
16590TPS    HA520297   6.390   7.935   3.889
16590TPS    CA420298   6.409   7.922   4.103
16590TPS    HA420299   6.429   7.815   4.102
16590TPS    CA320300   6.403   7.992   4.224
16590TPS    HA320301   6.419   7.938   4.317
16591TPS    HA220302   5.451   8.115   2.436
16591TPS    CA220303   5.478   8.064   2.344
16591TPS    CA120304   5.503   8.134   2.225
16591TPS     Si20305   5.503   8.320   2.225
16591TPS    CA620306   5.544   8.062   2.111
16591TPS    HH620307   5.559   8.111   2.015
16591TPS    CA520308   5.567   7.923   2.118
16591TPS    HA520309   5.599   7.868   2.031
16591TPS    CA420310   5.544   7.855   2.239
16591TPS    HA420311   5.563   7.748   2.245
16591TPS    CA320312   5.497   7.925   2.351
16591TPS    HA320313   5.480   7.871   2.444
16592TPS    HA220314   0.171   7.995   7.187
16592TPS    CA220315   0.198   7.944   7.095
16592TPS    CA120316   0.223   8.014   6.976
16592TPS     Si20317   0.223   8.200   6.976
16592TPS    CA620318   0.264   7.942   6.862
16592TPS    HH620319   0.279   7.991   6.766
16592TPS    CA520320   0.287   7.803   6.869
16592TPS    HA520321   0.319   7.748   6.782
16592TPS    CA420322   0.264   7.735   6.990
16592TPS    HA420323   0.283   7.628   6.996
16592TPS    CA320324   0.217   7.805   7.102
16592TPS    HA320325   0.200   7.751   7.195
16593TPS    HA220326   3.189   8.058   5.045
16593TPS    CA220327   3.216   8.007   4.953
16593TPS    CA120328   3.241   8.077   4.834
16593TPS     Si20329   3.241   8.263   4.834
16593TPS    CA620330   3.282   8.005   4.720
16593TPS    HH620331   3.297   8.054   4.624
16593TPS    CA520332   3.305   7.866   4.727
16593TPS    HA520333   3.337   7.811   4.640
16593TPS    CA420334   3.282   7.798   4.848
16593TPS    HA420335   3.301   7.691   4.854
16593TPS    CA320336   3.235   7.868   4.960
16593TPS    HA320337   3.218   7.814   5.053
16594TPS    HA220338   0.503   8.091   0.227
16594TPS    CA220339   0.497   8.040   0.132
16594TPS    CA120340   0.480   8.110   0.011
16594TPS     Si20341   0.480   8.296   0.011
16594TPS    CA620342   0.480   8.038  -0.110
16594TPS    HH620343   0.461   8.087  -0.205
16594TPS    CA520344   0.503   7.899  -0.111
16594TPS    HA520345   0.504   7.844  -0.204
16594TPS    CA420346   0.523   7.831   0.010
16594TPS    HA420347   0.543   7.724   0.009
16594TPS    CA320348   0.517   7.901   0.131
16594TPS    HA320349   0.533   7.847   0.224
16595TPS    HA220350   0.313   8.050   1.866
16595TPS    CA220351   0.340   7.999   1.774
16595TPS    CA120352   0.365   8.069   1.655
16595TPS     Si20353   0.365   8.255   1.655
16595TPS    CA620354   0.406   7.997   1.541
16595TPS    HH620355   0.421   8.046   1.445
16595TPS    CA520356   0.429   7.858   1.548
16595TPS    HA520357   0.461   7.803   1.461
16595TPS    CA420358   0.406   7.790   1.669
16595TPS    HA420359   0.425   7.683   1.675
16595TPS    CA320360   0.359   7.860   1.781
16595TPS    HA320361   0.342   7.806   1.874
16596TPS    HA220362   7.746   8.047   2.263
16596TPS    CA220363   7.740   7.996   2.168
16596TPS    CA120364   7.723   8.066   2.047
16596TPS     Si20365   7.723   8.252   2.047
16596TPS    CA620366   7.723   7.994   1.926
16596TPS    HH620367   7.704   8.043   1.831
16596TPS    CA520368   7.746   7.855   1.925
16596TPS    HA520369   7.747   7.800   1.832
16596TPS    CA420370   7.766   7.787   2.046
16596TPS    HA420371   7.786   7.680   2.045
16596TPS    CA320372   7.760   7.857   2.167
16596TPS    HA320373   7.776   7.803   2.260
16597TPS    HA220374   0.925   8.049   8.343
16597TPS    CA220375   0.952   7.998   8.251
16597TPS    CA120376   0.977   8.068   8.132
16597TPS     Si20377   0.977   8.254   8.132
16597TPS    CA620378   1.018   7.996   8.018
16597TPS    HH620379   1.033   8.045   7.922
16597TPS    CA520380   1.041   7.857   8.025
16597TPS    HA520381   1.073   7.802   7.938
16597TPS    CA420382   1.018   7.789   8.146
16597TPS    HA420383   1.037   7.682   8.152
16597TPS    CA320384   0.971   7.859   8.258
16597TPS    HA320385   0.954   7.805   8.351
16598TPS    HA220386   5.882   1.442   2.210
16598TPS    CA220387   5.909   1.493   2.302
16598TPS    CA120388   5.934   1.423   2.421
16598TPS     Si20389   5.934   1.237   2.421
16598TPS    CA620390   5.975   1.495   2.535
16598TPS    HH620391   5.990   1.446   2.631
16598TPS    CA520392   5.998   1.634   2.528
16598TPS    HA520393   6.030   1.689   2.615
16598TPS    CA420394   5.975   1.702   2.407
16598TPS    HA420395   5.994   1.809   2.401
16598TPS    CA320396   5.928   1.632   2.295
16598TPS    HA320397   5.911   1.686   2.202
16599TPS    HA220398   2.652   1.350   1.088
16599TPS    CA220399   2.679   1.401   1.180
16599TPS    CA120400   2.704   1.331   1.299
16599TPS     Si20401   2.704   1.145   1.299
16599TPS    CA620402   2.745   1.403   1.413
16599TPS    HH620403   2.760   1.354   1.509
16599TPS    CA520404   2.768   1.542   1.406
16599TPS    HA520405   2.800   1.597   1.493
16599TPS    CA420406   2.745   1.610   1.285
16599TPS    HA420407   2.764   1.717   1.279
16599TPS    CA320408   2.698   1.540   1.173
16599TPS    HA320409   2.681   1.594   1.080
16600TPS    HA220410   0.355   1.491   3.169
16600TPS    CA220411   0.382   1.542   3.261
16600TPS    CA120412   0.407   1.472   3.380
16600TPS     Si20413   0.407   1.286   3.380
16600TPS    CA620414   0.448   1.544   3.494
16600TPS    HH620415   0.463   1.495   3.590
16600TPS    CA520416   0.471   1.683   3.487
16600TPS    HA520417   0.503   1.738   3.574
16600TPS    CA420418   0.448   1.751   3.366
16600TPS    HA420419   0.467   1.858   3.360
16600TPS    CA320420   0.401   1.681   3.254
16600TPS    HA320421   0.384   1.735   3.161
16601TPS    HA220422   6.386   1.341   3.248
16601TPS    CA220423   6.413   1.392   3.340
16601TPS    CA120424   6.438   1.322   3.459
16601TPS     Si20425   6.438   1.136   3.459
16601TPS    CA620426   6.479   1.394   3.573
16601TPS    HH620427   6.494   1.345   3.669
16601TPS    CA520428   6.502   1.533   3.566
16601TPS    HA520429   6.534   1.588   3.653
16601TPS    CA420430   6.479   1.601   3.445
16601TPS    HA420431   6.498   1.708   3.439
16601TPS    CA320432   6.432   1.531   3.333
16601TPS    HA320433   6.415   1.585   3.240
16602TPS    HA220434   5.545   7.970   3.389
16602TPS    CA220435   5.572   7.919   3.297
16602TPS    CA120436   5.597   7.989   3.178
16602TPS     Si20437   5.597   8.175   3.178
16602TPS    CA620438   5.638   7.917   3.064
16602TPS    HH620439   5.653   7.966   2.968
16602TPS    CA520440   5.661   7.778   3.071
16602TPS    HA520441   5.693   7.723   2.984
16602TPS    CA420442   5.638   7.710   3.192
16602TPS    HA420443   5.657   7.603   3.198
16602TPS    CA320444   5.591   7.780   3.304
16602TPS    HA320445   5.574   7.726   3.397
16603TPS    HA220446   0.982   8.098   1.189
16603TPS    CA220447   1.009   8.047   1.097
16603TPS    CA120448   1.034   8.117   0.978
16603TPS     Si20449   1.034   8.303   0.978
16603TPS    CA620450   1.075   8.045   0.864
16603TPS    HH620451   1.090   8.094   0.768
16603TPS    CA520452   1.098   7.906   0.871
16603TPS    HA520453   1.130   7.851   0.784
16603TPS    CA420454   1.075   7.838   0.992
16603TPS    HA420455   1.094   7.731   0.998
16603TPS    CA320456   1.028   7.908   1.104
16603TPS    HA320457   1.011   7.854   1.197
16604TPS    HA220458   9.458   8.021   6.898
16604TPS    CA220459   9.485   7.970   6.806
16604TPS    CA120460   9.510   8.040   6.687
16604TPS     Si20461   9.510   8.226   6.687
16604TPS    CA620462   9.551   7.968   6.573
16604TPS    HH620463   9.566   8.017   6.477
16604TPS    CA520464   9.574   7.829   6.580
16604TPS    HA520465   9.606   7.774   6.493
16604TPS    CA420466   9.551   7.761   6.701
16604TPS    HA420467   9.570   7.654   6.707
16604TPS    CA320468   9.504   7.831   6.813
16604TPS    HA320469   9.487   7.777   6.906
16605TPS    HA220470   6.192   8.101   5.203
16605TPS    CA220471   6.219   8.050   5.111
16605TPS    CA120472   6.244   8.120   4.992
16605TPS     Si20473   6.244   8.306   4.992
16605TPS    CA620474   6.285   8.048   4.878
16605TPS    HH620475   6.300   8.097   4.782
16605TPS    CA520476   6.308   7.909   4.885
16605TPS    HA520477   6.340   7.854   4.798
16605TPS    CA420478   6.285   7.841   5.006
16605TPS    HA420479   6.304   7.734   5.012
16605TPS    CA320480   6.238   7.911   5.118
16605TPS    HA320481   6.221   7.857   5.211
16606TPS    HA220482   6.905   1.396   4.161
16606TPS    CA220483   6.932   1.447   4.253
16606TPS    CA120484   6.957   1.377   4.372
16606TPS     Si20485   6.957   1.191   4.372
16606TPS    CA620486   6.998   1.449   4.486
16606TPS    HH620487   7.013   1.400   4.582
16606TPS    CA520488   7.021   1.588   4.479
16606TPS    HA520489   7.053   1.643   4.566
16606TPS    CA420490   6.998   1.656   4.358
16606TPS    HA420491   7.017   1.763   4.352
16606TPS    CA320492   6.951   1.586   4.246
16606TPS    HA320493   6.934   1.640   4.153
16607TPS    HA220494   8.971   8.027   1.465
16607TPS    CA220495   8.998   7.976   1.373
16607TPS    CA120496   9.023   8.046   1.254
16607TPS     Si20497   9.023   8.232   1.254
16607TPS    CA620498   9.064   7.974   1.140
16607TPS    HH620499   9.079   8.023   1.044
16607TPS    CA520500   9.087   7.835   1.147
16607TPS    HA520501   9.119   7.780   1.060
16607TPS    CA420502   9.064   7.767   1.268
16607TPS    HA420503   9.083   7.660   1.274
16607TPS    CA320504   9.017   7.837   1.380
16607TPS    HA320505   9.000   7.783   1.473
16608TPS    HA220506   8.902   1.484   2.828
16608TPS    CA220507   8.929   1.535   2.920
16608TPS    CA120508   8.954   1.465   3.039
16608TPS     Si20509   8.954   1.279   3.039
16608TPS    CA620510   8.995   1.537   3.153
16608TPS    HH620511   9.010   1.488   3.249
16608TPS    CA520512   9.018   1.676   3.146
16608TPS    HA520513   9.050   1.731   3.233
16608TPS    CA420514   8.995   1.744   3.025
16608TPS    HA420515   9.014   1.851   3.019
16608TPS    CA320516   8.948   1.674   2.913
16608TPS    HA320517   8.931   1.728   2.820
16609TPS    HA220518   2.113   1.632   6.660
16609TPS    CA220519   2.140   1.683   6.752
16609TPS    CA120520   2.165   1.613   6.871
16609TPS     Si20521   2.165   1.427   6.871
16609TPS    CA620522   2.206   1.685   6.985
16609TPS    HH620523   2.221   1.636   7.081
16609TPS    CA520524   2.229   1.824   6.978
16609TPS    HA520525   2.261   1.879   7.065
16609TPS    CA420526   2.206   1.892   6.857
16609TPS    HA420527   2.225   1.999   6.851
16609TPS    CA320528   2.159   1.822   6.745
16609TPS    HA320529   2.142   1.876   6.652
16610TPS    HA220530   0.276   8.178   6.288
16610TPS    CA220531   0.303   8.127   6.196
16610TPS    CA120532   0.328   8.197   6.077
16610TPS     Si20533   0.328   8.383   6.077
16610TPS    CA620534   0.369   8.125   5.963
16610TPS    HH620535   0.384   8.174   5.867
16610TPS    CA520536   0.392   7.986   5.970
16610TPS    HA520537   0.424   7.931   5.883
16610TPS    CA420538   0.369   7.918   6.091
16610TPS    HA420539   0.388   7.811   6.097
16610TPS    CA320540   0.322   7.988   6.203
16610TPS    HA320541   0.305   7.934   6.296
16611TPS    HA220542   5.831   1.603   7.661
16611TPS    CA220543   5.858   1.654   7.753
16611TPS    CA120544   5.883   1.584   7.872
16611TPS     Si20545   5.883   1.398   7.872
16611TPS    CA620546   5.924   1.656   7.986
16611TPS    HH620547   5.939   1.607   8.082
16611TPS    CA520548   5.947   1.795   7.979
16611TPS    HA520549   5.979   1.850   8.066
16611TPS    CA420550   5.924   1.863   7.858
16611TPS    HA420551   5.943   1.970   7.852
16611TPS    CA320552   5.877   1.793   7.746
16611TPS    HA320553   5.860   1.847   7.653
16612TPS    HA220554   6.201   1.446   2.845
16612TPS    CA220555   6.228   1.497   2.937
16612TPS    CA120556   6.253   1.427   3.056
16612TPS     Si20557   6.253   1.241   3.056
16612TPS    CA620558   6.294   1.499   3.170
16612TPS    HH620559   6.309   1.450   3.266
16612TPS    CA520560   6.317   1.638   3.163
16612TPS    HA520561   6.349   1.693   3.250
16612TPS    CA420562   6.294   1.706   3.042
16612TPS    HA420563   6.313   1.813   3.036
16612TPS    CA320564   6.247   1.636   2.930
16612TPS    HA320565   6.230   1.690   2.837
16613TPS    HA220566   9.129   1.620   4.903
16613TPS    CA220567   9.156   1.671   4.995
16613TPS    CA120568   9.181   1.601   5.114
16613TPS     Si20569   9.181   1.415   5.114
16613TPS    CA620570   9.222   1.673   5.228
16613TPS    HH620571   9.237   1.624   5.324
16613TPS    CA520572   9.245   1.812   5.221
16613TPS    HA520573   9.277   1.867   5.308
16613TPS    CA420574   9.222   1.880   5.100
16613TPS    HA420575   9.241   1.987   5.094
16613TPS    CA320576   9.175   1.810   4.988
16613TPS    HA320577   9.158   1.864   4.895
16614TPS    HA220578   6.630   1.393   8.711
16614TPS    CA220579   6.657   1.444   8.803
16614TPS    CA120580   6.682   1.374   8.922
16614TPS     Si20581   6.682   1.188   8.922
16614TPS    CA620582   6.723   1.446   9.036
16614TPS    HH620583   6.738   1.397   9.132
16614TPS    CA520584   6.746   1.585   9.029
16614TPS    HA520585   6.778   1.640   9.116
16614TPS    CA420586   6.723   1.653   8.908
16614TPS    HA420587   6.742   1.760   8.902
16614TPS    CA320588   6.676   1.583   8.796
16614TPS    HA320589   6.659   1.637   8.703
16615TPS    HA220590   3.705   8.140   5.075
16615TPS    CA220591   3.800   8.089   5.086
16615TPS    CA120592   3.922   8.159   5.090
16615TPS     Si20593   3.922   8.345   5.090
16615TPS    CA620594   4.042   8.087   5.111
16615TPS    HH620595   4.138   8.136   5.109
16615TPS    CA520596   4.038   7.948   5.134
16615TPS    HA520597   4.130   7.893   5.151
16615TPS    CA420598   3.916   7.880   5.133
16615TPS    HA420599   3.913   7.773   5.153
16615TPS    CA320600   3.797   7.950   5.106
16615TPS    HA320601   3.703   7.896   5.105
16616TPS    HA220602   3.168   1.497   4.252
16616TPS    CA220603   3.195   1.548   4.344
16616TPS    CA120604   3.220   1.478   4.463
16616TPS     Si20605   3.220   1.292   4.463
16616TPS    CA620606   3.261   1.550   4.577
16616TPS    HH620607   3.276   1.501   4.673
16616TPS    CA520608   3.284   1.689   4.570
16616TPS    HA520609   3.316   1.744   4.657
16616TPS    CA420610   3.261   1.757   4.449
16616TPS    HA420611   3.280   1.864   4.443
16616TPS    CA320612   3.214   1.687   4.337
16616TPS    HA320613   3.197   1.741   4.244
16617TPS    HA220614   9.140   8.160   6.306
16617TPS    CA220615   9.167   8.109   6.214
16617TPS    CA120616   9.192   8.179   6.095
16617TPS     Si20617   9.192   8.365   6.095
16617TPS    CA620618   9.233   8.107   5.981
16617TPS    HH620619   9.248   8.156   5.885
16617TPS    CA520620   9.256   7.968   5.988
16617TPS    HA520621   9.288   7.913   5.901
16617TPS    CA420622   9.233   7.900   6.109
16617TPS    HA420623   9.252   7.793   6.115
16617TPS    CA320624   9.186   7.970   6.221
16617TPS    HA320625   9.169   7.916   6.314
16618TPS    HA220626   2.986   1.058   3.325
16618TPS    CA220627   2.959   1.109   3.233
16618TPS    CA120628   2.934   1.039   3.114
16618TPS     Si20629   2.934   0.853   3.114
16618TPS    CA620630   2.893   1.111   3.000
16618TPS    HH620631   2.878   1.062   2.904
16618TPS    CA520632   2.870   1.250   3.007
16618TPS    HA520633   2.838   1.305   2.920
16618TPS    CA420634   2.893   1.318   3.128
16618TPS    HA420635   2.874   1.425   3.134
16618TPS    CA320636   2.940   1.248   3.240
16618TPS    HA320637   2.957   1.302   3.333
16619TPS    HA220638   0.523   8.010   0.507
16619TPS    CA220639   0.484   7.959   0.420
16619TPS    CA120640   0.427   8.029   0.312
16619TPS     Si20641   0.427   8.215   0.312
16619TPS    CA620642   0.385   7.957   0.198
16619TPS    HH620643   0.335   8.006   0.115
16619TPS    CA520644   0.407   7.818   0.190
16619TPS    HA520645   0.376   7.763   0.101
16619TPS    CA420646   0.467   7.750   0.296
16619TPS    HA420647   0.486   7.643   0.289
16619TPS    CA320648   0.503   7.820   0.412
16619TPS    HA320649   0.550   7.766   0.495
16620TPS    HA220650   0.269   1.483   7.244
16620TPS    CA220651   0.296   1.534   7.336
16620TPS    CA120652   0.321   1.464   7.455
16620TPS     Si20653   0.321   1.278   7.455
16620TPS    CA620654   0.362   1.536   7.569
16620TPS    HH620655   0.377   1.487   7.665
16620TPS    CA520656   0.385   1.675   7.562
16620TPS    HA520657   0.417   1.730   7.649
16620TPS    CA420658   0.362   1.743   7.441
16620TPS    HA420659   0.381   1.850   7.435
16620TPS    CA320660   0.315   1.673   7.329
16620TPS    HA320661   0.298   1.727   7.236
16621TPS    HA220662   7.147   1.252   1.572
16621TPS    CA220663   7.141   1.303   1.667
16621TPS    CA120664   7.124   1.233   1.788
16621TPS     Si20665   7.124   1.047   1.788
16621TPS    CA620666   7.124   1.305   1.909
16621TPS    HH620667   7.105   1.256   2.004
16621TPS    CA520668   7.147   1.444   1.910
16621TPS    HA520669   7.148   1.499   2.003
16621TPS    CA420670   7.167   1.512   1.789
16621TPS    HA420671   7.187   1.619   1.790
16621TPS    CA320672   7.161   1.442   1.668
16621TPS    HA320673   7.177   1.496   1.575
16622TPS    HA220674   6.001   8.151   8.112
16622TPS    CA220675   6.028   8.100   8.020
16622TPS    CA120676   6.053   8.170   7.901
16622TPS     Si20677   6.053   8.356   7.901
16622TPS    CA620678   6.094   8.098   7.787
16622TPS    HH620679   6.109   8.147   7.691
16622TPS    CA520680   6.117   7.959   7.794
16622TPS    HA520681   6.149   7.904   7.707
16622TPS    CA420682   6.094   7.891   7.915
16622TPS    HA420683   6.113   7.784   7.921
16622TPS    CA320684   6.047   7.961   8.027
16622TPS    HA320685   6.030   7.907   8.120
16623TPS    HA220686   2.792   1.440   7.852
16623TPS    CA220687   2.699   1.491   7.829
16623TPS    CA120688   2.583   1.421   7.791
16623TPS     Si20689   2.583   1.235   7.791
16623TPS    CA620690   2.464   1.493   7.769
16623TPS    HH620691   2.373   1.444   7.735
16623TPS    CA520692   2.459   1.632   7.793
16623TPS    HA520693   2.367   1.687   7.777
16623TPS    CA420694   2.574   1.700   7.833
16623TPS    HA420695   2.570   1.807   7.853
16623TPS    CA320696   2.695   1.630   7.849
16623TPS    HA320697   2.784   1.684   7.880
16624TPS    HA220698   1.774   8.026   9.271
16624TPS    CA220699   1.801   7.975   9.179
16624TPS    CA120700   1.826   8.045   9.060
16624TPS     Si20701   1.826   8.231   9.060
16624TPS    CA620702   1.867   7.973   8.946
16624TPS    HH620703   1.882   8.022   8.850
16624TPS    CA520704   1.890   7.834   8.953
16624TPS    HA520705   1.922   7.779   8.866
16624TPS    CA420706   1.867   7.766   9.074
16624TPS    HA420707   1.886   7.659   9.080
16624TPS    CA320708   1.820   7.836   9.186
16624TPS    HA320709   1.803   7.782   9.279
16625TPS    HA220710   2.064   8.142   7.326
16625TPS    CA220711   2.091   8.091   7.234
16625TPS    CA120712   2.116   8.161   7.115
16625TPS     Si20713   2.116   8.347   7.115
16625TPS    CA620714   2.157   8.089   7.001
16625TPS    HH620715   2.172   8.138   6.905
16625TPS    CA520716   2.180   7.950   7.008
16625TPS    HA520717   2.212   7.895   6.921
16625TPS    CA420718   2.157   7.882   7.129
16625TPS    HA420719   2.176   7.775   7.135
16625TPS    CA320720   2.110   7.952   7.241
16625TPS    HA320721   2.093   7.898   7.334
16626TPS    HA220722   1.307   1.623   2.041
16626TPS    CA220723   1.334   1.674   2.133
16626TPS    CA120724   1.359   1.604   2.252
16626TPS     Si20725   1.359   1.418   2.252
16626TPS    CA620726   1.400   1.676   2.366
16626TPS    HH620727   1.415   1.627   2.462
16626TPS    CA520728   1.423   1.815   2.359
16626TPS    HA520729   1.455   1.870   2.446
16626TPS    CA420730   1.400   1.883   2.238
16626TPS    HA420731   1.419   1.990   2.232
16626TPS    CA320732   1.353   1.813   2.126
16626TPS    HA320733   1.336   1.867   2.033
16627TPS    HA220734   2.495   7.950   4.226
16627TPS    CA220735   2.522   7.899   4.134
16627TPS    CA120736   2.547   7.969   4.015
16627TPS     Si20737   2.547   8.155   4.015
16627TPS    CA620738   2.588   7.897   3.901
16627TPS    HH620739   2.603   7.946   3.805
16627TPS    CA520740   2.611   7.758   3.908
16627TPS    HA520741   2.643   7.703   3.821
16627TPS    CA420742   2.588   7.690   4.029
16627TPS    HA420743   2.607   7.583   4.035
16627TPS    CA320744   2.541   7.760   4.141
16627TPS    HA320745   2.524   7.706   4.234
16628TPS    HA220746   8.156   8.071   0.233
16628TPS    CA220747   8.150   8.020   0.138
16628TPS    CA120748   8.133   8.090   0.017
16628TPS     Si20749   8.133   8.276   0.017
16628TPS    CA620750   8.133   8.018  -0.104
16628TPS    HH620751   8.114   8.067  -0.199
16628TPS    CA520752   8.156   7.879  -0.105
16628TPS    HA520753   8.157   7.824  -0.198
16628TPS    CA420754   8.176   7.811   0.016
16628TPS    HA420755   8.196   7.704   0.015
16628TPS    CA320756   8.170   7.881   0.137
16628TPS    HA320757   8.186   7.827   0.230
16629TPS    HA220758   7.595   1.502   6.203
16629TPS    CA220759   7.622   1.553   6.295
16629TPS    CA120760   7.647   1.483   6.414
16629TPS     Si20761   7.647   1.297   6.414
16629TPS    CA620762   7.688   1.555   6.528
16629TPS    HH620763   7.703   1.506   6.624
16629TPS    CA520764   7.711   1.694   6.521
16629TPS    HA520765   7.743   1.749   6.608
16629TPS    CA420766   7.688   1.762   6.400
16629TPS    HA420767   7.707   1.869   6.394
16629TPS    CA320768   7.641   1.692   6.288
16629TPS    HA320769   7.624   1.746   6.195
16630TPS    HA220770   2.212   1.532   5.455
16630TPS    CA220771   2.206   1.583   5.550
16630TPS    CA120772   2.189   1.513   5.671
16630TPS     Si20773   2.189   1.327   5.671
16630TPS    CA620774   2.189   1.585   5.792
16630TPS    HH620775   2.170   1.536   5.887
16630TPS    CA520776   2.212   1.724   5.793
16630TPS    HA520777   2.213   1.779   5.886
16630TPS    CA420778   2.232   1.792   5.672
16630TPS    HA420779   2.252   1.899   5.673
16630TPS    CA320780   2.226   1.722   5.551
16630TPS    HA320781   2.242   1.776   5.458
16631TPS    HA220782   1.915   1.644   6.813
16631TPS    CA220783   1.909   1.695   6.908
16631TPS    CA120784   1.892   1.625   7.029
16631TPS     Si20785   1.892   1.439   7.029
16631TPS    CA620786   1.892   1.697   7.150
16631TPS    HH620787   1.873   1.648   7.245
16631TPS    CA520788   1.915   1.836   7.151
16631TPS    HA520789   1.916   1.891   7.244
16631TPS    CA420790   1.935   1.904   7.030
16631TPS    HA420791   1.955   2.011   7.031
16631TPS    CA320792   1.929   1.834   6.909
16631TPS    HA320793   1.945   1.888   6.816
16632TPS    HA220794   6.407   1.349   0.241
16632TPS    CA220795   6.321   1.400   0.283
16632TPS    CA120796   6.208   1.330   0.329
16632TPS     Si20797   6.208   1.144   0.329
16632TPS    CA620798   6.103   1.402   0.389
16632TPS    HH620799   6.011   1.353   0.421
16632TPS    CA520800   6.114   1.541   0.410
16632TPS    HA520801   6.033   1.596   0.457
16632TPS    CA420802   6.229   1.609   0.367
16632TPS    HA420803   6.238   1.716   0.385
16632TPS    CA320804   6.331   1.539   0.301
16632TPS    HA320805   6.419   1.593   0.268
16633TPS    HA220806   3.118   8.157   8.853
16633TPS    CA220807   3.112   8.106   8.758
16633TPS    CA120808   3.095   8.176   8.637
16633TPS     Si20809   3.095   8.362   8.637
16633TPS    CA620810   3.095   8.104   8.516
16633TPS    HH620811   3.076   8.153   8.421
16633TPS    CA520812   3.118   7.965   8.515
16633TPS    HA520813   3.119   7.910   8.422
16633TPS    CA420814   3.138   7.897   8.636
16633TPS    HA420815   3.158   7.790   8.635
16633TPS    CA320816   3.132   7.967   8.757
16633TPS    HA320817   3.148   7.913   8.850
16634TPS    HA220818   6.503   1.375   8.863
16634TPS    CA220819   6.509   1.426   8.768
16634TPS    CA120820   6.526   1.356   8.647
16634TPS     Si20821   6.526   1.170   8.647
16634TPS    CA620822   6.526   1.428   8.526
16634TPS    HH620823   6.545   1.379   8.431
16634TPS    CA520824   6.503   1.567   8.525
16634TPS    HA520825   6.502   1.622   8.432
16634TPS    CA420826   6.483   1.635   8.646
16634TPS    HA420827   6.463   1.742   8.645
16634TPS    CA320828   6.489   1.565   8.767
16634TPS    HA320829   6.473   1.619   8.860
16635TPS    HA220830   7.481   8.017   3.620
16635TPS    CA220831   7.508   7.966   3.528
16635TPS    CA120832   7.533   8.036   3.409
16635TPS     Si20833   7.533   8.222   3.409
16635TPS    CA620834   7.574   7.964   3.295
16635TPS    HH620835   7.589   8.013   3.199
16635TPS    CA520836   7.597   7.825   3.302
16635TPS    HA520837   7.629   7.770   3.215
16635TPS    CA420838   7.574   7.757   3.423
16635TPS    HA420839   7.593   7.650   3.429
16635TPS    CA320840   7.527   7.827   3.535
16635TPS    HA320841   7.510   7.773   3.628
16636TPS    HA220842   6.125   8.200   9.790
16636TPS    CA220843   6.119   8.149   9.695
16636TPS    CA120844   6.102   8.219   9.574
16636TPS     Si20845   6.102   8.405   9.574
16636TPS    CA620846   6.102   8.147   9.453
16636TPS    HH620847   6.083   8.196   9.358
16636TPS    CA520848   6.125   8.008   9.452
16636TPS    HA520849   6.126   7.953   9.359
16636TPS    CA420850   6.145   7.940   9.573
16636TPS    HA420851   6.165   7.833   9.572
16636TPS    CA320852   6.139   8.010   9.694
16636TPS    HA320853   6.155   7.956   9.787
16637TPS    HA220854   9.270   1.331   5.780
16637TPS    CA220855   9.297   1.382   5.872
16637TPS    CA120856   9.322   1.312   5.991
16637TPS     Si20857   9.322   1.126   5.991
16637TPS    CA620858   9.363   1.384   6.105
16637TPS    HH620859   9.378   1.335   6.201
16637TPS    CA520860   9.386   1.523   6.098
16637TPS    HA520861   9.418   1.578   6.185
16637TPS    CA420862   9.363   1.591   5.977
16637TPS    HA420863   9.382   1.698   5.971
16637TPS    CA320864   9.316   1.521   5.865
16637TPS    HA320865   9.299   1.575   5.772
16638TPS    HA220866   1.100   1.460   1.650
16638TPS    CA220867   1.127   1.511   1.742
16638TPS    CA120868   1.152   1.441   1.861
16638TPS     Si20869   1.152   1.255   1.861
16638TPS    CA620870   1.193   1.513   1.975
16638TPS    HH620871   1.208   1.464   2.071
16638TPS    CA520872   1.216   1.652   1.968
16638TPS    HA520873   1.248   1.707   2.055
16638TPS    CA420874   1.193   1.720   1.847
16638TPS    HA420875   1.212   1.827   1.841
16638TPS    CA320876   1.146   1.650   1.735
16638TPS    HA320877   1.129   1.704   1.642
16639TPS    HA220878   0.349   8.076   3.650
16639TPS    CA220879   0.283   8.025   3.582
16639TPS    CA120880   0.192   8.095   3.500
16639TPS     Si20881   0.192   8.281   3.500
16639TPS    CA620882   0.114   8.023   3.407
16639TPS    HH620883   0.039   8.072   3.346
16639TPS    CA520884   0.131   7.884   3.392
16639TPS    HA520885   0.072   7.829   3.320
16639TPS    CA420886   0.224   7.816   3.471
16639TPS    HA420887   0.239   7.709   3.458
16639TPS    CA320888   0.298   7.886   3.568
16639TPS    HA320889   0.370   7.832   3.630
16640TPS    HA220890   9.095   8.099   4.567
16640TPS    CA220891   9.122   8.048   4.475
16640TPS    CA120892   9.147   8.118   4.356
16640TPS     Si20893   9.147   8.304   4.356
16640TPS    CA620894   9.188   8.046   4.242
16640TPS    HH620895   9.203   8.095   4.146
16640TPS    CA520896   9.211   7.907   4.249
16640TPS    HA520897   9.243   7.852   4.162
16640TPS    CA420898   9.188   7.839   4.370
16640TPS    HA420899   9.207   7.732   4.376
16640TPS    CA320900   9.141   7.909   4.482
16640TPS    HA320901   9.124   7.855   4.575
16641TPS    HA220902   4.772   8.087   0.924
16641TPS    CA220903   4.799   8.036   0.832
16641TPS    CA120904   4.824   8.106   0.713
16641TPS     Si20905   4.824   8.292   0.713
16641TPS    CA620906   4.865   8.034   0.599
16641TPS    HH620907   4.880   8.083   0.503
16641TPS    CA520908   4.888   7.895   0.606
16641TPS    HA520909   4.920   7.840   0.519
16641TPS    CA420910   4.865   7.827   0.727
16641TPS    HA420911   4.884   7.720   0.733
16641TPS    CA320912   4.818   7.897   0.839
16641TPS    HA320913   4.801   7.843   0.932
16642TPS    HA220914   5.210   8.060   0.219
16642TPS    CA220915   5.237   8.009   0.127
16642TPS    CA120916   5.262   8.079   0.008
16642TPS     Si20917   5.262   8.265   0.008
16642TPS    CA620918   5.303   8.007  -0.106
16642TPS    HH620919   5.318   8.056  -0.202
16642TPS    CA520920   5.326   7.868  -0.099
16642TPS    HA520921   5.358   7.813  -0.186
16642TPS    CA420922   5.303   7.800   0.022
16642TPS    HA420923   5.322   7.693   0.028
16642TPS    CA320924   5.256   7.870   0.134
16642TPS    HA320925   5.239   7.816   0.227
16643TPS    HA220926   4.099   8.040   4.691
16643TPS    CA220927   4.126   7.989   4.599
16643TPS    CA120928   4.151   8.059   4.480
16643TPS     Si20929   4.151   8.245   4.480
16643TPS    CA620930   4.192   7.987   4.366
16643TPS    HH620931   4.207   8.036   4.270
16643TPS    CA520932   4.215   7.848   4.373
16643TPS    HA520933   4.247   7.793   4.286
16643TPS    CA420934   4.192   7.780   4.494
16643TPS    HA420935   4.211   7.673   4.500
16643TPS    CA320936   4.145   7.850   4.606
16643TPS    HA320937   4.128   7.796   4.699
16644TPS    HA220938   6.803   1.440   6.846
16644TPS    CA220939   6.830   1.491   6.938
16644TPS    CA120940   6.855   1.421   7.057
16644TPS     Si20941   6.855   1.235   7.057
16644TPS    CA620942   6.896   1.493   7.171
16644TPS    HH620943   6.911   1.444   7.267
16644TPS    CA520944   6.919   1.632   7.164
16644TPS    HA520945   6.951   1.687   7.251
16644TPS    CA420946   6.896   1.700   7.043
16644TPS    HA420947   6.915   1.807   7.037
16644TPS    CA320948   6.849   1.630   6.931
16644TPS    HA320949   6.832   1.684   6.838
16645TPS    HA220950   5.447   1.594   6.413
16645TPS    CA220951   5.474   1.645   6.505
16645TPS    CA120952   5.499   1.575   6.624
16645TPS     Si20953   5.499   1.389   6.624
16645TPS    CA620954   5.540   1.647   6.738
16645TPS    HH620955   5.555   1.598   6.834
16645TPS    CA520956   5.563   1.786   6.731
16645TPS    HA520957   5.595   1.841   6.818
16645TPS    CA420958   5.540   1.854   6.610
16645TPS    HA420959   5.559   1.961   6.604
16645TPS    CA320960   5.493   1.784   6.498
16645TPS    HA320961   5.476   1.838   6.405
16646TPS    HA220962   7.990   1.308   2.641
16646TPS    CA220963   8.017   1.359   2.733
16646TPS    CA120964   8.042   1.289   2.852
16646TPS     Si20965   8.042   1.103   2.852
16646TPS    CA620966   8.083   1.361   2.966
16646TPS    HH620967   8.098   1.312   3.062
16646TPS    CA520968   8.106   1.500   2.959
16646TPS    HA520969   8.138   1.555   3.046
16646TPS    CA420970   8.083   1.568   2.838
16646TPS    HA420971   8.102   1.675   2.832
16646TPS    CA320972   8.036   1.498   2.726
16646TPS    HA320973   8.019   1.552   2.633
16647TPS    HA220974   3.891   1.469   6.121
16647TPS    CA220975   3.918   1.520   6.213
16647TPS    CA120976   3.943   1.450   6.332
16647TPS     Si20977   3.943   1.264   6.332
16647TPS    CA620978   3.984   1.522   6.446
16647TPS    HH620979   3.999   1.473   6.542
16647TPS    CA520980   4.007   1.661   6.439
16647TPS    HA520981   4.039   1.716   6.526
16647TPS    CA420982   3.984   1.729   6.318
16647TPS    HA420983   4.003   1.836   6.312
16647TPS    CA320984   3.937   1.659   6.206
16647TPS    HA320985   3.920   1.713   6.113
16648TPS    HA220986   6.836   8.166   2.249
16648TPS    CA220987   6.830   8.115   2.154
16648TPS    CA120988   6.813   8.185   2.033
16648TPS     Si20989   6.813   8.371   2.033
16648TPS    CA620990   6.813   8.113   1.912
16648TPS    HH620991   6.794   8.162   1.817
16648TPS    CA520992   6.836   7.974   1.911
16648TPS    HA520993   6.837   7.919   1.818
16648TPS    CA420994   6.856   7.906   2.032
16648TPS    HA420995   6.876   7.799   2.031
16648TPS    CA320996   6.850   7.976   2.153
16648TPS    HA320997   6.866   7.922   2.246
16649TPS    HA220998   2.815   8.093   7.028
16649TPS    CA220999   2.809   8.042   6.933
16649TPS    CA121000   2.792   8.112   6.812
16649TPS     Si21001   2.792   8.298   6.812
16649TPS    CA621002   2.792   8.040   6.691
16649TPS    HH621003   2.773   8.089   6.596
16649TPS    CA521004   2.815   7.901   6.690
16649TPS    HA521005   2.816   7.846   6.597
16649TPS    CA421006   2.835   7.833   6.811
16649TPS    HA421007   2.855   7.726   6.810
16649TPS    CA321008   2.829   7.903   6.932
16649TPS    HA321009   2.845   7.849   7.025
16650TPS    HA221010   9.177   8.092   0.749
16650TPS    CA221011   9.204   8.041   0.657
16650TPS    CA121012   9.229   8.111   0.538
16650TPS     Si21013   9.229   8.297   0.538
16650TPS    CA621014   9.270   8.039   0.424
16650TPS    HH621015   9.285   8.088   0.328
16650TPS    CA521016   9.293   7.900   0.431
16650TPS    HA521017   9.325   7.845   0.344
16650TPS    CA421018   9.270   7.832   0.552
16650TPS    HA421019   9.289   7.725   0.558
16650TPS    CA321020   9.223   7.902   0.664
16650TPS    HA321021   9.206   7.848   0.757
16651TPS    HA221022   1.322   8.150   7.494
16651TPS    CA221023   1.349   8.099   7.402
16651TPS    CA121024   1.374   8.169   7.283
16651TPS     Si21025   1.374   8.355   7.283
16651TPS    CA621026   1.415   8.097   7.169
16651TPS    HH621027   1.430   8.146   7.073
16651TPS    CA521028   1.438   7.958   7.176
16651TPS    HA521029   1.470   7.903   7.089
16651TPS    CA421030   1.415   7.890   7.297
16651TPS    HA421031   1.434   7.783   7.303
16651TPS    CA321032   1.368   7.960   7.409
16651TPS    HA321033   1.351   7.906   7.502
16652TPS    HA221034   5.286   1.540   0.734
16652TPS    CA221035   5.313   1.591   0.826
16652TPS    CA121036   5.338   1.521   0.945
16652TPS     Si21037   5.338   1.335   0.945
16652TPS    CA621038   5.379   1.593   1.059
16652TPS    HH621039   5.394   1.544   1.155
16652TPS    CA521040   5.402   1.732   1.052
16652TPS    HA521041   5.434   1.787   1.139
16652TPS    CA421042   5.379   1.800   0.931
16652TPS    HA421043   5.398   1.907   0.925
16652TPS    CA321044   5.332   1.730   0.819
16652TPS    HA321045   5.315   1.784   0.726
16653TPS    HA221046   0.480   8.142   9.253
16653TPS    CA221047   0.507   8.091   9.161
16653TPS    CA121048   0.532   8.161   9.042
16653TPS     Si21049   0.532   8.347   9.042
16653TPS    CA621050   0.573   8.089   8.928
16653TPS    HH621051   0.588   8.138   8.832
16653TPS    CA521052   0.596   7.950   8.935
16653TPS    HA521053   0.628   7.895   8.848
16653TPS    CA421054   0.573   7.882   9.056
16653TPS    HA421055   0.592   7.775   9.062
16653TPS    CA321056   0.526   7.952   9.168
16653TPS    HA321057   0.509   7.898   9.261
16654TPS    HA221058   5.075   1.521   5.462
16654TPS    CA221059   5.102   1.572   5.554
16654TPS    CA121060   5.127   1.502   5.673
16654TPS     Si21061   5.127   1.316   5.673
16654TPS    CA621062   5.168   1.574   5.787
16654TPS    HH621063   5.183   1.525   5.883
16654TPS    CA521064   5.191   1.713   5.780
16654TPS    HA521065   5.223   1.768   5.867
16654TPS    CA421066   5.168   1.781   5.659
16654TPS    HA421067   5.187   1.888   5.653
16654TPS    CA321068   5.121   1.711   5.547
16654TPS    HA321069   5.104   1.765   5.454
16655TPS    HA221070   1.598   7.976   5.559
16655TPS    CA221071   1.625   7.925   5.467
16655TPS    CA121072   1.650   7.995   5.348
16655TPS     Si21073   1.650   8.181   5.348
16655TPS    CA621074   1.691   7.923   5.234
16655TPS    HH621075   1.706   7.972   5.138
16655TPS    CA521076   1.714   7.784   5.241
16655TPS    HA521077   1.746   7.729   5.154
16655TPS    CA421078   1.691   7.716   5.362
16655TPS    HA421079   1.710   7.609   5.368
16655TPS    CA321080   1.644   7.786   5.474
16655TPS    HA321081   1.627   7.732   5.567
16656TPS    HA221082   8.867   8.129   2.987
16656TPS    CA221083   8.894   8.078   2.895
16656TPS    CA121084   8.919   8.148   2.776
16656TPS     Si21085   8.919   8.334   2.776
16656TPS    CA621086   8.960   8.076   2.662
16656TPS    HH621087   8.975   8.125   2.566
16656TPS    CA521088   8.983   7.937   2.669
16656TPS    HA521089   9.015   7.882   2.582
16656TPS    CA421090   8.960   7.869   2.790
16656TPS    HA421091   8.979   7.762   2.796
16656TPS    CA321092   8.913   7.939   2.902
16656TPS    HA321093   8.896   7.885   2.995
16657TPS    HA221094   5.424   1.573   6.984
16657TPS    CA221095   5.451   1.624   7.076
16657TPS    CA121096   5.476   1.554   7.195
16657TPS     Si21097   5.476   1.368   7.195
16657TPS    CA621098   5.517   1.626   7.309
16657TPS    HH621099   5.532   1.577   7.405
16657TPS    CA521100   5.540   1.765   7.302
16657TPS    HA521101   5.572   1.820   7.389
16657TPS    CA421102   5.517   1.833   7.181
16657TPS    HA421103   5.536   1.940   7.175
16657TPS    CA321104   5.470   1.763   7.069
16657TPS    HA321105   5.453   1.817   6.976
16658TPS    HA221106   4.015   8.220   4.869
16658TPS    CA221107   4.094   8.169   4.816
16658TPS    CA121108   4.190   8.239   4.741
16658TPS     Si21109   4.190   8.425   4.741
16658TPS    CA621110   4.295   8.167   4.680
16658TPS    HH621111   4.368   8.216   4.617
16658TPS    CA521112   4.307   8.028   4.700
16658TPS    HA521113   4.388   7.973   4.654
16658TPS    CA421114   4.213   7.960   4.778
16658TPS    HA421115   4.223   7.853   4.795
16658TPS    CA321116   4.104   8.030   4.834
16658TPS    HA321117   4.032   7.976   4.894
16659TPS    HA221118   5.675   8.091   4.068
16659TPS    CA221119   5.609   8.040   4.000
16659TPS    CA121120   5.518   8.110   3.918
16659TPS     Si21121   5.518   8.296   3.918
16659TPS    CA621122   5.440   8.038   3.825
16659TPS    HH621123   5.365   8.087   3.764
16659TPS    CA521124   5.457   7.899   3.810
16659TPS    HA521125   5.398   7.844   3.738
16659TPS    CA421126   5.550   7.831   3.889
16659TPS    HA421127   5.565   7.724   3.876
16659TPS    CA321128   5.624   7.901   3.986
16659TPS    HA321129   5.696   7.847   4.048
16660TPS    HA221130   2.261   8.218   1.971
16660TPS    CA221131   2.288   8.167   1.879
16660TPS    CA121132   2.313   8.237   1.760
16660TPS     Si21133   2.313   8.423   1.760
16660TPS    CA621134   2.354   8.165   1.646
16660TPS    HH621135   2.369   8.214   1.550
16660TPS    CA521136   2.377   8.026   1.653
16660TPS    HA521137   2.409   7.971   1.566
16660TPS    CA421138   2.354   7.958   1.774
16660TPS    HA421139   2.373   7.851   1.780
16660TPS    CA321140   2.307   8.028   1.886
16660TPS    HA321141   2.290   7.974   1.979
16661TPS    HA221142   1.555   8.014   2.997
16661TPS    CA221143   1.582   7.963   2.905
16661TPS    CA121144   1.607   8.033   2.786
16661TPS     Si21145   1.607   8.219   2.786
16661TPS    CA621146   1.648   7.961   2.672
16661TPS    HH621147   1.663   8.010   2.576
16661TPS    CA521148   1.671   7.822   2.679
16661TPS    HA521149   1.703   7.767   2.592
16661TPS    CA421150   1.648   7.754   2.800
16661TPS    HA421151   1.667   7.647   2.806
16661TPS    CA321152   1.601   7.824   2.912
16661TPS    HA321153   1.584   7.770   3.005
16662TPS    HA221154   0.525   1.366   7.784
16662TPS    CA221155   0.432   1.417   7.761
16662TPS    CA121156   0.316   1.347   7.723
16662TPS     Si21157   0.316   1.161   7.723
16662TPS    CA621158   0.197   1.419   7.701
16662TPS    HH621159   0.106   1.370   7.667
16662TPS    CA521160   0.192   1.558   7.725
16662TPS    HA521161   0.100   1.613   7.709
16662TPS    CA421162   0.307   1.626   7.765
16662TPS    HA421163   0.303   1.733   7.785
16662TPS    CA321164   0.428   1.556   7.781
16662TPS    HA321165   0.517   1.610   7.812
16663TPS    HA221166   2.641   8.123   8.693
16663TPS    CA221167   2.635   8.072   8.598
16663TPS    CA121168   2.618   8.142   8.477
16663TPS     Si21169   2.618   8.328   8.477
16663TPS    CA621170   2.618   8.070   8.356
16663TPS    HH621171   2.599   8.119   8.261
16663TPS    CA521172   2.641   7.931   8.355
16663TPS    HA521173   2.642   7.876   8.262
16663TPS    CA421174   2.661   7.863   8.476
16663TPS    HA421175   2.681   7.756   8.475
16663TPS    CA321176   2.655   7.933   8.597
16663TPS    HA321177   2.671   7.879   8.690
16664TPS    HA221178   2.207   8.099   3.944
16664TPS    CA221179   2.234   8.048   3.852
16664TPS    CA121180   2.259   8.118   3.733
16664TPS     Si21181   2.259   8.304   3.733
16664TPS    CA621182   2.300   8.046   3.619
16664TPS    HH621183   2.315   8.095   3.523
16664TPS    CA521184   2.323   7.907   3.626
16664TPS    HA521185   2.355   7.852   3.539
16664TPS    CA421186   2.300   7.839   3.747
16664TPS    HA421187   2.319   7.732   3.753
16664TPS    CA321188   2.253   7.909   3.859
16664TPS    HA321189   2.236   7.855   3.952
16665TPS    HA221190   4.950   1.508   1.293
16665TPS    CA221191   4.977   1.559   1.385
16665TPS    CA121192   5.002   1.489   1.504
16665TPS     Si21193   5.002   1.303   1.504
16665TPS    CA621194   5.043   1.561   1.618
16665TPS    HH621195   5.058   1.512   1.714
16665TPS    CA521196   5.066   1.700   1.611
16665TPS    HA521197   5.098   1.755   1.698
16665TPS    CA421198   5.043   1.768   1.490
16665TPS    HA421199   5.062   1.875   1.484
16665TPS    CA321200   4.996   1.698   1.378
16665TPS    HA321201   4.979   1.752   1.285
16666TPS    HA221202   3.864   1.639   4.391
16666TPS    CA221203   3.891   1.690   4.483
16666TPS    CA121204   3.916   1.620   4.602
16666TPS     Si21205   3.916   1.434   4.602
16666TPS    CA621206   3.957   1.692   4.716
16666TPS    HH621207   3.972   1.643   4.812
16666TPS    CA521208   3.980   1.831   4.709
16666TPS    HA521209   4.012   1.886   4.796
16666TPS    CA421210   3.957   1.899   4.588
16666TPS    HA421211   3.976   2.006   4.582
16666TPS    CA321212   3.910   1.829   4.476
16666TPS    HA321213   3.893   1.883   4.383
16667TPS    HA221214   4.756   8.112   8.941
16667TPS    CA221215   4.783   8.061   8.849
16667TPS    CA121216   4.808   8.131   8.730
16667TPS     Si21217   4.808   8.317   8.730
16667TPS    CA621218   4.849   8.059   8.616
16667TPS    HH621219   4.864   8.108   8.520
16667TPS    CA521220   4.872   7.920   8.623
16667TPS    HA521221   4.904   7.865   8.536
16667TPS    CA421222   4.849   7.852   8.744
16667TPS    HA421223   4.868   7.745   8.750
16667TPS    CA321224   4.802   7.922   8.856
16667TPS    HA321225   4.785   7.868   8.949
16668TPS    HA221226   8.806   8.248   8.000
16668TPS    CA221227   8.833   8.197   7.908
16668TPS    CA121228   8.858   8.267   7.789
16668TPS     Si21229   8.858   8.453   7.789
16668TPS    CA621230   8.899   8.195   7.675
16668TPS    HH621231   8.914   8.244   7.579
16668TPS    CA521232   8.922   8.056   7.682
16668TPS    HA521233   8.954   8.001   7.595
16668TPS    CA421234   8.899   7.988   7.803
16668TPS    HA421235   8.918   7.881   7.809
16668TPS    CA321236   8.852   8.058   7.915
16668TPS    HA321237   8.835   8.004   8.008
16669TPS    HA221238   8.977   1.480   1.645
16669TPS    CA221239   9.004   1.531   1.737
16669TPS    CA121240   9.029   1.461   1.856
16669TPS     Si21241   9.029   1.275   1.856
16669TPS    CA621242   9.070   1.533   1.970
16669TPS    HH621243   9.085   1.484   2.066
16669TPS    CA521244   9.093   1.672   1.963
16669TPS    HA521245   9.125   1.727   2.050
16669TPS    CA421246   9.070   1.740   1.842
16669TPS    HA421247   9.089   1.847   1.836
16669TPS    CA321248   9.023   1.670   1.730
16669TPS    HA321249   9.006   1.724   1.637
16670TPS    HA221250   0.334   8.127   8.112
16670TPS    CA221251   0.361   8.076   8.020
16670TPS    CA121252   0.386   8.146   7.901
16670TPS     Si21253   0.386   8.332   7.901
16670TPS    CA621254   0.427   8.074   7.787
16670TPS    HH621255   0.442   8.123   7.691
16670TPS    CA521256   0.450   7.935   7.794
16670TPS    HA521257   0.482   7.880   7.707
16670TPS    CA421258   0.427   7.867   7.915
16670TPS    HA421259   0.446   7.760   7.921
16670TPS    CA321260   0.380   7.937   8.027
16670TPS    HA321261   0.363   7.883   8.120
16671TPS    HA221262   3.026   1.365   2.781
16671TPS    CA221263   3.053   1.416   2.873
16671TPS    CA121264   3.078   1.346   2.992
16671TPS     Si21265   3.078   1.160   2.992
16671TPS    CA621266   3.119   1.418   3.106
16671TPS    HH621267   3.134   1.369   3.202
16671TPS    CA521268   3.142   1.557   3.099
16671TPS    HA521269   3.174   1.612   3.186
16671TPS    CA421270   3.119   1.625   2.978
16671TPS    HA421271   3.138   1.732   2.972
16671TPS    CA321272   3.072   1.555   2.866
16671TPS    HA321273   3.055   1.609   2.773
16672TPS    HA221274   3.777   8.044   4.038
16672TPS    CA221275   3.804   7.993   3.946
16672TPS    CA121276   3.829   8.063   3.827
16672TPS     Si21277   3.829   8.249   3.827
16672TPS    CA621278   3.870   7.991   3.713
16672TPS    HH621279   3.885   8.040   3.617
16672TPS    CA521280   3.893   7.852   3.720
16672TPS    HA521281   3.925   7.797   3.633
16672TPS    CA421282   3.870   7.784   3.841
16672TPS    HA421283   3.889   7.677   3.847
16672TPS    CA321284   3.823   7.854   3.953
16672TPS    HA321285   3.806   7.800   4.046
16673TPS    HA221286   8.612   8.001   5.428
16673TPS    CA221287   8.639   7.950   5.336
16673TPS    CA121288   8.664   8.020   5.217
16673TPS     Si21289   8.664   8.206   5.217
16673TPS    CA621290   8.705   7.948   5.103
16673TPS    HH621291   8.720   7.997   5.007
16673TPS    CA521292   8.728   7.809   5.110
16673TPS    HA521293   8.760   7.754   5.023
16673TPS    CA421294   8.705   7.741   5.231
16673TPS    HA421295   8.724   7.634   5.237
16673TPS    CA321296   8.658   7.811   5.343
16673TPS    HA321297   8.641   7.757   5.436
16674TPS    HA221298   2.757   1.460   6.239
16674TPS    CA221299   2.784   1.511   6.331
16674TPS    CA121300   2.809   1.441   6.450
16674TPS     Si21301   2.809   1.255   6.450
16674TPS    CA621302   2.850   1.513   6.564
16674TPS    HH621303   2.865   1.464   6.660
16674TPS    CA521304   2.873   1.652   6.557
16674TPS    HA521305   2.905   1.707   6.644
16674TPS    CA421306   2.850   1.720   6.436
16674TPS    HA421307   2.869   1.827   6.430
16674TPS    CA321308   2.803   1.650   6.324
16674TPS    HA321309   2.786   1.704   6.231
16675TPS    HA221310   7.237   1.578   3.373
16675TPS    CA221311   7.264   1.629   3.465
16675TPS    CA121312   7.289   1.559   3.584
16675TPS     Si21313   7.289   1.373   3.584
16675TPS    CA621314   7.330   1.631   3.698
16675TPS    HH621315   7.345   1.582   3.794
16675TPS    CA521316   7.353   1.770   3.691
16675TPS    HA521317   7.385   1.825   3.778
16675TPS    CA421318   7.330   1.838   3.570
16675TPS    HA421319   7.349   1.945   3.564
16675TPS    CA321320   7.283   1.768   3.458
16675TPS    HA321321   7.266   1.822   3.365
16676TPS    HA221322   7.583   1.619   3.554
16676TPS    CA221323   7.610   1.670   3.646
16676TPS    CA121324   7.635   1.600   3.765
16676TPS     Si21325   7.635   1.414   3.765
16676TPS    CA621326   7.676   1.672   3.879
16676TPS    HH621327   7.691   1.623   3.975
16676TPS    CA521328   7.699   1.811   3.872
16676TPS    HA521329   7.731   1.866   3.959
16676TPS    CA421330   7.676   1.879   3.751
16676TPS    HA421331   7.695   1.986   3.745
16676TPS    CA321332   7.629   1.809   3.639
16676TPS    HA321333   7.612   1.863   3.546
16677TPS    HA221334   6.902   1.367   5.268
16677TPS    CA221335   6.929   1.418   5.360
16677TPS    CA121336   6.954   1.348   5.479
16677TPS     Si21337   6.954   1.162   5.479
16677TPS    CA621338   6.995   1.420   5.593
16677TPS    HH621339   7.010   1.371   5.689
16677TPS    CA521340   7.018   1.559   5.586
16677TPS    HA521341   7.050   1.614   5.673
16677TPS    CA421342   6.995   1.627   5.465
16677TPS    HA421343   7.014   1.734   5.459
16677TPS    CA321344   6.948   1.557   5.353
16677TPS    HA321345   6.931   1.611   5.260
16678TPS    HA221346   4.626   1.294   5.070
16678TPS    CA221347   4.653   1.345   5.162
16678TPS    CA121348   4.678   1.275   5.281
16678TPS     Si21349   4.678   1.089   5.281
16678TPS    CA621350   4.719   1.347   5.395
16678TPS    HH621351   4.734   1.298   5.491
16678TPS    CA521352   4.742   1.486   5.388
16678TPS    HA521353   4.774   1.541   5.475
16678TPS    CA421354   4.719   1.554   5.267
16678TPS    HA421355   4.738   1.661   5.261
16678TPS    CA321356   4.672   1.484   5.155
16678TPS    HA321357   4.655   1.538   5.062
16679TPS    HA221358   0.554   1.428   0.851
16679TPS    CA221359   0.593   1.479   0.764
16679TPS    CA121360   0.650   1.409   0.656
16679TPS     Si21361   0.650   1.223   0.656
16679TPS    CA621362   0.692   1.481   0.542
16679TPS    HH621363   0.742   1.432   0.459
16679TPS    CA521364   0.670   1.620   0.534
16679TPS    HA521365   0.701   1.675   0.445
16679TPS    CA421366   0.610   1.688   0.640
16679TPS    HA421367   0.591   1.795   0.633
16679TPS    CA321368   0.574   1.618   0.756
16679TPS    HA321369   0.527   1.672   0.839
16680TPS    HA221370   3.741   1.548   6.321
16680TPS    CA221371   3.735   1.599   6.416
16680TPS    CA121372   3.718   1.529   6.537
16680TPS     Si21373   3.718   1.343   6.537
16680TPS    CA621374   3.718   1.601   6.658
16680TPS    HH621375   3.699   1.552   6.753
16680TPS    CA521376   3.741   1.740   6.659
16680TPS    HA521377   3.742   1.795   6.752
16680TPS    CA421378   3.761   1.808   6.538
16680TPS    HA421379   3.781   1.915   6.539
16680TPS    CA321380   3.755   1.738   6.417
16680TPS    HA321381   3.771   1.792   6.324
16681TPS    HA221382   1.027   1.535   0.688
16681TPS    CA221383   1.054   1.586   0.780
16681TPS    CA121384   1.079   1.516   0.899
16681TPS     Si21385   1.079   1.330   0.899
16681TPS    CA621386   1.120   1.588   1.013
16681TPS    HH621387   1.135   1.539   1.109
16681TPS    CA521388   1.143   1.727   1.006
16681TPS    HA521389   1.175   1.782   1.093
16681TPS    CA421390   1.120   1.795   0.885
16681TPS    HA421391   1.139   1.902   0.879
16681TPS    CA321392   1.073   1.725   0.773
16681TPS    HA321393   1.056   1.779   0.680
16682TPS    HA221394   8.170   1.442   3.082
16682TPS    CA221395   8.197   1.493   3.174
16682TPS    CA121396   8.222   1.423   3.293
16682TPS     Si21397   8.222   1.237   3.293
16682TPS    CA621398   8.263   1.495   3.407
16682TPS    HH621399   8.278   1.446   3.503
16682TPS    CA521400   8.286   1.634   3.400
16682TPS    HA521401   8.318   1.689   3.487
16682TPS    CA421402   8.263   1.702   3.279
16682TPS    HA421403   8.282   1.809   3.273
16682TPS    CA321404   8.216   1.632   3.167
16682TPS    HA321405   8.199   1.686   3.074
16683TPS    HA221406   8.058   1.276   7.250
16683TPS    CA221407   8.144   1.327   7.208
16683TPS    CA121408   8.257   1.257   7.162
16683TPS     Si21409   8.257   1.071   7.162
16683TPS    CA621410   8.362   1.329   7.102
16683TPS    HH621411   8.454   1.280   7.070
16683TPS    CA521412   8.351   1.468   7.081
16683TPS    HA521413   8.432   1.523   7.034
16683TPS    CA421414   8.236   1.536   7.124
16683TPS    HA421415   8.227   1.643   7.106
16683TPS    CA321416   8.134   1.466   7.190
16683TPS    HA321417   8.046   1.520   7.223
16684TPS    HA221418   3.126   8.044   8.050
16684TPS    CA221419   3.087   7.993   7.963
16684TPS    CA121420   3.030   8.063   7.855
16684TPS     Si21421   3.030   8.249   7.855
16684TPS    CA621422   2.988   7.991   7.741
16684TPS    HH621423   2.938   8.040   7.658
16684TPS    CA521424   3.010   7.852   7.733
16684TPS    HA521425   2.979   7.797   7.644
16684TPS    CA421426   3.070   7.784   7.839
16684TPS    HA421427   3.089   7.677   7.832
16684TPS    CA321428   3.106   7.854   7.955
16684TPS    HA321429   3.153   7.800   8.038
16685TPS    HA221430   4.707   8.216   4.585
16685TPS    CA221431   4.713   8.165   4.680
16685TPS    CA121432   4.730   8.235   4.801
16685TPS     Si21433   4.730   8.421   4.801
16685TPS    CA621434   4.730   8.163   4.922
16685TPS    HH621435   4.749   8.212   5.017
16685TPS    CA521436   4.707   8.024   4.923
16685TPS    HA521437   4.706   7.969   5.016
16685TPS    CA421438   4.687   7.956   4.802
16685TPS    HA421439   4.667   7.849   4.803
16685TPS    CA321440   4.693   8.026   4.681
16685TPS    HA321441   4.677   7.972   4.588
16686TPS    HA221442   2.321   8.067   6.700
16686TPS    CA221443   2.242   8.016   6.753
16686TPS    CA121444   2.146   8.086   6.828
16686TPS     Si21445   2.146   8.272   6.828
16686TPS    CA621446   2.041   8.014   6.889
16686TPS    HH621447   1.968   8.063   6.952
16686TPS    CA521448   2.029   7.875   6.869
16686TPS    HA521449   1.948   7.820   6.915
16686TPS    CA421450   2.123   7.807   6.791
16686TPS    HA421451   2.113   7.700   6.774
16686TPS    CA321452   2.232   7.877   6.735
16686TPS    HA321453   2.304   7.823   6.675
16687TPS    HA221454   1.826   8.169   8.345
16687TPS    CA221455   1.853   8.118   8.253
16687TPS    CA121456   1.878   8.188   8.134
16687TPS     Si21457   1.878   8.374   8.134
16687TPS    CA621458   1.919   8.116   8.020
16687TPS    HH621459   1.934   8.165   7.924
16687TPS    CA521460   1.942   7.977   8.027
16687TPS    HA521461   1.974   7.922   7.940
16687TPS    CA421462   1.919   7.909   8.148
16687TPS    HA421463   1.938   7.802   8.154
16687TPS    CA321464   1.872   7.979   8.260
16687TPS    HA321465   1.855   7.925   8.353
16688TPS    HA221466   7.634   1.541   5.061
16688TPS    CA221467   7.661   1.592   5.153
16688TPS    CA121468   7.686   1.522   5.272
16688TPS     Si21469   7.686   1.336   5.272
16688TPS    CA621470   7.727   1.594   5.386
16688TPS    HH621471   7.742   1.545   5.482
16688TPS    CA521472   7.750   1.733   5.379
16688TPS    HA521473   7.782   1.788   5.466
16688TPS    CA421474   7.727   1.801   5.258
16688TPS    HA421475   7.746   1.908   5.252
16688TPS    CA321476   7.680   1.731   5.146
16688TPS    HA321477   7.663   1.785   5.053
16689TPS    HA221478   6.216   8.274   8.271
16689TPS    CA221479   6.243   8.223   8.179
16689TPS    CA121480   6.268   8.293   8.060
16689TPS     Si21481   6.268   8.479   8.060
16689TPS    CA621482   6.309   8.221   7.946
16689TPS    HH621483   6.324   8.270   7.850
16689TPS    CA521484   6.332   8.082   7.953
16689TPS    HA521485   6.364   8.027   7.866
16689TPS    CA421486   6.309   8.014   8.074
16689TPS    HA421487   6.328   7.907   8.080
16689TPS    CA321488   6.262   8.084   8.186
16689TPS    HA321489   6.245   8.030   8.279
16690TPS    HA221490   7.963   8.011   8.476
16690TPS    CA221491   7.990   7.960   8.384
16690TPS    CA121492   8.015   8.030   8.265
16690TPS     Si21493   8.015   8.216   8.265
16690TPS    CA621494   8.056   7.958   8.151
16690TPS    HH621495   8.071   8.007   8.055
16690TPS    CA521496   8.079   7.819   8.158
16690TPS    HA521497   8.111   7.764   8.071
16690TPS    CA421498   8.056   7.751   8.279
16690TPS    HA421499   8.075   7.644   8.285
16690TPS    CA321500   8.009   7.821   8.391
16690TPS    HA321501   7.992   7.767   8.484
16691TPS    HA221502   8.013   1.485   8.563
16691TPS    CA221503   8.106   1.536   8.586
16691TPS    CA121504   8.222   1.466   8.624
16691TPS     Si21505   8.222   1.280   8.624
16691TPS    CA621506   8.341   1.538   8.646
16691TPS    HH621507   8.432   1.489   8.680
16691TPS    CA521508   8.346   1.677   8.622
16691TPS    HA521509   8.438   1.732   8.638
16691TPS    CA421510   8.231   1.745   8.582
16691TPS    HA421511   8.235   1.852   8.562
16691TPS    CA321512   8.110   1.675   8.566
16691TPS    HA321513   8.021   1.729   8.535
16692TPS    HA221514   6.797   8.113   0.901
16692TPS    CA221515   6.824   8.062   0.809
16692TPS    CA121516   6.849   8.132   0.690
16692TPS     Si21517   6.849   8.318   0.690
16692TPS    CA621518   6.890   8.060   0.576
16692TPS    HH621519   6.905   8.109   0.480
16692TPS    CA521520   6.913   7.921   0.583
16692TPS    HA521521   6.945   7.866   0.496
16692TPS    CA421522   6.890   7.853   0.704
16692TPS    HA421523   6.909   7.746   0.710
16692TPS    CA321524   6.843   7.923   0.816
16692TPS    HA321525   6.826   7.869   0.909
16693TPS    HA221526   6.473   8.073   9.787
16693TPS    CA221527   6.500   8.022   9.695
16693TPS    CA121528   6.525   8.092   9.576
16693TPS     Si21529   6.525   8.278   9.576
16693TPS    CA621530   6.566   8.020   9.462
16693TPS    HH621531   6.581   8.069   9.366
16693TPS    CA521532   6.589   7.881   9.469
16693TPS    HA521533   6.621   7.826   9.382
16693TPS    CA421534   6.566   7.813   9.590
16693TPS    HA421535   6.585   7.706   9.596
16693TPS    CA321536   6.519   7.883   9.702
16693TPS    HA321537   6.502   7.829   9.795
16694TPS    HA221538   2.204   1.449   6.246
16694TPS    CA221539   2.231   1.500   6.338
16694TPS    CA121540   2.256   1.430   6.457
16694TPS     Si21541   2.256   1.244   6.457
16694TPS    CA621542   2.297   1.502   6.571
16694TPS    HH621543   2.312   1.453   6.667
16694TPS    CA521544   2.320   1.641   6.564
16694TPS    HA521545   2.352   1.696   6.651
16694TPS    CA421546   2.297   1.709   6.443
16694TPS    HA421547   2.316   1.816   6.437
16694TPS    CA321548   2.250   1.639   6.331
16694TPS    HA321549   2.233   1.693   6.238
16695TPS    HA221550   6.092   1.531   2.096
16695TPS    CA221551   6.185   1.582   2.119
16695TPS    CA121552   6.301   1.512   2.157
16695TPS     Si21553   6.301   1.326   2.157
16695TPS    CA621554   6.420   1.584   2.179
16695TPS    HH621555   6.511   1.535   2.213
16695TPS    CA521556   6.425   1.723   2.155
16695TPS    HA521557   6.517   1.778   2.171
16695TPS    CA421558   6.310   1.791   2.115
16695TPS    HA421559   6.314   1.898   2.095
16695TPS    CA321560   6.189   1.721   2.099
16695TPS    HA321561   6.100   1.775   2.068
16696TPS    HA221562   3.812   1.511   3.962
16696TPS    CA221563   3.839   1.562   4.054
16696TPS    CA121564   3.864   1.492   4.173
16696TPS     Si21565   3.864   1.306   4.173
16696TPS    CA621566   3.905   1.564   4.287
16696TPS    HH621567   3.920   1.515   4.383
16696TPS    CA521568   3.928   1.703   4.280
16696TPS    HA521569   3.960   1.758   4.367
16696TPS    CA421570   3.905   1.771   4.159
16696TPS    HA421571   3.924   1.878   4.153
16696TPS    CA321572   3.858   1.701   4.047
16696TPS    HA321573   3.841   1.755   3.954
16697TPS    HA221574   0.332   1.554   8.644
16697TPS    CA221575   0.359   1.605   8.736
16697TPS    CA121576   0.384   1.535   8.855
16697TPS     Si21577   0.384   1.349   8.855
16697TPS    CA621578   0.425   1.607   8.969
16697TPS    HH621579   0.440   1.558   9.065
16697TPS    CA521580   0.448   1.746   8.962
16697TPS    HA521581   0.480   1.801   9.049
16697TPS    CA421582   0.425   1.814   8.841
16697TPS    HA421583   0.444   1.921   8.835
16697TPS    CA321584   0.378   1.744   8.729
16697TPS    HA321585   0.361   1.798   8.636
16698TPS    HA221586   0.216   1.437   7.141
16698TPS    CA221587   0.137   1.488   7.088
16698TPS    CA121588   0.041   1.418   7.013
16698TPS     Si21589   0.041   1.232   7.013
16698TPS    CA621590  -0.064   1.490   6.952
16698TPS    HH621591  -0.137   1.441   6.889
16698TPS    CA521592  -0.076   1.629   6.972
16698TPS    HA521593  -0.157   1.684   6.926
16698TPS    CA421594   0.018   1.697   7.050
16698TPS    HA421595   0.008   1.804   7.067
16698TPS    CA321596   0.127   1.627   7.106
16698TPS    HA321597   0.199   1.681   7.166
16699TPS    HA221598   5.714   8.226   5.030
16699TPS    CA221599   5.741   8.175   4.938
16699TPS    CA121600   5.766   8.245   4.819
16699TPS     Si21601   5.766   8.431   4.819
16699TPS    CA621602   5.807   8.173   4.705
16699TPS    HH621603   5.822   8.222   4.609
16699TPS    CA521604   5.830   8.034   4.712
16699TPS    HA521605   5.862   7.979   4.625
16699TPS    CA421606   5.807   7.966   4.833
16699TPS    HA421607   5.826   7.859   4.839
16699TPS    CA321608   5.760   8.036   4.945
16699TPS    HA321609   5.743   7.982   5.038
16700TPS    HA221610   7.532   8.240   9.204
16700TPS    CA221611   7.559   8.189   9.112
16700TPS    CA121612   7.584   8.259   8.993
16700TPS     Si21613   7.584   8.445   8.993
16700TPS    CA621614   7.625   8.187   8.879
16700TPS    HH621615   7.640   8.236   8.783
16700TPS    CA521616   7.648   8.048   8.886
16700TPS    HA521617   7.680   7.993   8.799
16700TPS    CA421618   7.625   7.980   9.007
16700TPS    HA421619   7.644   7.873   9.013
16700TPS    CA321620   7.578   8.050   9.119
16700TPS    HA321621   7.561   7.996   9.212
16701TPS    HA221622   9.482   1.474   8.607
16701TPS    CA221623   9.509   1.525   8.699
16701TPS    CA121624   9.534   1.455   8.818
16701TPS     Si21625   9.534   1.269   8.818
16701TPS    CA621626   9.575   1.527   8.932
16701TPS    HH621627   9.590   1.478   9.028
16701TPS    CA521628   9.598   1.666   8.925
16701TPS    HA521629   9.630   1.721   9.012
16701TPS    CA421630   9.575   1.734   8.804
16701TPS    HA421631   9.594   1.841   8.798
16701TPS    CA321632   9.528   1.664   8.692
16701TPS    HA321633   9.511   1.718   8.599
16702TPS    HA221634   5.637   1.571   3.183
16702TPS    CA221635   5.664   1.622   3.275
16702TPS    CA121636   5.689   1.552   3.394
16702TPS     Si21637   5.689   1.366   3.394
16702TPS    CA621638   5.730   1.624   3.508
16702TPS    HH621639   5.745   1.575   3.604
16702TPS    CA521640   5.753   1.763   3.501
16702TPS    HA521641   5.785   1.818   3.588
16702TPS    CA421642   5.730   1.831   3.380
16702TPS    HA421643   5.749   1.938   3.374
16702TPS    CA321644   5.683   1.761   3.268
16702TPS    HA321645   5.666   1.815   3.175
16703TPS    HA221646   0.052   8.113   8.251
16703TPS    CA221647   0.079   8.062   8.159
16703TPS    CA121648   0.104   8.132   8.040
16703TPS     Si21649   0.104   8.318   8.040
16703TPS    CA621650   0.145   8.060   7.926
16703TPS    HH621651   0.160   8.109   7.830
16703TPS    CA521652   0.168   7.921   7.933
16703TPS    HA521653   0.200   7.866   7.846
16703TPS    CA421654   0.145   7.853   8.054
16703TPS    HA421655   0.164   7.746   8.060
16703TPS    CA321656   0.098   7.923   8.166
16703TPS    HA321657   0.081   7.869   8.259
16704TPS    HA221658   3.565   1.454   7.509
16704TPS    CA221659   3.592   1.505   7.601
16704TPS    CA121660   3.617   1.435   7.720
16704TPS     Si21661   3.617   1.249   7.720
16704TPS    CA621662   3.658   1.507   7.834
16704TPS    HH621663   3.673   1.458   7.930
16704TPS    CA521664   3.681   1.646   7.827
16704TPS    HA521665   3.713   1.701   7.914
16704TPS    CA421666   3.658   1.714   7.706
16704TPS    HA421667   3.677   1.821   7.700
16704TPS    CA321668   3.611   1.644   7.594
16704TPS    HA321669   3.594   1.698   7.501
16705TPS    HA221670   4.037   1.632   5.437
16705TPS    CA221671   3.998   1.683   5.524
16705TPS    CA121672   3.941   1.613   5.632
16705TPS     Si21673   3.941   1.427   5.632
16705TPS    CA621674   3.899   1.685   5.746
16705TPS    HH621675   3.849   1.636   5.829
16705TPS    CA521676   3.921   1.824   5.754
16705TPS    HA521677   3.890   1.879   5.843
16705TPS    CA421678   3.981   1.892   5.648
16705TPS    HA421679   4.000   1.999   5.655
16705TPS    CA321680   4.017   1.822   5.532
16705TPS    HA321681   4.064   1.876   5.449
16706TPS    HA221682   7.602   8.205   2.750
16706TPS    CA221683   7.629   8.154   2.658
16706TPS    CA121684   7.654   8.224   2.539
16706TPS     Si21685   7.654   8.410   2.539
16706TPS    CA621686   7.695   8.152   2.425
16706TPS    HH621687   7.710   8.201   2.329
16706TPS    CA521688   7.718   8.013   2.432
16706TPS    HA521689   7.750   7.958   2.345
16706TPS    CA421690   7.695   7.945   2.553
16706TPS    HA421691   7.714   7.838   2.559
16706TPS    CA321692   7.648   8.015   2.665
16706TPS    HA321693   7.631   7.961   2.758
16707TPS    HA221694   0.733   8.049   2.368
16707TPS    CA221695   0.760   7.998   2.276
16707TPS    CA121696   0.785   8.068   2.157
16707TPS     Si21697   0.785   8.254   2.157
16707TPS    CA621698   0.826   7.996   2.043
16707TPS    HH621699   0.841   8.045   1.947
16707TPS    CA521700   0.849   7.857   2.050
16707TPS    HA521701   0.881   7.802   1.963
16707TPS    CA421702   0.826   7.789   2.171
16707TPS    HA421703   0.845   7.682   2.177
16707TPS    CA321704   0.779   7.859   2.283
16707TPS    HA321705   0.762   7.805   2.376
16708TPS    HA221706   1.304   1.473   3.099
16708TPS    CA221707   1.331   1.524   3.191
16708TPS    CA121708   1.356   1.454   3.310
16708TPS     Si21709   1.356   1.268   3.310
16708TPS    CA621710   1.397   1.526   3.424
16708TPS    HH621711   1.412   1.477   3.520
16708TPS    CA521712   1.420   1.665   3.417
16708TPS    HA521713   1.452   1.720   3.504
16708TPS    CA421714   1.397   1.733   3.296
16708TPS    HA421715   1.416   1.840   3.290
16708TPS    CA321716   1.350   1.663   3.184
16708TPS    HA321717   1.333   1.717   3.091
16709TPS    HA221718   7.563   1.427   5.570
16709TPS    CA221719   7.590   1.478   5.662
16709TPS    CA121720   7.615   1.408   5.781
16709TPS     Si21721   7.615   1.222   5.781
16709TPS    CA621722   7.656   1.480   5.895
16709TPS    HH621723   7.671   1.431   5.991
16709TPS    CA521724   7.679   1.619   5.888
16709TPS    HA521725   7.711   1.674   5.975
16709TPS    CA421726   7.656   1.687   5.767
16709TPS    HA421727   7.675   1.794   5.761
16709TPS    CA321728   7.609   1.617   5.655
16709TPS    HA321729   7.592   1.671   5.562
16710TPS    HA221730   4.399   8.165   7.217
16710TPS    CA221731   4.426   8.114   7.125
16710TPS    CA121732   4.451   8.184   7.006
16710TPS     Si21733   4.451   8.370   7.006
16710TPS    CA621734   4.492   8.112   6.892
16710TPS    HH621735   4.507   8.161   6.796
16710TPS    CA521736   4.515   7.973   6.899
16710TPS    HA521737   4.547   7.918   6.812
16710TPS    CA421738   4.492   7.905   7.020
16710TPS    HA421739   4.511   7.798   7.026
16710TPS    CA321740   4.445   7.975   7.132
16710TPS    HA321741   4.428   7.921   7.225
16711TPS    HA221742   1.370   8.176   0.931
16711TPS    CA221743   1.397   8.125   0.839
16711TPS    CA121744   1.422   8.195   0.720
16711TPS     Si21745   1.422   8.381   0.720
16711TPS    CA621746   1.463   8.123   0.606
16711TPS    HH621747   1.478   8.172   0.510
16711TPS    CA521748   1.486   7.984   0.613
16711TPS    HA521749   1.518   7.929   0.526
16711TPS    CA421750   1.463   7.916   0.734
16711TPS    HA421751   1.482   7.809   0.740
16711TPS    CA321752   1.416   7.986   0.846
16711TPS    HA321753   1.399   7.932   0.939
16712TPS    HA221754   7.030   1.319   6.167
16712TPS    CA221755   7.123   1.370   6.190
16712TPS    CA121756   7.239   1.300   6.228
16712TPS     Si21757   7.239   1.114   6.228
16712TPS    CA621758   7.358   1.372   6.250
16712TPS    HH621759   7.449   1.323   6.284
16712TPS    CA521760   7.363   1.511   6.226
16712TPS    HA521761   7.455   1.566   6.242
16712TPS    CA421762   7.248   1.579   6.186
16712TPS    HA421763   7.252   1.686   6.166
16712TPS    CA321764   7.127   1.509   6.170
16712TPS    HA321765   7.038   1.563   6.139
16713TPS    HA221766   0.766   1.466   6.572
16713TPS    CA221767   0.680   1.517   6.614
16713TPS    CA121768   0.567   1.447   6.660
16713TPS     Si21769   0.567   1.261   6.660
16713TPS    CA621770   0.462   1.519   6.720
16713TPS    HH621771   0.370   1.470   6.752
16713TPS    CA521772   0.473   1.658   6.741
16713TPS    HA521773   0.392   1.713   6.788
16713TPS    CA421774   0.588   1.726   6.698
16713TPS    HA421775   0.597   1.833   6.716
16713TPS    CA321776   0.690   1.656   6.632
16713TPS    HA321777   0.778   1.710   6.599
16714TPS    HA221778   7.627   1.361   8.571
16714TPS    CA221779   7.561   1.412   8.639
16714TPS    CA121780   7.470   1.342   8.721
16714TPS     Si21781   7.470   1.156   8.721
16714TPS    CA621782   7.392   1.414   8.814
16714TPS    HH621783   7.317   1.365   8.875
16714TPS    CA521784   7.409   1.553   8.829
16714TPS    HA521785   7.350   1.608   8.901
16714TPS    CA421786   7.502   1.621   8.750
16714TPS    HA421787   7.517   1.728   8.763
16714TPS    CA321788   7.576   1.551   8.653
16714TPS    HA321789   7.648   1.605   8.591
16715TPS    HA221790   5.167   8.117   4.226
16715TPS    CA221791   5.194   8.066   4.134
16715TPS    CA121792   5.219   8.136   4.015
16715TPS     Si21793   5.219   8.322   4.015
16715TPS    CA621794   5.260   8.064   3.901
16715TPS    HH621795   5.275   8.113   3.805
16715TPS    CA521796   5.283   7.925   3.908
16715TPS    HA521797   5.315   7.870   3.821
16715TPS    CA421798   5.260   7.857   4.029
16715TPS    HA421799   5.279   7.750   4.035
16715TPS    CA321800   5.213   7.927   4.141
16715TPS    HA321801   5.196   7.873   4.234
16716TPS    HA221802   7.454   8.036   8.471
16716TPS    CA221803   7.481   7.985   8.379
16716TPS    CA121804   7.506   8.055   8.260
16716TPS     Si21805   7.506   8.241   8.260
16716TPS    CA621806   7.547   7.983   8.146
16716TPS    HH621807   7.562   8.032   8.050
16716TPS    CA521808   7.570   7.844   8.153
16716TPS    HA521809   7.602   7.789   8.066
16716TPS    CA421810   7.547   7.776   8.274
16716TPS    HA421811   7.566   7.669   8.280
16716TPS    CA321812   7.500   7.846   8.386
16716TPS    HA321813   7.483   7.792   8.479
16717TPS    HA221814   6.869   1.544   9.043
16717TPS    CA221815   6.896   1.595   9.135
16717TPS    CA121816   6.921   1.525   9.254
16717TPS     Si21817   6.921   1.339   9.254
16717TPS    CA621818   6.962   1.597   9.368
16717TPS    HH621819   6.977   1.548   9.464
16717TPS    CA521820   6.985   1.736   9.361
16717TPS    HA521821   7.017   1.791   9.448
16717TPS    CA421822   6.962   1.804   9.240
16717TPS    HA421823   6.981   1.911   9.234
16717TPS    CA321824   6.915   1.734   9.128
16717TPS    HA321825   6.898   1.788   9.035
16718TPS    HA221826   5.586   8.031   3.806
16718TPS    CA221827   5.547   7.980   3.719
16718TPS    CA121828   5.490   8.050   3.611
16718TPS     Si21829   5.490   8.236   3.611
16718TPS    CA621830   5.448   7.978   3.497
16718TPS    HH621831   5.398   8.027   3.414
16718TPS    CA521832   5.470   7.839   3.489
16718TPS    HA521833   5.439   7.784   3.400
16718TPS    CA421834   5.530   7.771   3.595
16718TPS    HA421835   5.549   7.664   3.588
16718TPS    CA321836   5.566   7.841   3.711
16718TPS    HA321837   5.613   7.787   3.794
16719TPS    HA221838   5.347   1.598   2.320
16719TPS    CA221839   5.374   1.649   2.412
16719TPS    CA121840   5.399   1.579   2.531
16719TPS     Si21841   5.399   1.393   2.531
16719TPS    CA621842   5.440   1.651   2.645
16719TPS    HH621843   5.455   1.602   2.741
16719TPS    CA521844   5.463   1.790   2.638
16719TPS    HA521845   5.495   1.845   2.725
16719TPS    CA421846   5.440   1.858   2.517
16719TPS    HA421847   5.459   1.965   2.511
16719TPS    CA321848   5.393   1.788   2.405
16719TPS    HA321849   5.376   1.842   2.312
16720TPS    HA221850   6.252   1.549   3.983
16720TPS    CA221851   6.338   1.600   3.941
16720TPS    CA121852   6.451   1.530   3.895
16720TPS     Si21853   6.451   1.344   3.895
16720TPS    CA621854   6.556   1.602   3.835
16720TPS    HH621855   6.648   1.553   3.803
16720TPS    CA521856   6.545   1.741   3.814
16720TPS    HA521857   6.626   1.796   3.767
16720TPS    CA421858   6.430   1.809   3.857
16720TPS    HA421859   6.421   1.916   3.839
16720TPS    CA321860   6.328   1.739   3.923
16720TPS    HA321861   6.240   1.793   3.956
16721TPS    HA221862   2.461   8.112   4.767
16721TPS    CA221863   2.488   8.061   4.675
16721TPS    CA121864   2.513   8.131   4.556
16721TPS     Si21865   2.513   8.317   4.556
16721TPS    CA621866   2.554   8.059   4.442
16721TPS    HH621867   2.569   8.108   4.346
16721TPS    CA521868   2.577   7.920   4.449
16721TPS    HA521869   2.609   7.865   4.362
16721TPS    CA421870   2.554   7.852   4.570
16721TPS    HA421871   2.573   7.745   4.576
16721TPS    CA321872   2.507   7.922   4.682
16721TPS    HA321873   2.490   7.868   4.775
16722TPS    HA221874   2.788   8.104   9.697
16722TPS    CA221875   2.815   8.053   9.605
16722TPS    CA121876   2.840   8.123   9.486
16722TPS     Si21877   2.840   8.309   9.486
16722TPS    CA621878   2.881   8.051   9.372
16722TPS    HH621879   2.896   8.100   9.276
16722TPS    CA521880   2.904   7.912   9.379
16722TPS    HA521881   2.936   7.857   9.292
16722TPS    CA421882   2.881   7.844   9.500
16722TPS    HA421883   2.900   7.737   9.506
16722TPS    CA321884   2.834   7.914   9.612
16722TPS    HA321885   2.817   7.860   9.705
16723TPS    HA221886   8.201   8.152   5.823
16723TPS    CA221887   8.108   8.101   5.846
16723TPS    CA121888   7.992   8.171   5.884
16723TPS     Si21889   7.992   8.357   5.884
16723TPS    CA621890   7.873   8.099   5.906
16723TPS    HH621891   7.782   8.148   5.940
16723TPS    CA521892   7.868   7.960   5.882
16723TPS    HA521893   7.776   7.905   5.898
16723TPS    CA421894   7.983   7.892   5.842
16723TPS    HA421895   7.979   7.785   5.822
16723TPS    CA321896   8.104   7.962   5.826
16723TPS    HA321897   8.193   7.908   5.795
16724TPS    HA221898   8.636   1.485   4.745
16724TPS    CA221899   8.663   1.536   4.837
16724TPS    CA121900   8.688   1.466   4.956
16724TPS     Si21901   8.688   1.280   4.956
16724TPS    CA621902   8.729   1.538   5.070
16724TPS    HH621903   8.744   1.489   5.166
16724TPS    CA521904   8.752   1.677   5.063
16724TPS    HA521905   8.784   1.732   5.150
16724TPS    CA421906   8.729   1.745   4.942
16724TPS    HA421907   8.748   1.852   4.936
16724TPS    CA321908   8.682   1.675   4.830
16724TPS    HA321909   8.665   1.729   4.737
16725TPS    HA221910   8.078   1.368   1.921
16725TPS    CA221911   8.105   1.419   2.013
16725TPS    CA121912   8.130   1.349   2.132
16725TPS     Si21913   8.130   1.163   2.132
16725TPS    CA621914   8.171   1.421   2.246
16725TPS    HH621915   8.186   1.372   2.342
16725TPS    CA521916   8.194   1.560   2.239
16725TPS    HA521917   8.226   1.615   2.326
16725TPS    CA421918   8.171   1.628   2.118
16725TPS    HA421919   8.190   1.735   2.112
16725TPS    CA321920   8.124   1.558   2.006
16725TPS    HA321921   8.107   1.612   1.913
16726TPS    HA221922   7.695   8.096   3.838
16726TPS    CA221923   7.722   8.045   3.746
16726TPS    CA121924   7.747   8.115   3.627
16726TPS     Si21925   7.747   8.301   3.627
16726TPS    CA621926   7.788   8.043   3.513
16726TPS    HH621927   7.803   8.092   3.417
16726TPS    CA521928   7.811   7.904   3.520
16726TPS    HA521929   7.843   7.849   3.433
16726TPS    CA421930   7.788   7.836   3.641
16726TPS    HA421931   7.807   7.729   3.647
16726TPS    CA321932   7.741   7.906   3.753
16726TPS    HA321933   7.724   7.852   3.846
16727TPS    HA221934   8.891   8.137   9.633
16727TPS    CA221935   8.852   8.086   9.546
16727TPS    CA121936   8.795   8.156   9.438
16727TPS     Si21937   8.795   8.342   9.438
16727TPS    CA621938   8.753   8.084   9.324
16727TPS    HH621939   8.703   8.133   9.241
16727TPS    CA521940   8.775   7.945   9.316
16727TPS    HA521941   8.744   7.890   9.227
16727TPS    CA421942   8.835   7.877   9.422
16727TPS    HA421943   8.854   7.770   9.415
16727TPS    CA321944   8.871   7.947   9.538
16727TPS    HA321945   8.918   7.893   9.621
16728TPS    HA221946   8.270   1.377   7.414
16728TPS    CA221947   8.177   1.428   7.391
16728TPS    CA121948   8.061   1.358   7.353
16728TPS     Si21949   8.061   1.172   7.353
16728TPS    CA621950   7.942   1.430   7.331
16728TPS    HH621951   7.851   1.381   7.297
16728TPS    CA521952   7.937   1.569   7.355
16728TPS    HA521953   7.845   1.624   7.339
16728TPS    CA421954   8.052   1.637   7.395
16728TPS    HA421955   8.048   1.744   7.415
16728TPS    CA321956   8.173   1.567   7.411
16728TPS    HA321957   8.262   1.621   7.442
16729TPS    HA221958   1.646   8.074   0.433
16729TPS    CA221959   1.673   8.023   0.341
16729TPS    CA121960   1.698   8.093   0.222
16729TPS     Si21961   1.698   8.279   0.222
16729TPS    CA621962   1.739   8.021   0.108
16729TPS    HH621963   1.754   8.070   0.012
16729TPS    CA521964   1.762   7.882   0.115
16729TPS    HA521965   1.794   7.827   0.028
16729TPS    CA421966   1.739   7.814   0.236
16729TPS    HA421967   1.758   7.707   0.242
16729TPS    CA321968   1.692   7.884   0.348
16729TPS    HA321969   1.675   7.830   0.441
16730TPS    HA221970   7.580   1.378   0.872
16730TPS    CA221971   7.607   1.429   0.964
16730TPS    CA121972   7.632   1.359   1.083
16730TPS     Si21973   7.632   1.173   1.083
16730TPS    CA621974   7.673   1.431   1.197
16730TPS    HH621975   7.688   1.382   1.293
16730TPS    CA521976   7.696   1.570   1.190
16730TPS    HA521977   7.728   1.625   1.277
16730TPS    CA421978   7.673   1.638   1.069
16730TPS    HA421979   7.692   1.745   1.063
16730TPS    CA321980   7.626   1.568   0.957
16730TPS    HA321981   7.609   1.622   0.864
16731TPS    HA221982   3.887   8.383   2.365
16731TPS    CA221983   3.848   8.332   2.278
16731TPS    CA121984   3.791   8.402   2.170
16731TPS     Si21985   3.791   8.588   2.170
16731TPS    CA621986   3.749   8.330   2.056
16731TPS    HH621987   3.699   8.379   1.973
16731TPS    CA521988   3.771   8.191   2.048
16731TPS    HA521989   3.740   8.136   1.959
16731TPS    CA421990   3.831   8.123   2.154
16731TPS    HA421991   3.850   8.016   2.147
16731TPS    CA321992   3.867   8.193   2.270
16731TPS    HA321993   3.914   8.139   2.353
16732TPS    HA221994   0.965   8.126   7.413
16732TPS    CA221995   0.899   8.075   7.345
16732TPS    CA121996   0.808   8.145   7.263
16732TPS     Si21997   0.808   8.331   7.263
16732TPS    CA621998   0.730   8.073   7.170
16732TPS    HH621999   0.655   8.122   7.109
16732TPS    CA522000   0.747   7.934   7.155
16732TPS    HA522001   0.688   7.879   7.083
16732TPS    CA422002   0.840   7.866   7.234
16732TPS    HA422003   0.855   7.759   7.221
16732TPS    CA322004   0.914   7.936   7.331
16732TPS    HA322005   0.986   7.882   7.393
16733TPS    HA222006   3.163   1.502   8.174
16733TPS    CA222007   3.190   1.553   8.266
16733TPS    CA122008   3.215   1.483   8.385
16733TPS     Si22009   3.215   1.297   8.385
16733TPS    CA622010   3.256   1.555   8.499
16733TPS    HH622011   3.271   1.506   8.595
16733TPS    CA522012   3.279   1.694   8.492
16733TPS    HA522013   3.311   1.749   8.579
16733TPS    CA422014   3.256   1.762   8.371
16733TPS    HA422015   3.275   1.869   8.365
16733TPS    CA322016   3.209   1.692   8.259
16733TPS    HA322017   3.192   1.746   8.166
16734TPS    HA222018   8.912   1.416   0.448
16734TPS    CA222019   8.939   1.467   0.540
16734TPS    CA122020   8.964   1.397   0.659
16734TPS     Si22021   8.964   1.211   0.659
16734TPS    CA622022   9.005   1.469   0.773
16734TPS    HH622023   9.020   1.420   0.869
16734TPS    CA522024   9.028   1.608   0.766
16734TPS    HA522025   9.060   1.663   0.853
16734TPS    CA422026   9.005   1.676   0.645
16734TPS    HA422027   9.024   1.783   0.639
16734TPS    CA322028   8.958   1.606   0.533
16734TPS    HA322029   8.941   1.660   0.440
16735TPS    HA222030   3.031   1.461   7.447
16735TPS    CA222031   3.058   1.512   7.539
16735TPS    CA122032   3.083   1.442   7.658
16735TPS     Si22033   3.083   1.256   7.658
16735TPS    CA622034   3.124   1.514   7.772
16735TPS    HH622035   3.139   1.465   7.868
16735TPS    CA522036   3.147   1.653   7.765
16735TPS    HA522037   3.179   1.708   7.852
16735TPS    CA422038   3.124   1.721   7.644
16735TPS    HA422039   3.143   1.828   7.638
16735TPS    CA322040   3.077   1.651   7.532
16735TPS    HA322041   3.060   1.705   7.439
16736TPS    HA222042   2.525   8.035   1.178
16736TPS    CA222043   2.519   7.984   1.083
16736TPS    CA122044   2.502   8.054   0.962
16736TPS     Si22045   2.502   8.240   0.962
16736TPS    CA622046   2.502   7.982   0.841
16736TPS    HH622047   2.483   8.031   0.746
16736TPS    CA522048   2.525   7.843   0.840
16736TPS    HA522049   2.526   7.788   0.747
16736TPS    CA422050   2.545   7.775   0.961
16736TPS    HA422051   2.565   7.668   0.960
16736TPS    CA322052   2.539   7.845   1.082
16736TPS    HA322053   2.555   7.791   1.175
16737TPS    HA222054   3.057   8.253   2.591
16737TPS    CA222055   3.084   8.202   2.499
16737TPS    CA122056   3.109   8.272   2.380
16737TPS     Si22057   3.109   8.458   2.380
16737TPS    CA622058   3.150   8.200   2.266
16737TPS    HH622059   3.165   8.249   2.170
16737TPS    CA522060   3.173   8.061   2.273
16737TPS    HA522061   3.205   8.006   2.186
16737TPS    CA422062   3.150   7.993   2.394
16737TPS    HA422063   3.169   7.886   2.400
16737TPS    CA322064   3.103   8.063   2.506
16737TPS    HA322065   3.086   8.009   2.599
16738TPS    HA222066   9.256   8.156   9.478
16738TPS    CA222067   9.283   8.105   9.386
16738TPS    CA122068   9.308   8.175   9.267
16738TPS     Si22069   9.308   8.361   9.267
16738TPS    CA622070   9.349   8.103   9.153
16738TPS    HH622071   9.364   8.152   9.057
16738TPS    CA522072   9.372   7.964   9.160
16738TPS    HA522073   9.404   7.909   9.073
16738TPS    CA422074   9.349   7.896   9.281
16738TPS    HA422075   9.368   7.789   9.287
16738TPS    CA322076   9.302   7.966   9.393
16738TPS    HA322077   9.285   7.912   9.486
16739TPS    HA222078   9.430   1.525   4.858
16739TPS    CA222079   9.457   1.576   4.950
16739TPS    CA122080   9.482   1.506   5.069
16739TPS     Si22081   9.482   1.320   5.069
16739TPS    CA622082   9.523   1.578   5.183
16739TPS    HH622083   9.538   1.529   5.279
16739TPS    CA522084   9.546   1.717   5.176
16739TPS    HA522085   9.578   1.772   5.263
16739TPS    CA422086   9.523   1.785   5.055
16739TPS    HA422087   9.542   1.892   5.049
16739TPS    CA322088   9.476   1.715   4.943
16739TPS    HA322089   9.459   1.769   4.850
16740TPS    HA222090   7.339   8.135   4.250
16740TPS    CA222091   7.366   8.084   4.158
16740TPS    CA122092   7.391   8.154   4.039
16740TPS     Si22093   7.391   8.340   4.039
16740TPS    CA622094   7.432   8.082   3.925
16740TPS    HH622095   7.447   8.131   3.829
16740TPS    CA522096   7.455   7.943   3.932
16740TPS    HA522097   7.487   7.888   3.845
16740TPS    CA422098   7.432   7.875   4.053
16740TPS    HA422099   7.451   7.768   4.059
16740TPS    CA322100   7.385   7.945   4.165
16740TPS    HA322101   7.368   7.891   4.258
16741TPS    HA222102   8.816   8.221   6.735
16741TPS    CA222103   8.843   8.170   6.643
16741TPS    CA122104   8.868   8.240   6.524
16741TPS     Si22105   8.868   8.426   6.524
16741TPS    CA622106   8.909   8.168   6.410
16741TPS    HH622107   8.924   8.217   6.314
16741TPS    CA522108   8.932   8.029   6.417
16741TPS    HA522109   8.964   7.974   6.330
16741TPS    CA422110   8.909   7.961   6.538
16741TPS    HA422111   8.928   7.854   6.544
16741TPS    CA322112   8.862   8.031   6.650
16741TPS    HA322113   8.845   7.977   6.743
16742TPS    HA222114   3.322   1.561   8.684
16742TPS    CA222115   3.349   1.612   8.776
16742TPS    CA122116   3.374   1.542   8.895
16742TPS     Si22117   3.374   1.356   8.895
16742TPS    CA622118   3.415   1.614   9.009
16742TPS    HH622119   3.430   1.565   9.105
16742TPS    CA522120   3.438   1.753   9.002
16742TPS    HA522121   3.470   1.808   9.089
16742TPS    CA422122   3.415   1.821   8.881
16742TPS    HA422123   3.434   1.928   8.875
16742TPS    CA322124   3.368   1.751   8.769
16742TPS    HA322125   3.351   1.805   8.676
16743TPS    HA222126   3.059   1.427   7.931
16743TPS    CA222127   3.053   1.478   8.026
16743TPS    CA122128   3.036   1.408   8.147
16743TPS     Si22129   3.036   1.222   8.147
16743TPS    CA622130   3.036   1.480   8.268
16743TPS    HH622131   3.017   1.431   8.363
16743TPS    CA522132   3.059   1.619   8.269
16743TPS    HA522133   3.060   1.674   8.362
16743TPS    CA422134   3.079   1.687   8.148
16743TPS    HA422135   3.099   1.794   8.149
16743TPS    CA322136   3.073   1.617   8.027
16743TPS    HA322137   3.089   1.671   7.934
16744TPS    HA222138   3.815   7.999   2.912
16744TPS    CA222139   3.842   7.948   2.820
16744TPS    CA122140   3.867   8.018   2.701
16744TPS     Si22141   3.867   8.204   2.701
16744TPS    CA622142   3.908   7.946   2.587
16744TPS    HH622143   3.923   7.995   2.491
16744TPS    CA522144   3.931   7.807   2.594
16744TPS    HA522145   3.963   7.752   2.507
16744TPS    CA422146   3.908   7.739   2.715
16744TPS    HA422147   3.927   7.632   2.721
16744TPS    CA322148   3.861   7.809   2.827
16744TPS    HA322149   3.844   7.755   2.920
16745TPS    HA222150   3.808   1.505   9.146
16745TPS    CA222151   3.835   1.556   9.238
16745TPS    CA122152   3.860   1.486   9.357
16745TPS     Si22153   3.860   1.300   9.357
16745TPS    CA622154   3.901   1.558   9.471
16745TPS    HH622155   3.916   1.509   9.567
16745TPS    CA522156   3.924   1.697   9.464
16745TPS    HA522157   3.956   1.752   9.551
16745TPS    CA422158   3.901   1.765   9.343
16745TPS    HA422159   3.920   1.872   9.337
16745TPS    CA322160   3.854   1.695   9.231
16745TPS    HA322161   3.837   1.749   9.138
16746TPS    HA222162   9.121   8.123   2.803
16746TPS    CA222163   9.148   8.072   2.711
16746TPS    CA122164   9.173   8.142   2.592
16746TPS     Si22165   9.173   8.328   2.592
16746TPS    CA622166   9.214   8.070   2.478
16746TPS    HH622167   9.229   8.119   2.382
16746TPS    CA522168   9.237   7.931   2.485
16746TPS    HA522169   9.269   7.876   2.398
16746TPS    CA422170   9.214   7.863   2.606
16746TPS    HA422171   9.233   7.756   2.612
16746TPS    CA322172   9.167   7.933   2.718
16746TPS    HA322173   9.150   7.879   2.811
16747TPS    HA222174   1.923   1.580   3.989
16747TPS    CA222175   1.917   1.631   4.084
16747TPS    CA122176   1.900   1.561   4.205
16747TPS     Si22177   1.900   1.375   4.205
16747TPS    CA622178   1.900   1.633   4.326
16747TPS    HH622179   1.881   1.584   4.421
16747TPS    CA522180   1.923   1.772   4.327
16747TPS    HA522181   1.924   1.827   4.420
16747TPS    CA422182   1.943   1.840   4.206
16747TPS    HA422183   1.963   1.947   4.207
16747TPS    CA322184   1.937   1.770   4.085
16747TPS    HA322185   1.953   1.824   3.992
16748TPS    HA222186   6.883   1.418   7.711
16748TPS    CA222187   6.910   1.469   7.803
16748TPS    CA122188   6.935   1.399   7.922
16748TPS     Si22189   6.935   1.213   7.922
16748TPS    CA622190   6.976   1.471   8.036
16748TPS    HH622191   6.991   1.422   8.132
16748TPS    CA522192   6.999   1.610   8.029
16748TPS    HA522193   7.031   1.665   8.116
16748TPS    CA422194   6.976   1.678   7.908
16748TPS    HA422195   6.995   1.785   7.902
16748TPS    CA322196   6.929   1.608   7.796
16748TPS    HA322197   6.912   1.662   7.703
16749TPS    HA222198   7.686   8.099   1.099
16749TPS    CA222199   7.713   8.048   1.007
16749TPS    CA122200   7.738   8.118   0.888
16749TPS     Si22201   7.738   8.304   0.888
16749TPS    CA622202   7.779   8.046   0.774
16749TPS    HH622203   7.794   8.095   0.678
16749TPS    CA522204   7.802   7.907   0.781
16749TPS    HA522205   7.834   7.852   0.694
16749TPS    CA422206   7.779   7.839   0.902
16749TPS    HA422207   7.798   7.732   0.908
16749TPS    CA322208   7.732   7.909   1.014
16749TPS    HA322209   7.715   7.855   1.107
16750TPS    HA222210   3.685   8.086   8.617
16750TPS    CA222211   3.712   8.035   8.525
16750TPS    CA122212   3.737   8.105   8.406
16750TPS     Si22213   3.737   8.291   8.406
16750TPS    CA622214   3.778   8.033   8.292
16750TPS    HH622215   3.793   8.082   8.196
16750TPS    CA522216   3.801   7.894   8.299
16750TPS    HA522217   3.833   7.839   8.212
16750TPS    CA422218   3.778   7.826   8.420
16750TPS    HA422219   3.797   7.719   8.426
16750TPS    CA322220   3.731   7.896   8.532
16750TPS    HA322221   3.714   7.842   8.625
16751TPS    HA222222   3.941   8.089   8.428
16751TPS    CA222223   3.968   8.038   8.336
16751TPS    CA122224   3.993   8.108   8.217
16751TPS     Si22225   3.993   8.294   8.217
16751TPS    CA622226   4.034   8.036   8.103
16751TPS    HH622227   4.049   8.085   8.007
16751TPS    CA522228   4.057   7.897   8.110
16751TPS    HA522229   4.089   7.842   8.023
16751TPS    CA422230   4.034   7.829   8.231
16751TPS    HA422231   4.053   7.722   8.237
16751TPS    CA322232   3.987   7.899   8.343
16751TPS    HA322233   3.970   7.845   8.436
16752TPS    HA222234   8.109   1.573   5.265
16752TPS    CA222235   8.202   1.624   5.288
16752TPS    CA122236   8.318   1.554   5.326
16752TPS     Si22237   8.318   1.368   5.326
16752TPS    CA622238   8.437   1.626   5.348
16752TPS    HH622239   8.528   1.577   5.382
16752TPS    CA522240   8.442   1.765   5.324
16752TPS    HA522241   8.534   1.820   5.340
16752TPS    CA422242   8.327   1.833   5.284
16752TPS    HA422243   8.331   1.940   5.264
16752TPS    CA322244   8.206   1.763   5.268
16752TPS    HA322245   8.117   1.817   5.237
16753TPS    HA222246   6.702   1.476   1.278
16753TPS    CA222247   6.729   1.527   1.370
16753TPS    CA122248   6.754   1.457   1.489
16753TPS     Si22249   6.754   1.271   1.489
16753TPS    CA622250   6.795   1.529   1.603
16753TPS    HH622251   6.810   1.480   1.699
16753TPS    CA522252   6.818   1.668   1.596
16753TPS    HA522253   6.850   1.723   1.683
16753TPS    CA422254   6.795   1.736   1.475
16753TPS    HA422255   6.814   1.843   1.469
16753TPS    CA322256   6.748   1.666   1.363
16753TPS    HA322257   6.731   1.720   1.270
16754TPS    HA222258   8.200   1.477   5.950
16754TPS    CA222259   8.227   1.528   6.042
16754TPS    CA122260   8.252   1.458   6.161
16754TPS     Si22261   8.252   1.272   6.161
16754TPS    CA622262   8.293   1.530   6.275
16754TPS    HH622263   8.308   1.481   6.371
16754TPS    CA522264   8.316   1.669   6.268
16754TPS    HA522265   8.348   1.724   6.355
16754TPS    CA422266   8.293   1.737   6.147
16754TPS    HA422267   8.312   1.844   6.141
16754TPS    CA322268   8.246   1.667   6.035
16754TPS    HA322269   8.229   1.721   5.942
16755TPS    HA222270   0.114   1.441   2.524
16755TPS    CA222271   0.141   1.492   2.616
16755TPS    CA122272   0.166   1.422   2.735
16755TPS     Si22273   0.166   1.236   2.735
16755TPS    CA622274   0.207   1.494   2.849
16755TPS    HH622275   0.222   1.445   2.945
16755TPS    CA522276   0.230   1.633   2.842
16755TPS    HA522277   0.262   1.688   2.929
16755TPS    CA422278   0.207   1.701   2.721
16755TPS    HA422279   0.226   1.808   2.715
16755TPS    CA322280   0.160   1.631   2.609
16755TPS    HA322281   0.143   1.685   2.516
16756TPS    HA222282   2.303   8.122   5.991
16756TPS    CA222283   2.330   8.071   5.899
16756TPS    CA122284   2.355   8.141   5.780
16756TPS     Si22285   2.355   8.327   5.780
16756TPS    CA622286   2.396   8.069   5.666
16756TPS    HH622287   2.411   8.118   5.570
16756TPS    CA522288   2.419   7.930   5.673
16756TPS    HA522289   2.451   7.875   5.586
16756TPS    CA422290   2.396   7.862   5.794
16756TPS    HA422291   2.415   7.755   5.800
16756TPS    CA322292   2.349   7.932   5.906
16756TPS    HA322293   2.332   7.878   5.999
16757TPS    HA222294   4.001   8.146   3.851
16757TPS    CA222295   4.028   8.095   3.759
16757TPS    CA122296   4.053   8.165   3.640
16757TPS     Si22297   4.053   8.351   3.640
16757TPS    CA622298   4.094   8.093   3.526
16757TPS    HH622299   4.109   8.142   3.430
16757TPS    CA522300   4.117   7.954   3.533
16757TPS    HA522301   4.149   7.899   3.446
16757TPS    CA422302   4.094   7.886   3.654
16757TPS    HA422303   4.113   7.779   3.660
16757TPS    CA322304   4.047   7.956   3.766
16757TPS    HA322305   4.030   7.902   3.859
16758TPS    HA222306   8.468   1.413   4.196
16758TPS    CA222307   8.495   1.464   4.288
16758TPS    CA122308   8.520   1.394   4.407
16758TPS     Si22309   8.520   1.208   4.407
16758TPS    CA622310   8.561   1.466   4.521
16758TPS    HH622311   8.576   1.417   4.617
16758TPS    CA522312   8.584   1.605   4.514
16758TPS    HA522313   8.616   1.660   4.601
16758TPS    CA422314   8.561   1.673   4.393
16758TPS    HA422315   8.580   1.780   4.387
16758TPS    CA322316   8.514   1.603   4.281
16758TPS    HA322317   8.497   1.657   4.188
16759TPS    HA222318   5.073   1.452   0.287
16759TPS    CA222319   5.100   1.503   0.379
16759TPS    CA122320   5.125   1.433   0.498
16759TPS     Si22321   5.125   1.247   0.498
16759TPS    CA622322   5.166   1.505   0.612
16759TPS    HH622323   5.181   1.456   0.708
16759TPS    CA522324   5.189   1.644   0.605
16759TPS    HA522325   5.221   1.699   0.692
16759TPS    CA422326   5.166   1.712   0.484
16759TPS    HA422327   5.185   1.819   0.478
16759TPS    CA322328   5.119   1.642   0.372
16759TPS    HA322329   5.102   1.696   0.279
16760TPS    HA222330   9.069   1.441   6.796
16760TPS    CA222331   9.096   1.492   6.888
16760TPS    CA122332   9.121   1.422   7.007
16760TPS     Si22333   9.121   1.236   7.007
16760TPS    CA622334   9.162   1.494   7.121
16760TPS    HH622335   9.177   1.445   7.217
16760TPS    CA522336   9.185   1.633   7.114
16760TPS    HA522337   9.217   1.688   7.201
16760TPS    CA422338   9.162   1.701   6.993
16760TPS    HA422339   9.181   1.808   6.987
16760TPS    CA322340   9.115   1.631   6.881
16760TPS    HA322341   9.098   1.685   6.788
16761TPS    HA222342   3.427   1.538   6.586
16761TPS    CA222343   3.454   1.589   6.678
16761TPS    CA122344   3.479   1.519   6.797
16761TPS     Si22345   3.479   1.333   6.797
16761TPS    CA622346   3.520   1.591   6.911
16761TPS    HH622347   3.535   1.542   7.007
16761TPS    CA522348   3.543   1.730   6.904
16761TPS    HA522349   3.575   1.785   6.991
16761TPS    CA422350   3.520   1.798   6.783
16761TPS    HA422351   3.539   1.905   6.777
16761TPS    CA322352   3.473   1.728   6.671
16761TPS    HA322353   3.456   1.782   6.578
16762TPS    HA222354   1.316   8.268   8.287
16762TPS    CA222355   1.343   8.217   8.195
16762TPS    CA122356   1.368   8.287   8.076
16762TPS     Si22357   1.368   8.473   8.076
16762TPS    CA622358   1.409   8.215   7.962
16762TPS    HH622359   1.424   8.264   7.866
16762TPS    CA522360   1.432   8.076   7.969
16762TPS    HA522361   1.464   8.021   7.882
16762TPS    CA422362   1.409   8.008   8.090
16762TPS    HA422363   1.428   7.901   8.096
16762TPS    CA322364   1.362   8.078   8.202
16762TPS    HA322365   1.345   8.024   8.295
16763TPS    HA222366   7.894   8.237   5.637
16763TPS    CA222367   7.855   8.186   5.550
16763TPS    CA122368   7.798   8.256   5.442
16763TPS     Si22369   7.798   8.442   5.442
16763TPS    CA622370   7.756   8.184   5.328
16763TPS    HH622371   7.706   8.233   5.245
16763TPS    CA522372   7.778   8.045   5.320
16763TPS    HA522373   7.747   7.990   5.231
16763TPS    CA422374   7.838   7.977   5.426
16763TPS    HA422375   7.857   7.870   5.419
16763TPS    CA322376   7.874   8.047   5.542
16763TPS    HA322377   7.921   7.993   5.625
16764TPS    HA222378   1.479   1.403   5.771
16764TPS    CA222379   1.473   1.454   5.866
16764TPS    CA122380   1.456   1.384   5.987
16764TPS     Si22381   1.456   1.198   5.987
16764TPS    CA622382   1.456   1.456   6.108
16764TPS    HH622383   1.437   1.407   6.203
16764TPS    CA522384   1.479   1.595   6.109
16764TPS    HA522385   1.480   1.650   6.202
16764TPS    CA422386   1.499   1.663   5.988
16764TPS    HA422387   1.519   1.770   5.989
16764TPS    CA322388   1.493   1.593   5.867
16764TPS    HA322389   1.509   1.647   5.774
16765TPS    HA222390   4.346   1.490   8.297
16765TPS    CA222391   4.373   1.541   8.389
16765TPS    CA122392   4.398   1.471   8.508
16765TPS     Si22393   4.398   1.285   8.508
16765TPS    CA622394   4.439   1.543   8.622
16765TPS    HH622395   4.454   1.494   8.718
16765TPS    CA522396   4.462   1.682   8.615
16765TPS    HA522397   4.494   1.737   8.702
16765TPS    CA422398   4.439   1.750   8.494
16765TPS    HA422399   4.458   1.857   8.488
16765TPS    CA322400   4.392   1.680   8.382
16765TPS    HA322401   4.375   1.734   8.289
16766TPS    HA222402   6.154   8.269   3.543
16766TPS    CA222403   6.181   8.218   3.451
16766TPS    CA122404   6.206   8.288   3.332
16766TPS     Si22405   6.206   8.474   3.332
16766TPS    CA622406   6.247   8.216   3.218
16766TPS    HH622407   6.262   8.265   3.122
16766TPS    CA522408   6.270   8.077   3.225
16766TPS    HA522409   6.302   8.022   3.138
16766TPS    CA422410   6.247   8.009   3.346
16766TPS    HA422411   6.266   7.902   3.352
16766TPS    CA322412   6.200   8.079   3.458
16766TPS    HA322413   6.183   8.025   3.551
16767TPS    HA222414   0.615   8.066   1.466
16767TPS    CA222415   0.642   8.015   1.374
16767TPS    CA122416   0.667   8.085   1.255
16767TPS     Si22417   0.667   8.271   1.255
16767TPS    CA622418   0.708   8.013   1.141
16767TPS    HH622419   0.723   8.062   1.045
16767TPS    CA522420   0.731   7.874   1.148
16767TPS    HA522421   0.763   7.819   1.061
16767TPS    CA422422   0.708   7.806   1.269
16767TPS    HA422423   0.727   7.699   1.275
16767TPS    CA322424   0.661   7.876   1.381
16767TPS    HA322425   0.644   7.822   1.474
16768TPS    HA222426   1.927   8.066   0.221
16768TPS    CA222427   1.921   8.015   0.126
16768TPS    CA122428   1.904   8.085   0.005
16768TPS     Si22429   1.904   8.271   0.005
16768TPS    CA622430   1.904   8.013  -0.116
16768TPS    HH622431   1.885   8.062  -0.211
16768TPS    CA522432   1.927   7.874  -0.117
16768TPS    HA522433   1.928   7.819  -0.210
16768TPS    CA422434   1.947   7.806   0.004
16768TPS    HA422435   1.967   7.699   0.003
16768TPS    CA322436   1.941   7.876   0.125
16768TPS    HA322437   1.957   7.822   0.218
16769TPS    HA222438   2.141   8.292   2.638
16769TPS    CA222439   2.168   8.241   2.546
16769TPS    CA122440   2.193   8.311   2.427
16769TPS     Si22441   2.193   8.497   2.427
16769TPS    CA622442   2.234   8.239   2.313
16769TPS    HH622443   2.249   8.288   2.217
16769TPS    CA522444   2.257   8.100   2.320
16769TPS    HA522445   2.289   8.045   2.233
16769TPS    CA422446   2.234   8.032   2.441
16769TPS    HA422447   2.253   7.925   2.447
16769TPS    CA322448   2.187   8.102   2.553
16769TPS    HA322449   2.170   8.048   2.646
16770TPS    HA222450   2.042   8.122   0.677
16770TPS    CA222451   2.069   8.071   0.585
16770TPS    CA122452   2.094   8.141   0.466
16770TPS     Si22453   2.094   8.327   0.466
16770TPS    CA622454   2.135   8.069   0.352
16770TPS    HH622455   2.150   8.118   0.256
16770TPS    CA522456   2.158   7.930   0.359
16770TPS    HA522457   2.190   7.875   0.272
16770TPS    CA422458   2.135   7.862   0.480
16770TPS    HA422459   2.154   7.755   0.486
16770TPS    CA322460   2.088   7.932   0.592
16770TPS    HA322461   2.071   7.878   0.685
16771TPS    HA222462   2.334   8.065   3.003
16771TPS    CA222463   2.268   8.014   2.935
16771TPS    CA122464   2.177   8.084   2.853
16771TPS     Si22465   2.177   8.270   2.853
16771TPS    CA622466   2.099   8.012   2.760
16771TPS    HH622467   2.024   8.061   2.699
16771TPS    CA522468   2.116   7.873   2.745
16771TPS    HA522469   2.057   7.818   2.673
16771TPS    CA422470   2.209   7.805   2.824
16771TPS    HA422471   2.224   7.698   2.811
16771TPS    CA322472   2.283   7.875   2.921
16771TPS    HA322473   2.355   7.821   2.983
16772TPS    HA222474   2.940   1.582   9.042
16772TPS    CA222475   3.033   1.633   9.065
16772TPS    CA122476   3.149   1.563   9.103
16772TPS     Si22477   3.149   1.377   9.103
16772TPS    CA622478   3.268   1.635   9.125
16772TPS    HH622479   3.359   1.586   9.159
16772TPS    CA522480   3.273   1.774   9.101
16772TPS    HA522481   3.365   1.829   9.117
16772TPS    CA422482   3.158   1.842   9.061
16772TPS    HA422483   3.162   1.949   9.041
16772TPS    CA322484   3.037   1.772   9.045
16772TPS    HA322485   2.948   1.826   9.014
16773TPS    HA222486   3.126   1.150   2.594
16773TPS    CA222487   3.153   1.201   2.686
16773TPS    CA122488   3.178   1.131   2.805
16773TPS     Si22489   3.178   0.945   2.805
16773TPS    CA622490   3.219   1.203   2.919
16773TPS    HH622491   3.234   1.154   3.015
16773TPS    CA522492   3.242   1.342   2.912
16773TPS    HA522493   3.274   1.397   2.999
16773TPS    CA422494   3.219   1.410   2.791
16773TPS    HA422495   3.238   1.517   2.785
16773TPS    CA322496   3.172   1.340   2.679
16773TPS    HA322497   3.155   1.394   2.586
16774TPS    HA222498   6.291   1.404   4.834
16774TPS    CA222499   6.318   1.455   4.926
16774TPS    CA122500   6.343   1.385   5.045
16774TPS     Si22501   6.343   1.199   5.045
16774TPS    CA622502   6.384   1.457   5.159
16774TPS    HH622503   6.399   1.408   5.255
16774TPS    CA522504   6.407   1.596   5.152
16774TPS    HA522505   6.439   1.651   5.239
16774TPS    CA422506   6.384   1.664   5.031
16774TPS    HA422507   6.403   1.771   5.025
16774TPS    CA322508   6.337   1.594   4.919
16774TPS    HA322509   6.320   1.648   4.826
16775TPS    HA222510   2.914   8.168   8.878
16775TPS    CA222511   2.875   8.117   8.791
16775TPS    CA122512   2.818   8.187   8.683
16775TPS     Si22513   2.818   8.373   8.683
16775TPS    CA622514   2.776   8.115   8.569
16775TPS    HH622515   2.726   8.164   8.486
16775TPS    CA522516   2.798   7.976   8.561
16775TPS    HA522517   2.767   7.921   8.472
16775TPS    CA422518   2.858   7.908   8.667
16775TPS    HA422519   2.877   7.801   8.660
16775TPS    CA322520   2.894   7.978   8.783
16775TPS    HA322521   2.941   7.924   8.866
16776TPS    HA222522   7.143   8.159   0.229
16776TPS    CA222523   7.170   8.108   0.137
16776TPS    CA122524   7.195   8.178   0.018
16776TPS     Si22525   7.195   8.364   0.018
16776TPS    CA622526   7.236   8.106  -0.096
16776TPS    HH622527   7.251   8.155  -0.192
16776TPS    CA522528   7.259   7.967  -0.089
16776TPS    HA522529   7.291   7.912  -0.176
16776TPS    CA422530   7.236   7.899   0.032
16776TPS    HA422531   7.255   7.792   0.038
16776TPS    CA322532   7.189   7.969   0.144
16776TPS    HA322533   7.172   7.915   0.237
16777TPS    HA222534   4.138   1.529   6.925
16777TPS    CA222535   4.165   1.580   7.017
16777TPS    CA122536   4.190   1.510   7.136
16777TPS     Si22537   4.190   1.324   7.136
16777TPS    CA622538   4.231   1.582   7.250
16777TPS    HH622539   4.246   1.533   7.346
16777TPS    CA522540   4.254   1.721   7.243
16777TPS    HA522541   4.286   1.776   7.330
16777TPS    CA422542   4.231   1.789   7.122
16777TPS    HA422543   4.250   1.896   7.116
16777TPS    CA322544   4.184   1.719   7.010
16777TPS    HA322545   4.167   1.773   6.917
16778TPS    HA222546   5.304   8.068   0.757
16778TPS    CA222547   5.331   8.017   0.665
16778TPS    CA122548   5.356   8.087   0.546
16778TPS     Si22549   5.356   8.273   0.546
16778TPS    CA622550   5.397   8.015   0.432
16778TPS    HH622551   5.412   8.064   0.336
16778TPS    CA522552   5.420   7.876   0.439
16778TPS    HA522553   5.452   7.821   0.352
16778TPS    CA422554   5.397   7.808   0.560
16778TPS    HA422555   5.416   7.701   0.566
16778TPS    CA322556   5.350   7.878   0.672
16778TPS    HA322557   5.333   7.824   0.765
16779TPS    HA222558   0.781   1.371   3.292
16779TPS    CA222559   0.808   1.422   3.384
16779TPS    CA122560   0.833   1.352   3.503
16779TPS     Si22561   0.833   1.166   3.503
16779TPS    CA622562   0.874   1.424   3.617
16779TPS    HH622563   0.889   1.375   3.713
16779TPS    CA522564   0.897   1.563   3.610
16779TPS    HA522565   0.929   1.618   3.697
16779TPS    CA422566   0.874   1.631   3.489
16779TPS    HA422567   0.893   1.738   3.483
16779TPS    CA322568   0.827   1.561   3.377
16779TPS    HA322569   0.810   1.615   3.284
16780TPS    HA222570   5.205   1.491   3.910
16780TPS    CA222571   5.199   1.542   4.005
16780TPS    CA122572   5.182   1.472   4.126
16780TPS     Si22573   5.182   1.286   4.126
16780TPS    CA622574   5.182   1.544   4.247
16780TPS    HH622575   5.163   1.495   4.342
16780TPS    CA522576   5.205   1.683   4.248
16780TPS    HA522577   5.206   1.738   4.341
16780TPS    CA422578   5.225   1.751   4.127
16780TPS    HA422579   5.245   1.858   4.128
16780TPS    CA322580   5.219   1.681   4.006
16780TPS    HA322581   5.235   1.735   3.913
16781TPS    HA222582   4.242   8.189   9.196
16781TPS    CA222583   4.269   8.138   9.104
16781TPS    CA122584   4.294   8.208   8.985
16781TPS     Si22585   4.294   8.394   8.985
16781TPS    CA622586   4.335   8.136   8.871
16781TPS    HH622587   4.350   8.185   8.775
16781TPS    CA522588   4.358   7.997   8.878
16781TPS    HA522589   4.390   7.942   8.791
16781TPS    CA422590   4.335   7.929   8.999
16781TPS    HA422591   4.354   7.822   9.005
16781TPS    CA322592   4.288   7.999   9.111
16781TPS    HA322593   4.271   7.945   9.204
16782TPS    HA222594   4.985   1.388   2.632
16782TPS    CA222595   5.012   1.439   2.724
16782TPS    CA122596   5.037   1.369   2.843
16782TPS     Si22597   5.037   1.183   2.843
16782TPS    CA622598   5.078   1.441   2.957
16782TPS    HH622599   5.093   1.392   3.053
16782TPS    CA522600   5.101   1.580   2.950
16782TPS    HA522601   5.133   1.635   3.037
16782TPS    CA422602   5.078   1.648   2.829
16782TPS    HA422603   5.097   1.755   2.823
16782TPS    CA322604   5.031   1.578   2.717
16782TPS    HA322605   5.014   1.632   2.624
16783TPS    HA222606   2.897   8.165   7.877
16783TPS    CA222607   2.870   8.114   7.969
16783TPS    CA122608   2.845   8.184   8.088
16783TPS     Si22609   2.845   8.370   8.088
16783TPS    CA622610   2.804   8.112   8.202
16783TPS    HH622611   2.789   8.161   8.298
16783TPS    CA522612   2.781   7.973   8.195
16783TPS    HA522613   2.749   7.918   8.282
16783TPS    CA422614   2.804   7.905   8.074
16783TPS    HA422615   2.785   7.798   8.068
16783TPS    CA322616   2.851   7.975   7.962
16783TPS    HA322617   2.868   7.921   7.869
16784TPS    HA222618   3.204   1.527   6.812
16784TPS    CA222619   3.231   1.578   6.904
16784TPS    CA122620   3.256   1.508   7.023
16784TPS     Si22621   3.256   1.322   7.023
16784TPS    CA622622   3.297   1.580   7.137
16784TPS    HH622623   3.312   1.531   7.233
16784TPS    CA522624   3.320   1.719   7.130
16784TPS    HA522625   3.352   1.774   7.217
16784TPS    CA422626   3.297   1.787   7.009
16784TPS    HA422627   3.316   1.894   7.003
16784TPS    CA322628   3.250   1.717   6.897
16784TPS    HA322629   3.233   1.771   6.804
16785TPS    HA222630   8.613   1.496   5.703
16785TPS    CA222631   8.640   1.547   5.795
16785TPS    CA122632   8.665   1.477   5.914
16785TPS     Si22633   8.665   1.291   5.914
16785TPS    CA622634   8.706   1.549   6.028
16785TPS    HH622635   8.721   1.500   6.124
16785TPS    CA522636   8.729   1.688   6.021
16785TPS    HA522637   8.761   1.743   6.108
16785TPS    CA422638   8.706   1.756   5.900
16785TPS    HA422639   8.725   1.863   5.894
16785TPS    CA322640   8.659   1.686   5.788
16785TPS    HA322641   8.642   1.740   5.695
16786TPS    HA222642   9.108   8.147   5.845
16786TPS    CA222643   9.135   8.096   5.753
16786TPS    CA122644   9.160   8.166   5.634
16786TPS     Si22645   9.160   8.352   5.634
16786TPS    CA622646   9.201   8.094   5.520
16786TPS    HH622647   9.216   8.143   5.424
16786TPS    CA522648   9.224   7.955   5.527
16786TPS    HA522649   9.256   7.900   5.440
16786TPS    CA422650   9.201   7.887   5.648
16786TPS    HA422651   9.220   7.780   5.654
16786TPS    CA322652   9.154   7.957   5.760
16786TPS    HA322653   9.137   7.903   5.853
16787TPS    HA222654   5.035   8.033   8.743
16787TPS    CA222655   5.029   7.982   8.648
16787TPS    CA122656   5.012   8.052   8.527
16787TPS     Si22657   5.012   8.238   8.527
16787TPS    CA622658   5.012   7.980   8.406
16787TPS    HH622659   4.993   8.029   8.311
16787TPS    CA522660   5.035   7.841   8.405
16787TPS    HA522661   5.036   7.786   8.312
16787TPS    CA422662   5.055   7.773   8.526
16787TPS    HA422663   5.075   7.666   8.525
16787TPS    CA322664   5.049   7.843   8.647
16787TPS    HA322665   5.065   7.789   8.740
16788TPS    HA222666   5.289   1.501   3.384
16788TPS    CA222667   5.250   1.552   3.471
16788TPS    CA122668   5.193   1.482   3.579
16788TPS     Si22669   5.193   1.296   3.579
16788TPS    CA622670   5.151   1.554   3.693
16788TPS    HH622671   5.101   1.505   3.776
16788TPS    CA522672   5.173   1.693   3.701
16788TPS    HA522673   5.142   1.748   3.790
16788TPS    CA422674   5.233   1.761   3.595
16788TPS    HA422675   5.252   1.868   3.602
16788TPS    CA322676   5.269   1.691   3.479
16788TPS    HA322677   5.316   1.745   3.396
16789TPS    HA222678   8.611   8.036   7.153
16789TPS    CA222679   8.638   7.985   7.061
16789TPS    CA122680   8.663   8.055   6.942
16789TPS     Si22681   8.663   8.241   6.942
16789TPS    CA622682   8.704   7.983   6.828
16789TPS    HH622683   8.719   8.032   6.732
16789TPS    CA522684   8.727   7.844   6.835
16789TPS    HA522685   8.759   7.789   6.748
16789TPS    CA422686   8.704   7.776   6.956
16789TPS    HA422687   8.723   7.669   6.962
16789TPS    CA322688   8.657   7.846   7.068
16789TPS    HA322689   8.640   7.792   7.161
16790TPS    HA222690   6.813   8.236   1.368
16790TPS    CA222691   6.840   8.185   1.276
16790TPS    CA122692   6.865   8.255   1.157
16790TPS     Si22693   6.865   8.441   1.157
16790TPS    CA622694   6.906   8.183   1.043
16790TPS    HH622695   6.921   8.232   0.947
16790TPS    CA522696   6.929   8.044   1.050
16790TPS    HA522697   6.961   7.989   0.963
16790TPS    CA422698   6.906   7.976   1.171
16790TPS    HA422699   6.925   7.869   1.177
16790TPS    CA322700   6.859   8.046   1.283
16790TPS    HA322701   6.842   7.992   1.376
16791TPS    HA222702   8.173   8.030   7.251
16791TPS    CA222703   8.200   7.979   7.159
16791TPS    CA122704   8.225   8.049   7.040
16791TPS     Si22705   8.225   8.235   7.040
16791TPS    CA622706   8.266   7.977   6.926
16791TPS    HH622707   8.281   8.026   6.830
16791TPS    CA522708   8.289   7.838   6.933
16791TPS    HA522709   8.321   7.783   6.846
16791TPS    CA422710   8.266   7.770   7.054
16791TPS    HA422711   8.285   7.663   7.060
16791TPS    CA322712   8.219   7.840   7.166
16791TPS    HA322713   8.202   7.786   7.259
16792TPS    HA222714   8.386   8.081   7.919
16792TPS    CA222715   8.413   8.030   7.827
16792TPS    CA122716   8.438   8.100   7.708
16792TPS     Si22717   8.438   8.286   7.708
16792TPS    CA622718   8.479   8.028   7.594
16792TPS    HH622719   8.494   8.077   7.498
16792TPS    CA522720   8.502   7.889   7.601
16792TPS    HA522721   8.534   7.834   7.514
16792TPS    CA422722   8.479   7.821   7.722
16792TPS    HA422723   8.498   7.714   7.728
16792TPS    CA322724   8.432   7.891   7.834
16792TPS    HA322725   8.415   7.837   7.927
16793TPS    HA222726   8.431   1.588   8.857
16793TPS    CA222727   8.458   1.639   8.949
16793TPS    CA122728   8.483   1.569   9.068
16793TPS     Si22729   8.483   1.383   9.068
16793TPS    CA622730   8.524   1.641   9.182
16793TPS    HH622731   8.539   1.592   9.278
16793TPS    CA522732   8.547   1.780   9.175
16793TPS    HA522733   8.579   1.835   9.262
16793TPS    CA422734   8.524   1.848   9.054
16793TPS    HA422735   8.543   1.955   9.048
16793TPS    CA322736   8.477   1.778   8.942
16793TPS    HA322737   8.460   1.832   8.849
16794TPS    HA222738   2.819   1.425   5.783
16794TPS    CA222739   2.780   1.476   5.870
16794TPS    CA122740   2.723   1.406   5.978
16794TPS     Si22741   2.723   1.220   5.978
16794TPS    CA622742   2.681   1.478   6.092
16794TPS    HH622743   2.631   1.429   6.175
16794TPS    CA522744   2.703   1.617   6.100
16794TPS    HA522745   2.672   1.672   6.189
16794TPS    CA422746   2.763   1.685   5.994
16794TPS    HA422747   2.782   1.792   6.001
16794TPS    CA322748   2.799   1.615   5.878
16794TPS    HA322749   2.846   1.669   5.795
16795TPS    HA222750   4.082   8.031   1.055
16795TPS    CA222751   4.109   7.980   0.963
16795TPS    CA122752   4.134   8.050   0.844
16795TPS     Si22753   4.134   8.236   0.844
16795TPS    CA622754   4.175   7.978   0.730
16795TPS    HH622755   4.190   8.027   0.634
16795TPS    CA522756   4.198   7.839   0.737
16795TPS    HA522757   4.230   7.784   0.650
16795TPS    CA422758   4.175   7.771   0.858
16795TPS    HA422759   4.194   7.664   0.864
16795TPS    CA322760   4.128   7.841   0.970
16795TPS    HA322761   4.111   7.787   1.063
16796TPS    HA222762   2.438   1.586   3.253
16796TPS    CA222763   2.465   1.637   3.345
16796TPS    CA122764   2.490   1.567   3.464
16796TPS     Si22765   2.490   1.381   3.464
16796TPS    CA622766   2.531   1.639   3.578
16796TPS    HH622767   2.546   1.590   3.674
16796TPS    CA522768   2.554   1.778   3.571
16796TPS    HA522769   2.586   1.833   3.658
16796TPS    CA422770   2.531   1.846   3.450
16796TPS    HA422771   2.550   1.953   3.444
16796TPS    CA322772   2.484   1.776   3.338
16796TPS    HA322773   2.467   1.830   3.245
16797TPS    HA222774   6.405   8.162   5.736
16797TPS    CA222775   6.312   8.111   5.759
16797TPS    CA122776   6.196   8.181   5.797
16797TPS     Si22777   6.196   8.367   5.797
16797TPS    CA622778   6.077   8.109   5.819
16797TPS    HH622779   5.986   8.158   5.853
16797TPS    CA522780   6.072   7.970   5.795
16797TPS    HA522781   5.980   7.915   5.811
16797TPS    CA422782   6.187   7.902   5.755
16797TPS    HA422783   6.183   7.795   5.735
16797TPS    CA322784   6.308   7.972   5.739
16797TPS    HA322785   6.397   7.918   5.708
16798TPS    HA222786   5.906   8.049   1.037
16798TPS    CA222787   5.900   7.998   0.942
16798TPS    CA122788   5.883   8.068   0.821
16798TPS     Si22789   5.883   8.254   0.821
16798TPS    CA622790   5.883   7.996   0.700
16798TPS    HH622791   5.864   8.045   0.605
16798TPS    CA522792   5.906   7.857   0.699
16798TPS    HA522793   5.907   7.802   0.606
16798TPS    CA422794   5.926   7.789   0.820
16798TPS    HA422795   5.946   7.682   0.819
16798TPS    CA322796   5.920   7.859   0.941
16798TPS    HA322797   5.936   7.805   1.034
16799TPS    HA222798   2.512   8.138   0.651
16799TPS    CA222799   2.539   8.087   0.559
16799TPS    CA122800   2.564   8.157   0.440
16799TPS     Si22801   2.564   8.343   0.440
16799TPS    CA622802   2.605   8.085   0.326
16799TPS    HH622803   2.620   8.134   0.230
16799TPS    CA522804   2.628   7.946   0.333
16799TPS    HA522805   2.660   7.891   0.246
16799TPS    CA422806   2.605   7.878   0.454
16799TPS    HA422807   2.624   7.771   0.460
16799TPS    CA322808   2.558   7.948   0.566
16799TPS    HA322809   2.541   7.894   0.659
16800TPS    HA222810   5.228   7.997   7.151
16800TPS    CA222811   5.255   7.946   7.059
16800TPS    CA122812   5.280   8.016   6.940
16800TPS     Si22813   5.280   8.202   6.940
16800TPS    CA622814   5.321   7.944   6.826
16800TPS    HH622815   5.336   7.993   6.730
16800TPS    CA522816   5.344   7.805   6.833
16800TPS    HA522817   5.376   7.750   6.746
16800TPS    CA422818   5.321   7.737   6.954
16800TPS    HA422819   5.340   7.630   6.960
16800TPS    CA322820   5.274   7.807   7.066
16800TPS    HA322821   5.257   7.753   7.159
16801TPS    HA222822   4.674   1.548   7.026
16801TPS    CA222823   4.701   1.599   7.118
16801TPS    CA122824   4.726   1.529   7.237
16801TPS     Si22825   4.726   1.343   7.237
16801TPS    CA622826   4.767   1.601   7.351
16801TPS    HH622827   4.782   1.552   7.447
16801TPS    CA522828   4.790   1.740   7.344
16801TPS    HA522829   4.822   1.795   7.431
16801TPS    CA422830   4.767   1.808   7.223
16801TPS    HA422831   4.786   1.915   7.217
16801TPS    CA322832   4.720   1.738   7.111
16801TPS    HA322833   4.703   1.792   7.018
16802TPS    HA222834   5.578   7.984   5.613
16802TPS    CA222835   5.605   7.933   5.521
16802TPS    CA122836   5.630   8.003   5.402
16802TPS     Si22837   5.630   8.189   5.402
16802TPS    CA622838   5.671   7.931   5.288
16802TPS    HH622839   5.686   7.980   5.192
16802TPS    CA522840   5.694   7.792   5.295
16802TPS    HA522841   5.726   7.737   5.208
16802TPS    CA422842   5.671   7.724   5.416
16802TPS    HA422843   5.690   7.617   5.422
16802TPS    CA322844   5.624   7.794   5.528
16802TPS    HA322845   5.607   7.740   5.621
16803TPS    HA222846   5.309   8.114   8.248
16803TPS    CA222847   5.336   8.063   8.156
16803TPS    CA122848   5.361   8.133   8.037
16803TPS     Si22849   5.361   8.319   8.037
16803TPS    CA622850   5.402   8.061   7.923
16803TPS    HH622851   5.417   8.110   7.827
16803TPS    CA522852   5.425   7.922   7.930
16803TPS    HA522853   5.457   7.867   7.843
16803TPS    CA422854   5.402   7.854   8.051
16803TPS    HA422855   5.421   7.747   8.057
16803TPS    CA322856   5.355   7.924   8.163
16803TPS    HA322857   5.338   7.870   8.256
16804TPS    HA222858   1.332   1.434   8.535
16804TPS    CA222859   1.338   1.485   8.440
16804TPS    CA122860   1.355   1.415   8.319
16804TPS     Si22861   1.355   1.229   8.319
16804TPS    CA622862   1.355   1.487   8.198
16804TPS    HH622863   1.374   1.438   8.103
16804TPS    CA522864   1.332   1.626   8.197
16804TPS    HA522865   1.331   1.681   8.104
16804TPS    CA422866   1.312   1.694   8.318
16804TPS    HA422867   1.292   1.801   8.317
16804TPS    CA322868   1.318   1.624   8.439
16804TPS    HA322869   1.302   1.678   8.532
16805TPS    HA222870   1.193   1.342   9.131
16805TPS    CA222871   1.220   1.393   9.223
16805TPS    CA122872   1.245   1.323   9.342
16805TPS     Si22873   1.245   1.137   9.342
16805TPS    CA622874   1.286   1.395   9.456
16805TPS    HH622875   1.301   1.346   9.552
16805TPS    CA522876   1.309   1.534   9.449
16805TPS    HA522877   1.341   1.589   9.536
16805TPS    CA422878   1.286   1.602   9.328
16805TPS    HA422879   1.305   1.709   9.322
16805TPS    CA322880   1.239   1.532   9.216
16805TPS    HA322881   1.222   1.586   9.123
16806TPS    HA222882   6.824   8.232   4.948
16806TPS    CA222883   6.851   8.181   4.856
16806TPS    CA122884   6.876   8.251   4.737
16806TPS     Si22885   6.876   8.437   4.737
16806TPS    CA622886   6.917   8.179   4.623
16806TPS    HH622887   6.932   8.228   4.527
16806TPS    CA522888   6.940   8.040   4.630
16806TPS    HA522889   6.972   7.985   4.543
16806TPS    CA422890   6.917   7.972   4.751
16806TPS    HA422891   6.936   7.865   4.757
16806TPS    CA322892   6.870   8.042   4.863
16806TPS    HA322893   6.853   7.988   4.956
16807TPS    HA222894   0.218   1.549   3.094
16807TPS    CA222895   0.313   1.600   3.083
16807TPS    CA122896   0.435   1.530   3.079
16807TPS     Si22897   0.435   1.344   3.079
16807TPS    CA622898   0.555   1.602   3.058
16807TPS    HH622899   0.651   1.553   3.060
16807TPS    CA522900   0.551   1.741   3.035
16807TPS    HA522901   0.643   1.796   3.018
16807TPS    CA422902   0.429   1.809   3.036
16807TPS    HA422903   0.426   1.916   3.016
16807TPS    CA322904   0.310   1.739   3.063
16807TPS    HA322905   0.216   1.793   3.064
16808TPS    HA222906   4.110   1.398   5.777
16808TPS    CA222907   4.137   1.449   5.869
16808TPS    CA122908   4.162   1.379   5.988
16808TPS     Si22909   4.162   1.193   5.988
16808TPS    CA622910   4.203   1.451   6.102
16808TPS    HH622911   4.218   1.402   6.198
16808TPS    CA522912   4.226   1.590   6.095
16808TPS    HA522913   4.258   1.645   6.182
16808TPS    CA422914   4.203   1.658   5.974
16808TPS    HA422915   4.222   1.765   5.968
16808TPS    CA322916   4.156   1.588   5.862
16808TPS    HA322917   4.139   1.642   5.769
16809TPS    HA222918   5.128   1.476   8.712
16809TPS    CA222919   5.089   1.527   8.799
16809TPS    CA122920   5.032   1.457   8.907
16809TPS     Si22921   5.032   1.271   8.907
16809TPS    CA622922   4.990   1.529   9.021
16809TPS    HH622923   4.940   1.480   9.104
16809TPS    CA522924   5.012   1.668   9.029
16809TPS    HA522925   4.981   1.723   9.118
16809TPS    CA422926   5.072   1.736   8.923
16809TPS    HA422927   5.091   1.843   8.930
16809TPS    CA322928   5.108   1.666   8.807
16809TPS    HA322929   5.155   1.720   8.724
16810TPS    HA222930   4.040   8.001   7.056
16810TPS    CA222931   4.119   7.950   7.003
16810TPS    CA122932   4.215   8.020   6.928
16810TPS     Si22933   4.215   8.206   6.928
16810TPS    CA622934   4.320   7.948   6.867
16810TPS    HH622935   4.393   7.997   6.804
16810TPS    CA522936   4.332   7.809   6.887
16810TPS    HA522937   4.413   7.754   6.841
16810TPS    CA422938   4.238   7.741   6.965
16810TPS    HA422939   4.248   7.634   6.982
16810TPS    CA322940   4.129   7.811   7.021
16810TPS    HA322941   4.057   7.757   7.081
16811TPS    HA222942   1.055   8.255   5.599
16811TPS    CA222943   0.962   8.204   5.622
16811TPS    CA122944   0.846   8.274   5.660
16811TPS     Si22945   0.846   8.460   5.660
16811TPS    CA622946   0.727   8.202   5.682
16811TPS    HH622947   0.636   8.251   5.716
16811TPS    CA522948   0.722   8.063   5.658
16811TPS    HA522949   0.630   8.008   5.674
16811TPS    CA422950   0.837   7.995   5.618
16811TPS    HA422951   0.833   7.888   5.598
16811TPS    CA322952   0.958   8.065   5.602
16811TPS    HA322953   1.047   8.011   5.571
16812TPS    HA222954   0.978   8.170   5.408
16812TPS    CA222955   1.005   8.119   5.316
16812TPS    CA122956   1.030   8.189   5.197
16812TPS     Si22957   1.030   8.375   5.197
16812TPS    CA622958   1.071   8.117   5.083
16812TPS    HH622959   1.086   8.166   4.987
16812TPS    CA522960   1.094   7.978   5.090
16812TPS    HA522961   1.126   7.923   5.003
16812TPS    CA422962   1.071   7.910   5.211
16812TPS    HA422963   1.090   7.803   5.217
16812TPS    CA322964   1.024   7.980   5.323
16812TPS    HA322965   1.007   7.926   5.416
16813TPS    HA222966   5.536   1.499   4.797
16813TPS    CA222967   5.563   1.550   4.889
16813TPS    CA122968   5.588   1.480   5.008
16813TPS     Si22969   5.588   1.294   5.008
16813TPS    CA622970   5.629   1.552   5.122
16813TPS    HH622971   5.644   1.503   5.218
16813TPS    CA522972   5.652   1.691   5.115
16813TPS    HA522973   5.684   1.746   5.202
16813TPS    CA422974   5.629   1.759   4.994
16813TPS    HA422975   5.648   1.866   4.988
16813TPS    CA322976   5.582   1.689   4.882
16813TPS    HA322977   5.565   1.743   4.789
16814TPS    HA222978   0.568   1.539   7.177
16814TPS    CA222979   0.595   1.590   7.269
16814TPS    CA122980   0.620   1.520   7.388
16814TPS     Si22981   0.620   1.334   7.388
16814TPS    CA622982   0.661   1.592   7.502
16814TPS    HH622983   0.676   1.543   7.598
16814TPS    CA522984   0.684   1.731   7.495
16814TPS    HA522985   0.716   1.786   7.582
16814TPS    CA422986   0.661   1.799   7.374
16814TPS    HA422987   0.680   1.906   7.368
16814TPS    CA322988   0.614   1.729   7.262
16814TPS    HA322989   0.597   1.783   7.169
16815TPS    HA222990   3.183   1.564   5.555
16815TPS    CA222991   3.210   1.615   5.647
16815TPS    CA122992   3.235   1.545   5.766
16815TPS     Si22993   3.235   1.359   5.766
16815TPS    CA622994   3.276   1.617   5.880
16815TPS    HH622995   3.291   1.568   5.976
16815TPS    CA522996   3.299   1.756   5.873
16815TPS    HA522997   3.331   1.811   5.960
16815TPS    CA422998   3.276   1.824   5.752
16815TPS    HA422999   3.295   1.931   5.746
16815TPS    CA323000   3.229   1.754   5.640
16815TPS    HA323001   3.212   1.808   5.547
16816TPS    HA223002   6.986   8.016   5.771
16816TPS    CA223003   7.013   7.965   5.679
16816TPS    CA123004   7.038   8.035   5.560
16816TPS     Si23005   7.038   8.221   5.560
16816TPS    CA623006   7.079   7.963   5.446
16816TPS    HH623007   7.094   8.012   5.350
16816TPS    CA523008   7.102   7.824   5.453
16816TPS    HA523009   7.134   7.769   5.366
16816TPS    CA423010   7.079   7.756   5.574
16816TPS    HA423011   7.098   7.649   5.580
16816TPS    CA323012   7.032   7.826   5.686
16816TPS    HA323013   7.015   7.772   5.779
16817TPS    HA223014   4.400   1.414   2.557
16817TPS    CA223015   4.427   1.465   2.649
16817TPS    CA123016   4.452   1.395   2.768
16817TPS     Si23017   4.452   1.209   2.768
16817TPS    CA623018   4.493   1.467   2.882
16817TPS    HH623019   4.508   1.418   2.978
16817TPS    CA523020   4.516   1.606   2.875
16817TPS    HA523021   4.548   1.661   2.962
16817TPS    CA423022   4.493   1.674   2.754
16817TPS    HA423023   4.512   1.781   2.748
16817TPS    CA323024   4.446   1.604   2.642
16817TPS    HA323025   4.429   1.658   2.549
16818TPS    HA223026   0.784   8.123   8.489
16818TPS    CA223027   0.877   8.072   8.466
16818TPS    CA123028   0.993   8.142   8.428
16818TPS     Si23029   0.993   8.328   8.428
16818TPS    CA623030   1.112   8.070   8.406
16818TPS    HH623031   1.203   8.119   8.372
16818TPS    CA523032   1.117   7.931   8.430
16818TPS    HA523033   1.209   7.876   8.414
16818TPS    CA423034   1.002   7.863   8.470
16818TPS    HA423035   1.006   7.756   8.490
16818TPS    CA323036   0.881   7.933   8.486
16818TPS    HA323037   0.792   7.879   8.517
16819TPS    HA223038   4.609   1.475   0.001
16819TPS    CA223039   4.636   1.526   0.093
16819TPS    CA123040   4.661   1.456   0.212
16819TPS     Si23041   4.661   1.270   0.212
16819TPS    CA623042   4.702   1.528   0.326
16819TPS    HH623043   4.717   1.479   0.422
16819TPS    CA523044   4.725   1.667   0.319
16819TPS    HA523045   4.757   1.722   0.406
16819TPS    CA423046   4.702   1.735   0.198
16819TPS    HA423047   4.721   1.842   0.192
16819TPS    CA323048   4.655   1.665   0.086
16819TPS    HA323049   4.638   1.719  -0.007
16820TPS    HA223050   3.556   1.331   5.177
16820TPS    CA223051   3.583   1.382   5.269
16820TPS    CA123052   3.608   1.312   5.388
16820TPS     Si23053   3.608   1.126   5.388
16820TPS    CA623054   3.649   1.384   5.502
16820TPS    HH623055   3.664   1.335   5.598
16820TPS    CA523056   3.672   1.523   5.495
16820TPS    HA523057   3.704   1.578   5.582
16820TPS    CA423058   3.649   1.591   5.374
16820TPS    HA423059   3.668   1.698   5.368
16820TPS    CA323060   3.602   1.521   5.262
16820TPS    HA323061   3.585   1.575   5.169
16821TPS    HA223062   0.109   8.152   3.041
16821TPS    CA223063   0.204   8.101   3.052
16821TPS    CA123064   0.326   8.171   3.056
16821TPS     Si23065   0.326   8.357   3.056
16821TPS    CA623066   0.446   8.099   3.077
16821TPS    HH623067   0.542   8.148   3.075
16821TPS    CA523068   0.442   7.960   3.100
16821TPS    HA523069   0.534   7.905   3.117
16821TPS    CA423070   0.320   7.892   3.099
16821TPS    HA423071   0.317   7.785   3.119
16821TPS    CA323072   0.201   7.962   3.072
16821TPS    HA323073   0.107   7.908   3.071
16822TPS    HA223074   8.018   8.163   5.052
16822TPS    CA223075   8.045   8.112   4.960
16822TPS    CA123076   8.070   8.182   4.841
16822TPS     Si23077   8.070   8.368   4.841
16822TPS    CA623078   8.111   8.110   4.727
16822TPS    HH623079   8.126   8.159   4.631
16822TPS    CA523080   8.134   7.971   4.734
16822TPS    HA523081   8.166   7.916   4.647
16822TPS    CA423082   8.111   7.903   4.855
16822TPS    HA423083   8.130   7.796   4.861
16822TPS    CA323084   8.064   7.973   4.967
16822TPS    HA323085   8.047   7.919   5.060
16823TPS    HA223086   6.950   1.608   2.933
16823TPS    CA223087   6.911   1.659   3.020
16823TPS    CA123088   6.854   1.589   3.128
16823TPS     Si23089   6.854   1.403   3.128
16823TPS    CA623090   6.812   1.661   3.242
16823TPS    HH623091   6.762   1.612   3.325
16823TPS    CA523092   6.834   1.800   3.250
16823TPS    HA523093   6.803   1.855   3.339
16823TPS    CA423094   6.894   1.868   3.144
16823TPS    HA423095   6.913   1.975   3.151
16823TPS    CA323096   6.930   1.798   3.028
16823TPS    HA323097   6.977   1.852   2.945
16824TPS    HA223098   4.219   1.436   8.059
16824TPS    CA223099   4.213   1.487   8.154
16824TPS    CA123100   4.196   1.417   8.275
16824TPS     Si23101   4.196   1.231   8.275
16824TPS    CA623102   4.196   1.489   8.396
16824TPS    HH623103   4.177   1.440   8.491
16824TPS    CA523104   4.219   1.628   8.397
16824TPS    HA523105   4.220   1.683   8.490
16824TPS    CA423106   4.239   1.696   8.276
16824TPS    HA423107   4.259   1.803   8.277
16824TPS    CA323108   4.233   1.626   8.155
16824TPS    HA323109   4.249   1.680   8.062
16825TPS    HA223110  -0.008   8.122   9.212
16825TPS    CA223111   0.019   8.071   9.120
16825TPS    CA123112   0.044   8.141   9.001
16825TPS     Si23113   0.044   8.327   9.001
16825TPS    CA623114   0.085   8.069   8.887
16825TPS    HH623115   0.100   8.118   8.791
16825TPS    CA523116   0.108   7.930   8.894
16825TPS    HA523117   0.140   7.875   8.807
16825TPS    CA423118   0.085   7.862   9.015
16825TPS    HA423119   0.104   7.755   9.021
16825TPS    CA323120   0.038   7.932   9.127
16825TPS    HA323121   0.021   7.878   9.220
16826TPS    HA223122   6.103   1.519   0.769
16826TPS    CA223123   6.130   1.570   0.861
16826TPS    CA123124   6.155   1.500   0.980
16826TPS     Si23125   6.155   1.314   0.980
16826TPS    CA623126   6.196   1.572   1.094
16826TPS    HH623127   6.211   1.523   1.190
16826TPS    CA523128   6.219   1.711   1.087
16826TPS    HA523129   6.251   1.766   1.174
16826TPS    CA423130   6.196   1.779   0.966
16826TPS    HA423131   6.215   1.886   0.960
16826TPS    CA323132   6.149   1.709   0.854
16826TPS    HA323133   6.132   1.763   0.761
16827TPS    HA223134   0.529   8.161   3.846
16827TPS    CA223135   0.490   8.110   3.759
16827TPS    CA123136   0.433   8.180   3.651
16827TPS     Si23137   0.433   8.366   3.651
16827TPS    CA623138   0.391   8.108   3.537
16827TPS    HH623139   0.341   8.157   3.454
16827TPS    CA523140   0.413   7.969   3.529
16827TPS    HA523141   0.382   7.914   3.440
16827TPS    CA423142   0.473   7.901   3.635
16827TPS    HA423143   0.492   7.794   3.628
16827TPS    CA323144   0.509   7.971   3.751
16827TPS    HA323145   0.556   7.917   3.834
16828TPS    HA223146   0.212   1.599   4.225
16828TPS    CA223147   0.239   1.650   4.317
16828TPS    CA123148   0.264   1.580   4.436
16828TPS     Si23149   0.264   1.394   4.436
16828TPS    CA623150   0.305   1.652   4.550
16828TPS    HH623151   0.320   1.603   4.646
16828TPS    CA523152   0.328   1.791   4.543
16828TPS    HA523153   0.360   1.846   4.630
16828TPS    CA423154   0.305   1.859   4.422
16828TPS    HA423155   0.324   1.966   4.416
16828TPS    CA323156   0.258   1.789   4.310
16828TPS    HA323157   0.241   1.843   4.217
16829TPS    HA223158   2.317   1.319   4.644
16829TPS    CA223159   2.344   1.370   4.736
16829TPS    CA123160   2.369   1.300   4.855
16829TPS     Si23161   2.369   1.114   4.855
16829TPS    CA623162   2.410   1.372   4.969
16829TPS    HH623163   2.425   1.323   5.065
16829TPS    CA523164   2.433   1.511   4.962
16829TPS    HA523165   2.465   1.566   5.049
16829TPS    CA423166   2.410   1.579   4.841
16829TPS    HA423167   2.429   1.686   4.835
16829TPS    CA323168   2.363   1.509   4.729
16829TPS    HA323169   2.346   1.563   4.636
16830TPS    HA223170   7.753   1.565   3.273
16830TPS    CA223171   7.747   1.616   3.368
16830TPS    CA123172   7.730   1.546   3.489
16830TPS     Si23173   7.730   1.360   3.489
16830TPS    CA623174   7.730   1.618   3.610
16830TPS    HH623175   7.711   1.569   3.705
16830TPS    CA523176   7.753   1.757   3.611
16830TPS    HA523177   7.754   1.812   3.704
16830TPS    CA423178   7.773   1.825   3.490
16830TPS    HA423179   7.793   1.932   3.491
16830TPS    CA323180   7.767   1.755   3.369
16830TPS    HA323181   7.783   1.809   3.276
16831TPS    HA223182   2.835   1.563   1.857
16831TPS    CA223183   2.862   1.614   1.949
16831TPS    CA123184   2.887   1.544   2.068
16831TPS     Si23185   2.887   1.358   2.068
16831TPS    CA623186   2.928   1.616   2.182
16831TPS    HH623187   2.943   1.567   2.278
16831TPS    CA523188   2.951   1.755   2.175
16831TPS    HA523189   2.983   1.810   2.262
16831TPS    CA423190   2.928   1.823   2.054
16831TPS    HA423191   2.947   1.930   2.048
16831TPS    CA323192   2.881   1.753   1.942
16831TPS    HA323193   2.864   1.807   1.849
16832TPS    HA223194   0.307   1.484   7.116
16832TPS    CA223195   0.402   1.535   7.105
16832TPS    CA123196   0.524   1.465   7.101
16832TPS     Si23197   0.524   1.279   7.101
16832TPS    CA623198   0.644   1.537   7.080
16832TPS    HH623199   0.740   1.488   7.082
16832TPS    CA523200   0.640   1.676   7.057
16832TPS    HA523201   0.732   1.731   7.040
16832TPS    CA423202   0.518   1.744   7.058
16832TPS    HA423203   0.515   1.851   7.038
16832TPS    CA323204   0.399   1.674   7.085
16832TPS    HA323205   0.305   1.728   7.086
16833TPS    HA223206   7.676   1.426   4.270
16833TPS    CA223207   7.703   1.477   4.362
16833TPS    CA123208   7.728   1.407   4.481
16833TPS     Si23209   7.728   1.221   4.481
16833TPS    CA623210   7.769   1.479   4.595
16833TPS    HH623211   7.784   1.430   4.691
16833TPS    CA523212   7.792   1.618   4.588
16833TPS    HA523213   7.824   1.673   4.675
16833TPS    CA423214   7.769   1.686   4.467
16833TPS    HA423215   7.788   1.793   4.461
16833TPS    CA323216   7.722   1.616   4.355
16833TPS    HA323217   7.705   1.670   4.262
16834TPS    HA223218   0.711   1.606   8.455
16834TPS    CA223219   0.738   1.657   8.547
16834TPS    CA123220   0.763   1.587   8.666
16834TPS     Si23221   0.763   1.401   8.666
16834TPS    CA623222   0.804   1.659   8.780
16834TPS    HH623223   0.819   1.610   8.876
16834TPS    CA523224   0.827   1.798   8.773
16834TPS    HA523225   0.859   1.853   8.860
16834TPS    CA423226   0.804   1.866   8.652
16834TPS    HA423227   0.823   1.973   8.646
16834TPS    CA323228   0.757   1.796   8.540
16834TPS    HA323229   0.740   1.850   8.447
16835TPS    HA223230   2.476   8.044   3.213
16835TPS    CA223231   2.390   7.993   3.171
16835TPS    CA123232   2.277   8.063   3.125
16835TPS     Si23233   2.277   8.249   3.125
16835TPS    CA623234   2.172   7.991   3.065
16835TPS    HH623235   2.080   8.040   3.033
16835TPS    CA523236   2.183   7.852   3.044
16835TPS    HA523237   2.102   7.797   2.997
16835TPS    CA423238   2.298   7.784   3.087
16835TPS    HA423239   2.307   7.677   3.069
16835TPS    CA323240   2.400   7.854   3.153
16835TPS    HA323241   2.488   7.800   3.186
16836TPS    HA223242   5.448   8.139   1.384
16836TPS    CA223243   5.355   8.088   1.407
16836TPS    CA123244   5.239   8.158   1.445
16836TPS     Si23245   5.239   8.344   1.445
16836TPS    CA623246   5.120   8.086   1.467
16836TPS    HH623247   5.029   8.135   1.501
16836TPS    CA523248   5.115   7.947   1.443
16836TPS    HA523249   5.023   7.892   1.459
16836TPS    CA423250   5.230   7.879   1.403
16836TPS    HA423251   5.226   7.772   1.383
16836TPS    CA323252   5.351   7.949   1.387
16836TPS    HA323253   5.440   7.895   1.356
16837TPS    HA223254   9.204   8.103   6.772
16837TPS    CA223255   9.231   8.052   6.680
16837TPS    CA123256   9.256   8.122   6.561
16837TPS     Si23257   9.256   8.308   6.561
16837TPS    CA623258   9.297   8.050   6.447
16837TPS    HH623259   9.312   8.099   6.351
16837TPS    CA523260   9.320   7.911   6.454
16837TPS    HA523261   9.352   7.856   6.367
16837TPS    CA423262   9.297   7.843   6.575
16837TPS    HA423263   9.316   7.736   6.581
16837TPS    CA323264   9.250   7.913   6.687
16837TPS    HA323265   9.233   7.859   6.780
16838TPS    HA223266   2.204   1.418   8.445
16838TPS    CA223267   2.231   1.469   8.537
16838TPS    CA123268   2.256   1.399   8.656
16838TPS     Si23269   2.256   1.213   8.656
16838TPS    CA623270   2.297   1.471   8.770
16838TPS    HH623271   2.312   1.422   8.866
16838TPS    CA523272   2.320   1.610   8.763
16838TPS    HA523273   2.352   1.665   8.850
16838TPS    CA423274   2.297   1.678   8.642
16838TPS    HA423275   2.316   1.785   8.636
16838TPS    CA323276   2.250   1.608   8.530
16838TPS    HA323277   2.233   1.662   8.437
16839TPS    HA223278   9.241   1.547   9.019
16839TPS    CA223279   9.268   1.598   9.111
16839TPS    CA123280   9.293   1.528   9.230
16839TPS     Si23281   9.293   1.342   9.230
16839TPS    CA623282   9.334   1.600   9.344
16839TPS    HH623283   9.349   1.551   9.440
16839TPS    CA523284   9.357   1.739   9.337
16839TPS    HA523285   9.389   1.794   9.424
16839TPS    CA423286   9.334   1.807   9.216
16839TPS    HA423287   9.353   1.914   9.210
16839TPS    CA323288   9.287   1.737   9.104
16839TPS    HA323289   9.270   1.791   9.011
16840TPS    HA223290   9.225   1.484   8.213
16840TPS    CA223291   9.252   1.535   8.305
16840TPS    CA123292   9.277   1.465   8.424
16840TPS     Si23293   9.277   1.279   8.424
16840TPS    CA623294   9.318   1.537   8.538
16840TPS    HH623295   9.333   1.488   8.634
16840TPS    CA523296   9.341   1.676   8.531
16840TPS    HA523297   9.373   1.731   8.618
16840TPS    CA423298   9.318   1.744   8.410
16840TPS    HA423299   9.337   1.851   8.404
16840TPS    CA323300   9.271   1.674   8.298
16840TPS    HA323301   9.254   1.728   8.205
16841TPS    HA223302   1.398   8.127   7.782
16841TPS    CA223303   1.425   8.076   7.690
16841TPS    CA123304   1.450   8.146   7.571
16841TPS     Si23305   1.450   8.332   7.571
16841TPS    CA623306   1.491   8.074   7.457
16841TPS    HH623307   1.506   8.123   7.361
16841TPS    CA523308   1.514   7.935   7.464
16841TPS    HA523309   1.546   7.880   7.377
16841TPS    CA423310   1.491   7.867   7.585
16841TPS    HA423311   1.510   7.760   7.591
16841TPS    CA323312   1.444   7.937   7.697
16841TPS    HA323313   1.427   7.883   7.790
16842TPS    HA223314   4.747   8.094   7.908
16842TPS    CA223315   4.774   8.043   7.816
16842TPS    CA123316   4.799   8.113   7.697
16842TPS     Si23317   4.799   8.299   7.697
16842TPS    CA623318   4.840   8.041   7.583
16842TPS    HH623319   4.855   8.090   7.487
16842TPS    CA523320   4.863   7.902   7.590
16842TPS    HA523321   4.895   7.847   7.503
16842TPS    CA423322   4.840   7.834   7.711
16842TPS    HA423323   4.859   7.727   7.717
16842TPS    CA323324   4.793   7.904   7.823
16842TPS    HA323325   4.776   7.850   7.916
16843TPS    HA223326   5.495   1.417   1.299
16843TPS    CA223327   5.522   1.468   1.391
16843TPS    CA123328   5.547   1.398   1.510
16843TPS     Si23329   5.547   1.212   1.510
16843TPS    CA623330   5.588   1.470   1.624
16843TPS    HH623331   5.603   1.421   1.720
16843TPS    CA523332   5.611   1.609   1.617
16843TPS    HA523333   5.643   1.664   1.704
16843TPS    CA423334   5.588   1.677   1.496
16843TPS    HA423335   5.607   1.784   1.490
16843TPS    CA323336   5.541   1.607   1.384
16843TPS    HA323337   5.524   1.661   1.291
16844TPS    HA223338   6.979   1.514   0.516
16844TPS    CA223339   7.006   1.565   0.608
16844TPS    CA123340   7.031   1.495   0.727
16844TPS     Si23341   7.031   1.309   0.727
16844TPS    CA623342   7.072   1.567   0.841
16844TPS    HH623343   7.087   1.518   0.937
16844TPS    CA523344   7.095   1.706   0.834
16844TPS    HA523345   7.127   1.761   0.921
16844TPS    CA423346   7.072   1.774   0.713
16844TPS    HA423347   7.091   1.881   0.707
16844TPS    CA323348   7.025   1.704   0.601
16844TPS    HA323349   7.008   1.758   0.508
16845TPS    HA223350   0.734   8.167   9.429
16845TPS    CA223351   0.761   8.116   9.337
16845TPS    CA123352   0.786   8.186   9.218
16845TPS     Si23353   0.786   8.372   9.218
16845TPS    CA623354   0.827   8.114   9.104
16845TPS    HH623355   0.842   8.163   9.008
16845TPS    CA523356   0.850   7.975   9.111
16845TPS    HA523357   0.882   7.920   9.024
16845TPS    CA423358   0.827   7.907   9.232
16845TPS    HA423359   0.846   7.800   9.238
16845TPS    CA323360   0.780   7.977   9.344
16845TPS    HA323361   0.763   7.923   9.437
16846TPS    HA223362   4.349   8.042   4.493
16846TPS    CA223363   4.376   7.991   4.401
16846TPS    CA123364   4.401   8.061   4.282
16846TPS     Si23365   4.401   8.247   4.282
16846TPS    CA623366   4.442   7.989   4.168
16846TPS    HH623367   4.457   8.038   4.072
16846TPS    CA523368   4.465   7.850   4.175
16846TPS    HA523369   4.497   7.795   4.088
16846TPS    CA423370   4.442   7.782   4.296
16846TPS    HA423371   4.461   7.675   4.302
16846TPS    CA323372   4.395   7.852   4.408
16846TPS    HA323373   4.378   7.798   4.501
16847TPS    HA223374   0.688   1.589   5.739
16847TPS    CA223375   0.715   1.640   5.831
16847TPS    CA123376   0.740   1.570   5.950
16847TPS     Si23377   0.740   1.384   5.950
16847TPS    CA623378   0.781   1.642   6.064
16847TPS    HH623379   0.796   1.593   6.160
16847TPS    CA523380   0.804   1.781   6.057
16847TPS    HA523381   0.836   1.836   6.144
16847TPS    CA423382   0.781   1.849   5.936
16847TPS    HA423383   0.800   1.956   5.930
16847TPS    CA323384   0.734   1.779   5.824
16847TPS    HA323385   0.717   1.833   5.731
16848TPS    HA223386   0.675   8.131   6.700
16848TPS    CA223387   0.669   8.080   6.605
16848TPS    CA123388   0.652   8.150   6.484
16848TPS     Si23389   0.652   8.336   6.484
16848TPS    CA623390   0.652   8.078   6.363
16848TPS    HH623391   0.633   8.127   6.268
16848TPS    CA523392   0.675   7.939   6.362
16848TPS    HA523393   0.676   7.884   6.269
16848TPS    CA423394   0.695   7.871   6.483
16848TPS    HA423395   0.715   7.764   6.482
16848TPS    CA323396   0.689   7.941   6.604
16848TPS    HA323397   0.705   7.887   6.697
16849TPS    HA223398   3.142   8.106   4.735
16849TPS    CA223399   3.169   8.055   4.643
16849TPS    CA123400   3.194   8.125   4.524
16849TPS     Si23401   3.194   8.311   4.524
16849TPS    CA623402   3.235   8.053   4.410
16849TPS    HH623403   3.250   8.102   4.314
16849TPS    CA523404   3.258   7.914   4.417
16849TPS    HA523405   3.290   7.859   4.330
16849TPS    CA423406   3.235   7.846   4.538
16849TPS    HA423407   3.254   7.739   4.544
16849TPS    CA323408   3.188   7.916   4.650
16849TPS    HA323409   3.171   7.862   4.743
16850TPS    HA223410   2.069   8.002   6.147
16850TPS    CA223411   2.096   7.951   6.055
16850TPS    CA123412   2.121   8.021   5.936
16850TPS     Si23413   2.121   8.207   5.936
16850TPS    CA623414   2.162   7.949   5.822
16850TPS    HH623415   2.177   7.998   5.726
16850TPS    CA523416   2.185   7.810   5.829
16850TPS    HA523417   2.217   7.755   5.742
16850TPS    CA423418   2.162   7.742   5.950
16850TPS    HA423419   2.181   7.635   5.956
16850TPS    CA323420   2.115   7.812   6.062
16850TPS    HA323421   2.098   7.758   6.155
16851TPS    HA223422   2.560   8.204   9.215
16851TPS    CA223423   2.587   8.153   9.123
16851TPS    CA123424   2.612   8.223   9.004
16851TPS     Si23425   2.612   8.409   9.004
16851TPS    CA623426   2.653   8.151   8.890
16851TPS    HH623427   2.668   8.200   8.794
16851TPS    CA523428   2.676   8.012   8.897
16851TPS    HA523429   2.708   7.957   8.810
16851TPS    CA423430   2.653   7.944   9.018
16851TPS    HA423431   2.672   7.837   9.024
16851TPS    CA323432   2.606   8.014   9.130
16851TPS    HA323433   2.589   7.960   9.223
16852TPS    HA223434   0.730   1.374   9.305
16852TPS    CA223435   0.724   1.425   9.400
16852TPS    CA123436   0.707   1.355   9.521
16852TPS     Si23437   0.707   1.169   9.521
16852TPS    CA623438   0.707   1.427   9.642
16852TPS    HH623439   0.688   1.378   9.737
16852TPS    CA523440   0.730   1.566   9.643
16852TPS    HA523441   0.731   1.621   9.736
16852TPS    CA423442   0.750   1.634   9.522
16852TPS    HA423443   0.770   1.741   9.523
16852TPS    CA323444   0.744   1.564   9.401
16852TPS    HA323445   0.760   1.618   9.308
16853TPS    HA223446   7.450   1.663   0.238
16853TPS    CA223447   7.477   1.714   0.330
16853TPS    CA123448   7.502   1.644   0.449
16853TPS     Si23449   7.502   1.458   0.449
16853TPS    CA623450   7.543   1.716   0.563
16853TPS    HH623451   7.558   1.667   0.659
16853TPS    CA523452   7.566   1.855   0.556
16853TPS    HA523453   7.598   1.910   0.643
16853TPS    CA423454   7.543   1.923   0.435
16853TPS    HA423455   7.562   2.030   0.429
16853TPS    CA323456   7.496   1.853   0.323
16853TPS    HA323457   7.479   1.907   0.230
16854TPS    HA223458   3.155   8.240   1.490
16854TPS    CA223459   3.149   8.189   1.395
16854TPS    CA123460   3.132   8.259   1.274
16854TPS     Si23461   3.132   8.445   1.274
16854TPS    CA623462   3.132   8.187   1.153
16854TPS    HH623463   3.113   8.236   1.058
16854TPS    CA523464   3.155   8.048   1.152
16854TPS    HA523465   3.156   7.993   1.059
16854TPS    CA423466   3.175   7.980   1.273
16854TPS    HA423467   3.195   7.873   1.272
16854TPS    CA323468   3.169   8.050   1.394
16854TPS    HA323469   3.185   7.996   1.487
16855TPS    HA223470   0.812   8.012   3.302
16855TPS    CA223471   0.839   7.961   3.210
16855TPS    CA123472   0.864   8.031   3.091
16855TPS     Si23473   0.864   8.217   3.091
16855TPS    CA623474   0.905   7.959   2.977
16855TPS    HH623475   0.920   8.008   2.881
16855TPS    CA523476   0.928   7.820   2.984
16855TPS    HA523477   0.960   7.765   2.897
16855TPS    CA423478   0.905   7.752   3.105
16855TPS    HA423479   0.924   7.645   3.111
16855TPS    CA323480   0.858   7.822   3.217
16855TPS    HA323481   0.841   7.768   3.310
16856TPS    HA223482   6.336   1.610   5.741
16856TPS    CA223483   6.363   1.661   5.833
16856TPS    CA123484   6.388   1.591   5.952
16856TPS     Si23485   6.388   1.405   5.952
16856TPS    CA623486   6.429   1.663   6.066
16856TPS    HH623487   6.444   1.614   6.162
16856TPS    CA523488   6.452   1.802   6.059
16856TPS    HA523489   6.484   1.857   6.146
16856TPS    CA423490   6.429   1.870   5.938
16856TPS    HA423491   6.448   1.977   5.932
16856TPS    CA323492   6.382   1.800   5.826
16856TPS    HA323493   6.365   1.854   5.733
16857TPS    HA223494   3.494   1.369   0.638
16857TPS    CA223495   3.521   1.420   0.730
16857TPS    CA123496   3.546   1.350   0.849
16857TPS     Si23497   3.546   1.164   0.849
16857TPS    CA623498   3.587   1.422   0.963
16857TPS    HH623499   3.602   1.373   1.059
16857TPS    CA523500   3.610   1.561   0.956
16857TPS    HA523501   3.642   1.616   1.043
16857TPS    CA423502   3.587   1.629   0.835
16857TPS    HA423503   3.606   1.736   0.829
16857TPS    CA323504   3.540   1.559   0.723
16857TPS    HA323505   3.523   1.613   0.630
16858TPS    HA223506   5.839   1.611   2.949
16858TPS    CA223507   5.866   1.662   3.041
16858TPS    CA123508   5.891   1.592   3.160
16858TPS     Si23509   5.891   1.406   3.160
16858TPS    CA623510   5.932   1.664   3.274
16858TPS    HH623511   5.947   1.615   3.370
16858TPS    CA523512   5.955   1.803   3.267
16858TPS    HA523513   5.987   1.858   3.354
16858TPS    CA423514   5.932   1.871   3.146
16858TPS    HA423515   5.951   1.978   3.140
16858TPS    CA323516   5.885   1.801   3.034
16858TPS    HA323517   5.868   1.855   2.941
16859TPS    HA223518   6.478   1.565   7.529
16859TPS    CA223519   6.505   1.616   7.621
16859TPS    CA123520   6.530   1.546   7.740
16859TPS     Si23521   6.530   1.360   7.740
16859TPS    CA623522   6.571   1.618   7.854
16859TPS    HH623523   6.586   1.569   7.950
16859TPS    CA523524   6.594   1.757   7.847
16859TPS    HA523525   6.626   1.812   7.934
16859TPS    CA423526   6.571   1.825   7.726
16859TPS    HA423527   6.590   1.932   7.720
16859TPS    CA323528   6.524   1.755   7.614
16859TPS    HA323529   6.507   1.809   7.521
16860TPS    HA223530   7.358   1.541   6.411
16860TPS    CA223531   7.385   1.592   6.503
16860TPS    CA123532   7.410   1.522   6.622
16860TPS     Si23533   7.410   1.336   6.622
16860TPS    CA623534   7.451   1.594   6.736
16860TPS    HH623535   7.466   1.545   6.832
16860TPS    CA523536   7.474   1.733   6.729
16860TPS    HA523537   7.506   1.788   6.816
16860TPS    CA423538   7.451   1.801   6.608
16860TPS    HA423539   7.470   1.908   6.602
16860TPS    CA323540   7.404   1.731   6.496
16860TPS    HA323541   7.387   1.785   6.403
16861TPS    HA223542   2.447   8.108   5.866
16861TPS    CA223543   2.540   8.057   5.843
16861TPS    CA123544   2.656   8.127   5.805
16861TPS     Si23545   2.656   8.313   5.805
16861TPS    CA623546   2.775   8.055   5.783
16861TPS    HH623547   2.866   8.104   5.749
16861TPS    CA523548   2.780   7.916   5.807
16861TPS    HA523549   2.872   7.861   5.791
16861TPS    CA423550   2.665   7.848   5.847
16861TPS    HA423551   2.669   7.741   5.867
16861TPS    CA323552   2.544   7.918   5.863
16861TPS    HA323553   2.455   7.864   5.894
16862TPS    HA223554   8.551   8.169   3.481
16862TPS    CA223555   8.578   8.118   3.389
16862TPS    CA123556   8.603   8.188   3.270
16862TPS     Si23557   8.603   8.374   3.270
16862TPS    CA623558   8.644   8.116   3.156
16862TPS    HH623559   8.659   8.165   3.060
16862TPS    CA523560   8.667   7.977   3.163
16862TPS    HA523561   8.699   7.922   3.076
16862TPS    CA423562   8.644   7.909   3.284
16862TPS    HA423563   8.663   7.802   3.290
16862TPS    CA323564   8.597   7.979   3.396
16862TPS    HA323565   8.580   7.925   3.489
16863TPS    HA223566   1.094   7.963   5.927
16863TPS    CA223567   1.121   7.912   5.835
16863TPS    CA123568   1.146   7.982   5.716
16863TPS     Si23569   1.146   8.168   5.716
16863TPS    CA623570   1.187   7.910   5.602
16863TPS    HH623571   1.202   7.959   5.506
16863TPS    CA523572   1.210   7.771   5.609
16863TPS    HA523573   1.242   7.716   5.522
16863TPS    CA423574   1.187   7.703   5.730
16863TPS    HA423575   1.206   7.596   5.736
16863TPS    CA323576   1.140   7.773   5.842
16863TPS    HA323577   1.123   7.719   5.935
16864TPS    HA223578   2.095   1.505   5.990
16864TPS    CA223579   2.089   1.556   6.085
16864TPS    CA123580   2.072   1.486   6.206
16864TPS     Si23581   2.072   1.300   6.206
16864TPS    CA623582   2.072   1.558   6.327
16864TPS    HH623583   2.053   1.509   6.422
16864TPS    CA523584   2.095   1.697   6.328
16864TPS    HA523585   2.096   1.752   6.421
16864TPS    CA423586   2.115   1.765   6.207
16864TPS    HA423587   2.135   1.872   6.208
16864TPS    CA323588   2.109   1.695   6.086
16864TPS    HA323589   2.125   1.749   5.993
16865TPS    HA223590   7.640   1.440   4.552
16865TPS    CA223591   7.634   1.491   4.647
16865TPS    CA123592   7.617   1.421   4.768
16865TPS     Si23593   7.617   1.235   4.768
16865TPS    CA623594   7.617   1.493   4.889
16865TPS    HH623595   7.598   1.444   4.984
16865TPS    CA523596   7.640   1.632   4.890
16865TPS    HA523597   7.641   1.687   4.983
16865TPS    CA423598   7.660   1.700   4.769
16865TPS    HA423599   7.680   1.807   4.770
16865TPS    CA323600   7.654   1.630   4.648
16865TPS    HA323601   7.670   1.684   4.555
16866SL     Si123602   0.699   1.413   4.887
16866SL      O123603   0.699   1.577   4.887
16866SL      H123604   0.699   1.675   4.887
16867SL     Si123605   8.830   1.332   4.024
16867SL      O123606   8.830   1.496   4.024
16867SL      H123607   8.830   1.594   4.024
16868SL     Si123608   7.344   1.265   5.633
16868SL      O123609   7.344   1.429   5.633
16868SL      H123610   7.344   1.527   5.633
16869SL     Si123611   3.552   8.304   1.314
16869SL      O123612   3.552   8.140   1.314
16869SL      H123613   3.552   8.042   1.314
16870SL     Si123614   7.049   1.252   3.466
16870SL      O123615   7.049   1.416   3.466
16870SL      H123616   7.049   1.514   3.466
16871SL     Si123617   4.579   8.298   1.916
16871SL      O123618   4.579   8.134   1.916
16871SL      H123619   4.579   8.036   1.916
16872SL     Si123620   0.499   8.406   5.186
16872SL      O123621   0.499   8.242   5.186
16872SL      H123622   0.499   8.144   5.186
16873SL     Si123623   0.116   1.369   8.023
16873SL      O123624   0.116   1.533   8.023
16873SL      H123625   0.116   1.631   8.023
16874SL     Si123626   9.383   8.420   4.752
16874SL      O123627   9.383   8.256   4.752
16874SL      H123628   9.383   8.158   4.752
16875SL     Si123629   0.975   1.243   1.598
16875SL      O123630   0.975   1.407   1.598
16875SL      H123631   0.975   1.505   1.598
16876SL     Si123632   0.052   1.226   5.527
16876SL      O123633   0.052   1.390   5.527
16876SL      H123634   0.052   1.488   5.527
16877SL     Si123635   0.256   1.286   4.722
16877SL      O123636   0.256   1.450   4.722
16877SL      H123637   0.256   1.548   4.722
16878SL     Si123638   3.153   8.191   5.857
16878SL      O123639   3.153   8.027   5.857
16878SL      H123640   3.153   7.929   5.857
16879SL     Si123641   4.113   8.240   8.803
16879SL      O123642   4.113   8.076   8.803
16879SL      H123643   4.113   7.978   8.803
16880SL     Si123644   2.750   1.096   0.786
16880SL      O123645   2.750   1.260   0.786
16880SL      H123646   2.750   1.358   0.786
16881SL     Si123647   1.973   8.323   4.126
16881SL      O123648   1.973   8.159   4.126
16881SL      H123649   1.973   8.061   4.126
16882SL     Si123650   2.791   1.255   3.090
16882SL      O123651   2.791   1.419   3.090
16882SL      H123652   2.791   1.517   3.090
16883SL     Si123653   9.387   1.137   0.117
16883SL      O123654   9.387   1.301   0.117
16883SL      H123655   9.387   1.399   0.117
16884SL     Si123656   4.498   1.249   6.262
16884SL      O123657   4.498   1.413   6.262
16884SL      H123658   4.498   1.511   6.262
16885SL     Si123659   0.249   8.311   9.420
16885SL      O123660   0.249   8.147   9.420
16885SL      H123661   0.249   8.049   9.420
16886SL     Si123662   1.900   1.172   2.094
16886SL      O123663   1.900   1.336   2.094
16886SL      H123664   1.900   1.434   2.094
16887SL     Si123665   5.364   1.221   7.646
16887SL      O123666   5.364   1.385   7.646
16887SL      H123667   5.364   1.483   7.646
16888SL     Si123668   8.283   8.334   8.135
16888SL      O123669   8.283   8.170   8.135
16888SL      H123670   8.283   8.072   8.135
16889SL     Si123671   8.423   1.261   1.478
16889SL      O123672   8.423   1.425   1.478
16889SL      H123673   8.423   1.523   1.478
16890SL     Si123674   1.492   8.271   6.341
16890SL      O123675   1.492   8.107   6.341
16890SL      H123676   1.492   8.009   6.341
16891SL     Si123677   6.013   1.272   0.551
16891SL      O123678   6.013   1.436   0.551
16891SL      H123679   6.013   1.534   0.551
16892SL     Si123680   7.835   1.143   8.238
16892SL      O123681   7.835   1.307   8.238
16892SL      H123682   7.835   1.405   8.238
16893SL     Si123683   3.307   8.231   8.479
16893SL      O123684   3.307   8.067   8.479
16893SL      H123685   3.307   7.969   8.479
16894SL     Si123686   8.280   8.228   3.615
16894SL      O123687   8.280   8.064   3.615
16894SL      H123688   8.280   7.966   3.615
16895SL     Si123689   8.966   8.231   6.995
16895SL      O123690   8.966   8.067   6.995
16895SL      H123691   8.966   7.969   6.995
16896SL     Si123692   1.667   1.222   3.282
16896SL      O123693   1.667   1.386   3.282
16896SL      H123694   1.667   1.484   3.282
16897SL     Si123695   0.941   8.294   5.907
16897SL      O123696   0.941   8.130   5.907
16897SL      H123697   0.941   8.032   5.907
16898SL     Si123698   9.423   8.412   2.245
16898SL      O123699   9.423   8.248   2.245
16898SL      H123700   9.423   8.150   2.245
16899SL     Si123701   4.684   1.237   4.138
16899SL      O123702   4.684   1.401   4.138
16899SL      H123703   4.684   1.499   4.138
16900SL     Si123704   5.213   8.348   5.622
16900SL      O123705   5.213   8.184   5.622
16900SL      H123706   5.213   8.086   5.622
16901SL     Si123707   6.166   8.195   6.551
16901SL      O123708   6.166   8.031   6.551
16901SL      H123709   6.166   7.933   6.551
16902SL     Si123710   0.720   1.144   2.621
16902SL      O123711   0.720   1.308   2.621
16902SL      H123712   0.720   1.406   2.621
16903SL     Si123713   9.148   8.385   1.692
16903SL      O123714   9.148   8.221   1.692
16903SL      H123715   9.148   8.123   1.692
16904SL     Si123716   6.269   1.269   8.711
16904SL      O123717   6.269   1.433   8.711
16904SL      H123718   6.269   1.531   8.711
16905SL     Si123719   1.070   1.179   5.356
16905SL      O123720   1.070   1.343   5.356
16905SL      H123721   1.070   1.441   5.356
16906SL     Si123722   4.875   1.368   8.431
16906SL      O123723   4.875   1.532   8.431
16906SL      H123724   4.875   1.630   8.431
16907SL     Si123725   3.889   8.292   9.181
16907SL      O123726   3.889   8.128   9.181
16907SL      H123727   3.889   8.030   9.181
16908SL     Si123728   6.157   8.364   8.692
16908SL      O123729   6.157   8.200   8.692
16908SL      H123730   6.157   8.102   8.692
16909SL     Si123731   6.313   8.476   1.966
16909SL      O123732   6.313   8.312   1.966
16909SL      H123733   6.313   8.214   1.966
16910SL     Si123734   4.962   8.481   1.124
16910SL      O123735   4.962   8.317   1.124
16910SL      H123736   4.962   8.219   1.124
16911SL     Si123737   8.747   1.460   3.665
16911SL      O123738   8.747   1.624   3.665
16911SL      H123739   8.747   1.722   3.665
16912SL     Si123740   0.239   8.284   1.404
16912SL      O123741   0.239   8.120   1.404
16912SL      H123742   0.239   8.022   1.404
16913SL     Si123743   2.585   8.441   5.026
16913SL      O123744   2.585   8.277   5.026
16913SL      H123745   2.585   8.179   5.026
16914SL     Si123746   4.668   1.244   2.544
16914SL      O123747   4.668   1.408   2.544
16914SL      H123748   4.668   1.506   2.544
16915SL     Si123749   3.834   1.366   2.901
16915SL      O123750   3.834   1.530   2.901
16915SL      H123751   3.834   1.628   2.901
16916SL     Si123752   6.130   8.325   7.613
16916SL      O123753   6.130   8.161   7.613
16916SL      H123754   6.130   8.063   7.613
16917SL     Si123755   7.569   1.413   9.121
16917SL      O123756   7.569   1.577   9.121
16917SL      H123757   7.569   1.675   9.121
16918SL     Si123758   3.326   8.328   6.931
16918SL      O123759   3.326   8.164   6.931
16918SL      H123760   3.326   8.066   6.931
16919SL     Si123761   9.283   8.336   8.499
16919SL      O123762   9.283   8.172   8.499
16919SL      H123763   9.283   8.074   8.499
16920SL     Si123764   1.810   8.393   1.041
16920SL      O123765   1.810   8.229   1.041
16920SL      H123766   1.810   8.131   1.041
16921SL     Si123767   3.410   0.843   3.283
16921SL      O123768   3.410   1.007   3.283
16921SL      H123769   3.410   1.105   3.283
16922SL     Si123770   0.061   8.334   6.250
16922SL      O123771   0.061   8.170   6.250
16922SL      H123772   0.061   8.072   6.250
16923SL     Si123773   2.168   8.339   5.346
16923SL      O123774   2.168   8.175   5.346
16923SL      H123775   2.168   8.077   5.346
16924SL     Si123776   0.865   1.363   6.690
16924SL      O123777   0.865   1.527   6.690
16924SL      H123778   0.865   1.625   6.690
16925SL     Si123779   2.405   8.412   7.164
16925SL      O123780   2.405   8.248   7.164
16925SL      H123781   2.405   8.150   7.164
16926SL     Si123782   2.388   1.407   7.067
16926SL      O123783   2.388   1.571   7.067
16926SL      H123784   2.388   1.669   7.067
16927SL     Si123785   5.888   1.354   4.981
16927SL      O123786   5.888   1.518   4.981
16927SL      H123787   5.888   1.616   4.981
16928SL     Si123788   7.930   8.253   7.737
16928SL      O123789   7.930   8.089   7.737
16928SL      H123790   7.930   7.991   7.737
16929SL     Si123791   5.863   8.319   4.260
16929SL      O123792   5.863   8.155   4.260
16929SL      H123793   5.863   8.057   4.260
16930SL     Si123794   3.491   1.344   8.232
16930SL      O123795   3.491   1.508   8.232
16930SL      H123796   3.491   1.606   8.232
16931SL     Si123797   3.718   8.295   7.823
16931SL      O123798   3.718   8.131   7.823
16931SL      H123799   3.718   8.033   7.823
16932SL     Si123800   2.494   8.403   6.364
16932SL      O123801   2.494   8.239   6.364
16932SL      H123802   2.494   8.141   6.364
16933SL     Si123803   4.956   1.234   1.209
16933SL      O123804   4.956   1.398   1.209
16933SL      H123805   4.956   1.496   1.209
16934SL     Si123806   3.407   8.324   3.954
16934SL      O123807   3.407   8.160   3.954
16934SL      H123808   3.407   8.062   3.954
16935SL     Si123809   2.663   8.380   2.070
16935SL      O123810   2.663   8.216   2.070
16935SL      H123811   2.663   8.118   2.070
16936SL     Si123812   7.386   1.319   1.173
16936SL      O123813   7.386   1.483   1.173
16936SL      H123814   7.386   1.581   1.173
16937SL     Si123815   3.481   1.444   1.265
16937SL      O123816   3.481   1.608   1.265
16937SL      H123817   3.481   1.706   1.265
16938SL     Si123818   5.801   1.264   6.226
16938SL      O123819   5.801   1.428   6.226
16938SL      H123820   5.801   1.526   6.226
16939SL     Si123821   5.007   8.404   7.349
16939SL      O123822   5.007   8.240   7.349
16939SL      H123823   5.007   8.142   7.349
16940SL     Si123824   4.432   1.304   0.697
16940SL      O123825   4.432   1.468   0.697
16940SL      H123826   4.432   1.566   0.697
16941SL     Si123827   2.454   1.146   0.715
16941SL      O123828   2.454   1.310   0.715
16941SL      H123829   2.454   1.408   0.715
16942SL     Si123830   2.231   1.337   3.298
16942SL      O123831   2.231   1.501   3.298
16942SL      H123832   2.231   1.599   3.298
16943SL     Si123833   8.342   8.297   4.133
16943SL      O123834   8.342   8.133   4.133
16943SL      H123835   8.342   8.035   4.133
16944SL     Si123836   1.586   1.322   0.363
16944SL      O123837   1.586   1.486   0.363
16944SL      H123838   1.586   1.584   0.363
16945SL     Si123839   3.453   1.127   3.195
16945SL      O123840   3.453   1.291   3.195
16945SL      H123841   3.453   1.389   3.195
16946SL     Si123842   0.727   8.221   8.539
16946SL      O123843   0.727   8.057   8.539
16946SL      H123844   0.727   7.959   8.539
16947SL     Si123845   0.251   1.312   5.746
16947SL      O123846   0.251   1.476   5.746
16947SL      H123847   0.251   1.574   5.746
16948SL     Si123848   9.076   1.464   4.642
16948SL      O123849   9.076   1.628   4.642
16948SL      H123850   9.076   1.726   4.642
16949SL     Si123851   5.671   1.349   9.153
16949SL      O123852   5.671   1.513   9.153
16949SL      H123853   5.671   1.611   9.153
16950SL     Si123854   4.222   8.327   5.671
16950SL      O123855   4.222   8.163   5.671
16950SL      H123856   4.222   8.065   5.671
16951SL     Si123857   4.878   1.352   9.165
16951SL      O123858   4.878   1.516   9.165
16951SL      H123859   4.878   1.614   9.165
16952SL     Si123860   4.429   8.388   3.470
16952SL      O123861   4.429   8.224   3.470
16952SL      H123862   4.429   8.126   3.470
16953SL     Si123863   7.095   1.358   4.155
16953SL      O123864   7.095   1.522   4.155
16953SL      H123865   7.095   1.620   4.155
16954SL     Si123866   7.915   1.225   5.703
16954SL      O123867   7.915   1.389   5.703
16954SL      H123868   7.915   1.487   5.703
16955SL     Si123869   7.305   8.252   5.425
16955SL      O123870   7.305   8.088   5.425
16955SL      H123871   7.305   7.990   5.425
16956SL     Si123872   7.594   8.206   8.553
16956SL      O123873   7.594   8.042   8.553
16956SL      H123874   7.594   7.944   8.553
16957SL     Si123875   7.204   8.266   8.366
16957SL      O123876   7.204   8.102   8.366
16957SL      H123877   7.204   8.004   8.366
16958SL     Si123878   7.274   8.196   3.579
16958SL      O123879   7.274   8.032   3.579
16958SL      H123880   7.274   7.934   3.579
16959SL     Si123881   0.630   8.314   4.802
16959SL      O123882   0.630   8.150   4.802
16959SL      H123883   0.630   8.052   4.802
16960SL     Si123884   6.938   1.225   0.231
16960SL      O123885   6.938   1.389   0.231
16960SL      H123886   6.938   1.487   0.231
16961SL     Si123887   2.557   8.381   3.162
16961SL      O123888   2.557   8.217   3.162
16961SL      H123889   2.557   8.119   3.162
16962SL     Si123890   4.537   8.324   1.605
16962SL      O123891   4.537   8.160   1.605
16962SL      H123892   4.537   8.062   1.605
16963SL     Si123893   7.742   8.365   5.745
16963SL      O123894   7.742   8.201   5.745
16963SL      H123895   7.742   8.103   5.745
16964SL     Si123896   0.393   8.335   1.148
16964SL      O123897   0.393   8.171   1.148
16964SL      H123898   0.393   8.073   1.148
16965SL     Si123899   1.624   8.445   3.763
16965SL      O123900   1.624   8.281   3.763
16965SL      H123901   1.624   8.183   3.763
16966SL     Si123902   3.629   8.372   5.181
16966SL      O123903   3.629   8.208   5.181
16966SL      H123904   3.629   8.110   5.181
16967SL     Si123905   0.238   8.363   6.487
16967SL      O123906   0.238   8.199   6.487
16967SL      H123907   0.238   8.101   6.487
16968SL     Si123908   6.653   8.247   7.587
16968SL      O123909   6.653   8.083   7.587
16968SL      H123910   6.653   7.985   7.587
16969SL     Si123911   7.116   1.288   2.990
16969SL      O123912   7.116   1.452   2.990
16969SL      H123913   7.116   1.550   2.990
16970SL     Si123914   6.776   8.263   0.385
16970SL      O123915   6.776   8.099   0.385
16970SL      H123916   6.776   8.001   0.385
16971SL     Si123917   1.089   1.222   0.289
16971SL      O123918   1.089   1.386   0.289
16971SL      H123919   1.089   1.484   0.289
16972SL     Si123920   4.965   8.338   5.253
16972SL      O123921   4.965   8.174   5.253
16972SL      H123922   4.965   8.076   5.253
16973SL     Si123923   5.738   8.196   3.443
16973SL      O123924   5.738   8.032   3.443
16973SL      H123925   5.738   7.934   3.443
16974SL     Si123926   8.968   8.390   5.872
16974SL      O123927   8.968   8.226   5.872
16974SL      H123928   8.968   8.128   5.872
16975SL     Si123929   9.117   8.171   7.262
16975SL      O123930   9.117   8.007   7.262
16975SL      H123931   9.117   7.909   7.262
16976SL     Si123932   2.126   1.408   7.929
16976SL      O123933   2.126   1.572   7.929
16976SL      H123934   2.126   1.670   7.929
16977SL     Si123935   2.168   8.251   0.171
16977SL      O123936   2.168   8.087   0.171
16977SL      H123937   2.168   7.989   0.171
16978SL     Si123938   2.802   8.257   0.979
16978SL      O123939   2.802   8.093   0.979
16978SL      H123940   2.802   7.995   0.979
16979SL     Si123941   8.897   1.337   0.933
16979SL      O123942   8.897   1.501   0.933
16979SL      H123943   8.897   1.599   0.933
16980SL     Si123944   1.726   8.338   7.734
16980SL      O123945   1.726   8.174   7.734
16980SL      H123946   1.726   8.076   7.734
16981SL     Si123947   1.067   1.260   8.440
16981SL      O123948   1.067   1.424   8.440
16981SL      H123949   1.067   1.522   8.440
16982SL     Si123950   5.170   1.425   3.294
16982SL      O123951   5.170   1.589   3.294
16982SL      H123952   5.170   1.687   3.294
16983SL     Si123953   8.713   1.275   0.093
16983SL      O123954   8.713   1.439   0.093
16983SL      H123955   8.713   1.537   0.093
16984SL     Si123956   1.171   1.238   8.731
16984SL      O123957   1.171   1.402   8.731
16984SL      H123958   1.171   1.500   8.731
16985SL     Si123959   5.948   1.318   4.677
16985SL      O123960   5.948   1.482   4.677
16985SL      H123961   5.948   1.580   4.677
16986SL     Si123962   2.178   8.401   8.216
16986SL      O123963   2.178   8.237   8.216
16986SL      H123964   2.178   8.139   8.216
16987SL     Si123965   1.015   1.306   6.431
16987SL      O123966   1.015   1.470   6.431
16987SL      H123967   1.015   1.568   6.431
16988SL     Si123968   8.373   1.377   9.337
16988SL      O123969   8.373   1.541   9.337
16988SL      H123970   8.373   1.639   9.337
16989SL     Si123971   3.632   8.382   7.553
16989SL      O123972   3.632   8.218   7.553
16989SL      H123973   3.632   8.120   7.553
16990SL     Si123974   1.914   1.155   2.654
16990SL      O123975   1.914   1.319   2.654
16990SL      H123976   1.914   1.417   2.654
16991SL     Si123977   7.894   8.303   2.695
16991SL      O123978   7.894   8.139   2.695
16991SL      H123979   7.894   8.041   2.695
16992SL     Si123980   3.455   8.232   5.389
16992SL      O123981   3.455   8.068   5.389
16992SL      H123982   3.455   7.970   5.389
16993SL     Si123983   1.401   8.305   2.412
16993SL      O123984   1.401   8.141   2.412
16993SL      H123985   1.401   8.043   2.412
16994SL     Si123986   3.073   1.221   4.205
16994SL      O123987   3.073   1.385   4.205
16994SL      H123988   3.073   1.483   4.205
16995SL     Si123989   4.293   1.363   7.838
16995SL      O123990   4.293   1.527   7.838
16995SL      H123991   4.293   1.625   7.838
16996SL     Si123992   5.100   1.286   9.576
16996SL      O123993   5.100   1.450   9.576
16996SL      H123994   5.100   1.548   9.576
16997SL     Si123995   7.308   1.237   4.789
16997SL      O123996   7.308   1.401   4.789
16997SL      H123997   7.308   1.499   4.789
16998SL     Si123998   6.495   8.351   0.267
16998SL      O123999   6.495   8.187   0.267
16998SL      H124000   6.495   8.089   0.267
16999SL     Si124001   3.321   1.409   1.981
16999SL      O124002   3.321   1.573   1.981
16999SL      H124003   3.321   1.671   1.981
17000SL     Si124004   1.342   8.320   1.291
17000SL      O124005   1.342   8.156   1.291
17000SL      H124006   1.342   8.058   1.291
17001SL     Si124007   7.584   1.408   7.836
17001SL      O124008   7.584   1.572   7.836
17001SL      H124009   7.584   1.670   7.836
17002SL     Si124010   1.796   8.281   0.779
17002SL      O124011   1.796   8.117   0.779
17002SL      H124012   1.796   8.019   0.779
17003SL     Si124013   3.975   1.410   9.105
17003SL      O124014   3.975   1.574   9.105
17003SL      H124015   3.975   1.672   9.105
17004SL     Si124016   1.598   1.330   9.494
17004SL      O124017   1.598   1.494   9.494
17004SL      H124018   1.598   1.592   9.494
17005SL     Si124019   7.093   8.285   1.923
17005SL      O124020   7.093   8.121   1.923
17005SL      H124021   7.093   8.023   1.923
17006SL     Si124022   3.067   1.361   4.715
17006SL      O124023   3.067   1.525   4.715
17006SL      H124024   3.067   1.623   4.715
17007SL     Si124025   6.852   8.376   9.047
17007SL      O124026   6.852   8.212   9.047
17007SL      H124027   6.852   8.114   9.047
17008SL     Si124028   7.834   8.328   3.011
17008SL      O124029   7.834   8.164   3.011
17008SL      H124030   7.834   8.066   3.011
17009SL     Si124031   5.530   8.307   0.128
17009SL      O124032   5.530   8.143   0.128
17009SL      H124033   5.530   8.045   0.128
17010SL     Si124034   8.543   8.253   5.507
17010SL      O124035   8.543   8.089   5.507
17010SL      H124036   8.543   7.991   5.507
17011SL     Si124037   9.086   8.430   4.073
17011SL      O124038   9.086   8.266   4.073
17011SL      H124039   9.086   8.168   4.073
17012SL     Si124040   3.755   8.320   9.460
17012SL      O124041   3.755   8.156   9.460
17012SL      H124042   3.755   8.058   9.460
17013SL     Si124043   4.584   1.142   5.744
17013SL      O124044   4.584   1.306   5.744
17013SL      H124045   4.584   1.404   5.744
17014SL     Si124046   5.647   1.163   5.733
17014SL      O124047   5.647   1.327   5.733
17014SL      H124048   5.647   1.425   5.733
17015SL     Si124049   6.740   8.426   6.013
17015SL      O124050   6.740   8.262   6.013
17015SL      H124051   6.740   8.164   6.013
17016SL     Si124052   3.387   8.545   1.937
17016SL      O124053   3.387   8.381   1.937
17016SL      H124054   3.387   8.283   1.937
17017SL     Si124055   8.879   8.303   0.995
17017SL      O124056   8.879   8.139   0.995
17017SL      H124057   8.879   8.041   0.995
17018SL     Si124058   7.526   1.258   2.185
17018SL      O124059   7.526   1.422   2.185
17018SL      H124060   7.526   1.520   2.185
17019SL     Si124061   6.034   1.328   1.592
17019SL      O124062   6.034   1.492   1.592
17019SL      H124063   6.034   1.590   1.592
17020SL     Si124064   7.203   8.344   9.182
17020SL      O124065   7.203   8.180   9.182
17020SL      H124066   7.203   8.082   9.182
17021SL     Si124067   8.428   1.189   6.614
17021SL      O124068   8.428   1.353   6.614
17021SL      H124069   8.428   1.451   6.614
17022SL     Si124070   4.383   1.151   5.254
17022SL      O124071   4.383   1.315   5.254
17022SL      H124072   4.383   1.413   5.254
17023SL     Si124073   7.149   1.311   8.425
17023SL      O124074   7.149   1.475   8.425
17023SL      H124075   7.149   1.573   8.425
17024SL     Si124076   8.231   8.213   4.423
17024SL      O124077   8.231   8.049   4.423
17024SL      H124078   8.231   7.951   4.423
17025SL     Si124079   2.288   1.227   1.574
17025SL      O124080   2.288   1.391   1.574
17025SL      H124081   2.288   1.489   1.574
17026SL     Si124082   3.019   8.409   3.442
17026SL      O124083   3.019   8.245   3.442
17026SL      H124084   3.019   8.147   3.442
17027SL     Si124085   1.049   8.215   1.281
17027SL      O124086   1.049   8.051   1.281
17027SL      H124087   1.049   7.953   1.281
17028SL     Si124088   9.469   8.292   5.383
17028SL      O124089   9.469   8.128   5.383
17028SL      H124090   9.469   8.030   5.383
17029SL     Si124091   3.775   1.185   2.480
17029SL      O124092   3.775   1.349   2.480
17029SL      H124093   3.775   1.447   2.480
17030SL     Si124094   9.421   8.360   1.557
17030SL      O124095   9.421   8.196   1.557
17030SL      H124096   9.421   8.098   1.557
17031SL     Si124097   7.918   8.209   4.475
17031SL      O124098   7.918   8.045   4.475
17031SL      H124099   7.918   7.947   4.475
17032SL     Si124100   7.234   1.203   5.086
17032SL      O124101   7.234   1.367   5.086
17032SL      H124102   7.234   1.465   5.086
17033SL     Si124103   5.705   1.170   0.283
17033SL      O124104   5.705   1.334   0.283
17033SL      H124105   5.705   1.432   0.283
17034SL     Si124106   1.037   8.253   7.671
17034SL      O124107   1.037   8.089   7.671
17034SL      H124108   1.037   7.991   7.671
17035SL     Si124109   0.039   8.373   4.305
17035SL      O124110   0.039   8.209   4.305
17035SL      H124111   0.039   8.111   4.305
17036SL     Si124112   4.493   1.235   2.280
17036SL      O124113   4.493   1.399   2.280
17036SL      H124114   4.493   1.497   2.280
17037SL     Si124115   8.343   1.293   0.805
17037SL      O124116   8.343   1.457   0.805
17037SL      H124117   8.343   1.555   0.805
17038SL     Si124118   2.800   8.392   2.340
17038SL      O124119   2.800   8.228   2.340
17038SL      H124120   2.800   8.130   2.340
17039SL     Si124121   4.814   1.339   6.932
17039SL      O124122   4.814   1.503   6.932
17039SL      H124123   4.814   1.601   6.932
17040SL     Si124124   1.827   1.395   4.900
17040SL      O124125   1.827   1.559   4.900
17040SL      H124126   1.827   1.657   4.900
17041SL     Si124127   3.252   1.366   3.427
17041SL      O124128   3.252   1.530   3.427
17041SL      H124129   3.252   1.628   3.427
17042SL     Si124130   8.101   8.525   9.019
17042SL      O124131   8.101   8.361   9.019
17042SL      H124132   8.101   8.263   9.019
17043SL     Si124133   0.894   1.403   4.159
17043SL      O124134   0.894   1.567   4.159
17043SL      H124135   0.894   1.665   4.159
17044SL     Si124136   7.931   1.436   3.870
17044SL      O124137   7.931   1.600   3.870
17044SL      H124138   7.931   1.698   3.870
17045SL     Si124139   8.069   8.288   3.216
17045SL      O124140   8.069   8.124   3.216
17045SL      H124141   8.069   8.026   3.216
17046SL     Si124142   7.990   1.251   4.930
17046SL      O124143   7.990   1.415   4.930
17046SL      H124144   7.990   1.513   4.930
17047SL     Si124145   0.600   1.298   3.625
17047SL      O124146   0.600   1.462   3.625
17047SL      H124147   0.600   1.560   3.625
17048SL     Si124148   2.266   1.368   5.964
17048SL      O124149   2.266   1.532   5.964
17048SL      H124150   2.266   1.630   5.964
17049SL     Si124151   6.156   1.176   2.785
17049SL      O124152   6.156   1.340   2.785
17049SL      H124153   6.156   1.438   2.785
17050SL     Si124154   6.465   1.381   1.440
17050SL      O124155   6.465   1.545   1.440
17050SL      H124156   6.465   1.643   1.440
17051SL     Si124157   5.742   8.342   8.457
17051SL      O124158   5.742   8.178   8.457
17051SL      H124159   5.742   8.080   8.457
17052SL     Si124160   8.979   1.309   3.743
17052SL      O124161   8.979   1.473   3.743
17052SL      H124162   8.979   1.571   3.743
17053SL     Si124163   6.807   8.291   4.455
17053SL      O124164   6.807   8.127   4.455
17053SL      H124165   6.807   8.029   4.455
17054SL     Si124166   9.060   8.332   8.277
17054SL      O124167   9.060   8.168   8.277
17054SL      H124168   9.060   8.070   8.277
17055SL     Si124169   9.114   8.327   3.243
17055SL      O124170   9.114   8.163   3.243
17055SL      H124171   9.114   8.065   3.243
17056SL     Si124172   7.173   1.231   7.053
17056SL      O124173   7.173   1.395   7.053
17056SL      H124174   7.173   1.493   7.053
17057SL     Si124175   9.078   8.393   4.829
17057SL      O124176   9.078   8.229   4.829
17057SL      H124177   9.078   8.131   4.829
17058SL     Si124178   3.355   8.326   1.093
17058SL      O124179   3.355   8.162   1.093
17058SL      H124180   3.355   8.064   1.093
17059SL     Si124181   3.120   1.183   1.035
17059SL      O124182   3.120   1.347   1.035
17059SL      H124183   3.120   1.445   1.035
17060SL     Si124184   3.597   1.158   9.325
17060SL      O124185   3.597   1.322   9.325
17060SL      H124186   3.597   1.420   9.325
17061SL     Si124187   9.519   1.320   0.626
17061SL      O124188   9.519   1.484   0.626
17061SL      H124189   9.519   1.582   0.626
17062SL     Si124190   1.417   1.377   6.968
17062SL      O124191   1.417   1.541   6.968
17062SL      H124192   1.417   1.639   6.968
17063SL     Si124193   0.214   1.169   9.562
17063SL      O124194   0.214   1.333   9.562
17063SL      H124195   0.214   1.431   9.562
17064SL     Si124196   0.924   8.389   4.061
17064SL      O124197   0.924   8.225   4.061
17064SL      H124198   0.924   8.127   4.061
17065SL     Si124199   9.048   1.342   8.220
17065SL      O124200   9.048   1.506   8.220
17065SL      H124201   9.048   1.604   8.220
17066SL     Si124202   4.886   8.286   3.674
17066SL      O124203   4.886   8.122   3.674
17066SL      H124204   4.886   8.024   3.674
17067SL     Si124205   3.008   8.247   5.608
17067SL      O124206   3.008   8.083   5.608
17067SL      H124207   3.008   7.985   5.608
17068SL     Si124208   3.135   0.865   3.370
17068SL      O124209   3.135   1.029   3.370
17068SL      H124210   3.135   1.127   3.370
17069SL     Si124211   4.284   8.347   0.362
17069SL      O124212   4.284   8.183   0.362
17069SL      H124213   4.284   8.085   0.362
17070SL     Si124214   1.099   8.245   7.368
17070SL      O124215   1.099   8.081   7.368
17070SL      H124216   1.099   7.983   7.368
17071SL     Si124217   5.336   8.366   7.733
17071SL      O124218   5.336   8.202   7.733
17071SL      H124219   5.336   8.104   7.733
17072SL     Si124220   2.543   8.257   9.564
17072SL      O124221   2.543   8.093   9.564
17072SL      H124222   2.543   7.995   9.564
17073SL     Si124223   4.684   1.218   0.526
17073SL      O124224   4.684   1.382   0.526
17073SL      H124225   4.684   1.480   0.526
17074SL     Si124226   9.430   1.424   4.190
17074SL      O124227   9.430   1.588   4.190
17074SL      H124228   9.430   1.686   4.190
17075SL     Si124229   3.404   8.275   2.855
17075SL      O124230   3.404   8.111   2.855
17075SL      H124231   3.404   8.013   2.855
17076SL     Si124232   7.269   8.384   3.120
17076SL      O124233   7.269   8.220   3.120
17076SL      H124234   7.269   8.122   3.120
17077SL     Si124235   3.677   8.320   6.637
17077SL      O124236   3.677   8.156   6.637
17077SL      H124237   3.677   8.058   6.637
17078SL     Si124238   4.247   1.298   6.407
17078SL      O124239   4.247   1.462   6.407
17078SL      H124240   4.247   1.560   6.407
17079SL     Si124241   5.595   1.158   5.289
17079SL      O124242   5.595   1.322   5.289
17079SL      H124243   5.595   1.420   5.289
17080SL     Si124244   6.864   8.433   5.204
17080SL      O124245   6.864   8.269   5.204
17080SL      H124246   6.864   8.171   5.204
17081SL     Si124247   5.218   8.335   8.974
17081SL      O124248   5.218   8.171   8.974
17081SL      H124249   5.218   8.073   8.974
17082SL     Si124250   6.078   1.205   5.379
17082SL      O124251   6.078   1.369   5.379
17082SL      H124252   6.078   1.467   5.379
17083SL     Si124253   5.705   1.255   2.216
17083SL      O124254   5.705   1.419   2.216
17083SL      H124255   5.705   1.517   2.216
17084SL     Si124256   1.059   1.284   6.907
17084SL      O124257   1.059   1.448   6.907
17084SL      H124258   1.059   1.546   6.907
17085SL     Si124259   2.074   1.349   9.036
17085SL      O124260   2.074   1.513   9.036
17085SL      H124261   2.074   1.611   9.036
17086SL     Si124262   2.658   8.217   4.295
17086SL      O124263   2.658   8.053   4.295
17086SL      H124264   2.658   7.955   4.295
17087SL     Si124265   3.439   8.182   5.709
17087SL      O124266   3.439   8.018   5.709
17087SL      H124267   3.439   7.920   5.709
17088SL     Si124268   1.840   1.189   3.544
17088SL      O124269   1.840   1.353   3.544
17088SL      H124270   1.840   1.451   3.544
17089SL     Si124271   0.820   8.368   0.249
17089SL      O124272   0.820   8.204   0.249
17089SL      H124273   0.820   8.106   0.249
17090SL     Si124274   1.040   1.352   8.020
17090SL      O124275   1.040   1.516   8.020
17090SL      H124276   1.040   1.614   8.020
17091SL     Si124277   8.251   8.167   5.165
17091SL      O124278   8.251   8.003   5.165
17091SL      H124279   8.251   7.905   5.165
17092SL     Si124280   0.124   1.238   5.227
17092SL      O124281   0.124   1.402   5.227
17092SL      H124282   0.124   1.500   5.227
17093SL     Si124283   3.316   8.401   9.169
17093SL      O124284   3.316   8.237   9.169
17093SL      H124285   3.316   8.139   9.169
17094SL     Si124286   3.429   1.378   7.282
17094SL      O124287   3.429   1.542   7.282
17094SL      H124288   3.429   1.640   7.282
17095SL     Si124289   7.468   8.237   6.350
17095SL      O124290   7.468   8.073   6.350
17095SL      H124291   7.468   7.975   6.350
17096SL     Si124292   1.314   1.286   2.878
17096SL      O124293   1.314   1.450   2.878
17096SL      H124294   1.314   1.548   2.878
17097SL     Si124295   0.168   8.271   5.329
17097SL      O124296   0.168   8.107   5.329
17097SL      H124297   0.168   8.009   5.329
17098SL     Si124298   5.052   8.385   7.053
17098SL      O124299   5.052   8.221   7.053
17098SL      H124300   5.052   8.123   7.053
17099SL     Si124301   3.031   8.251   7.005
17099SL      O124302   3.031   8.087   7.005
17099SL      H124303   3.031   7.989   7.005
17100SL     Si124304   5.305   8.261   3.188
17100SL      O124305   5.305   8.097   3.188
17100SL      H124306   5.305   7.999   3.188
17101SLG    Si124307   8.447   1.289   1.779
17101SLG     O124308   8.447   1.453   1.779
17101SLG     H124309   8.447   1.551   1.779
17101SLG     O224310   8.563   1.405   1.779
17101SLG     H224311   8.563   1.503   1.779
17102SLG    Si124312   6.746   8.249   6.932
17102SLG     O124313   6.746   8.085   6.932
17102SLG     H124314   6.746   7.987   6.932
17102SLG     O224315   6.862   8.133   6.932
17102SLG     H224316   6.862   8.035   6.932
17103SLG    Si124317   8.390   8.231   1.102
17103SLG     O124318   8.390   8.067   1.102
17103SLG     H124319   8.390   7.969   1.102
17103SLG     O224320   8.506   8.115   1.102
17103SLG     H224321   8.506   8.017   1.102
17104SLG    Si124322   0.599   8.205   0.760
17104SLG     O124323   0.599   8.041   0.760
17104SLG     H124324   0.599   7.943   0.760
17104SLG     O224325   0.715   8.089   0.760
17104SLG     H224326   0.715   7.991   0.760
17105SLG    Si124327   3.730   1.387   3.597
17105SLG     O124328   3.730   1.551   3.597
17105SLG     H124329   3.730   1.649   3.597
17105SLG     O224330   3.846   1.503   3.597
17105SLG     H224331   3.846   1.601   3.597
17106SLG    Si124332   4.005   8.305   3.193
17106SLG     O124333   4.005   8.141   3.193
17106SLG     H124334   4.005   8.043   3.193
17106SLG     O224335   4.121   8.189   3.193
17106SLG     H224336   4.121   8.091   3.193
17107SLG    Si124337   8.629   1.360   1.289
17107SLG     O124338   8.629   1.524   1.289
17107SLG     H124339   8.629   1.622   1.289
17107SLG     O224340   8.745   1.476   1.289
17107SLG     H224341   8.745   1.574   1.289
17108SLG    Si124342   7.543   8.183   6.638
17108SLG     O124343   7.543   8.019   6.638
17108SLG     H124344   7.543   7.921   6.638
17108SLG     O224345   7.659   8.067   6.638
17108SLG     H224346   7.659   7.969   6.638
17109SLG    Si124347   5.425   1.368   3.990
17109SLG     O124348   5.425   1.532   3.990
17109SLG     H124349   5.425   1.630   3.990
17109SLG     O224350   5.541   1.484   3.990
17109SLG     H224351   5.541   1.582   3.990
17110SLG    Si124352   6.362   8.230   2.437
17110SLG     O124353   6.362   8.066   2.437
17110SLG     H124354   6.362   7.968   2.437
17110SLG     O224355   6.478   8.114   2.437
17110SLG     H224356   6.478   8.016   2.437
17111SLG    Si124357   1.180   1.409   1.457
17111SLG     O124358   1.180   1.573   1.457
17111SLG     H124359   1.180   1.671   1.457
17111SLG     O224360   1.296   1.525   1.457
17111SLG     H224361   1.296   1.623   1.457
17112SLG    Si124362   1.114   8.255   1.861
17112SLG     O124363   1.114   8.091   1.861
17112SLG     H124364   1.114   7.993   1.861
17112SLG     O224365   1.230   8.139   1.861
17112SLG     H224366   1.230   8.041   1.861
17113SLG    Si124367   5.644   8.251   1.498
17113SLG     O124368   5.644   8.087   1.498
17113SLG     H124369   5.644   7.989   1.498
17113SLG     O224370   5.760   8.135   1.498
17113SLG     H224371   5.760   8.037   1.498
17114SLG    Si124372   8.796   1.387   6.318
17114SLG     O124373   8.796   1.551   6.318
17114SLG     H124374   8.796   1.649   6.318
17114SLG     O224375   8.912   1.503   6.318
17114SLG     H224376   8.912   1.601   6.318
17115SLG    Si124377   4.478   1.358   0.999
17115SLG     O124378   4.478   1.522   0.999
17115SLG     H124379   4.478   1.620   0.999
17115SLG     O224380   4.594   1.474   0.999
17115SLG     H224381   4.594   1.572   0.999
17116SLG    Si124382   8.136   1.292   1.178
17116SLG     O124383   8.136   1.456   1.178
17116SLG     H124384   8.136   1.554   1.178
17116SLG     O224385   8.252   1.408   1.178
17116SLG     H224386   8.252   1.506   1.178
17117SLG    Si124387   0.954   8.181   6.739
17117SLG     O124388   0.954   8.017   6.739
17117SLG     H124389   0.954   7.919   6.739
17117SLG     O224390   1.070   8.065   6.739
17117SLG     H224391   1.070   7.967   6.739
17118SLG    Si124392   7.310   8.273   7.021
17118SLG     O124393   7.310   8.109   7.021
17118SLG     H124394   7.310   8.011   7.021
17118SLG     O224395   7.426   8.157   7.021
17118SLG     H224396   7.426   8.059   7.021
17119SLG    Si124397   8.214   1.286   7.745
17119SLG     O124398   8.214   1.450   7.745
17119SLG     H124399   8.214   1.548   7.745
17119SLG     O224400   8.330   1.402   7.745
17119SLG     H224401   8.330   1.500   7.745
17120SLG    Si124402   6.166   1.385   6.571
17120SLG     O124403   6.166   1.549   6.571
17120SLG     H124404   6.166   1.647   6.571
17120SLG     O224405   6.282   1.501   6.571
17120SLG     H224406   6.282   1.599   6.571
17121SLG    Si124407   1.378   1.400   4.412
17121SLG     O124408   1.378   1.564   4.412
17121SLG     H124409   1.378   1.662   4.412
17121SLG     O224410   1.494   1.516   4.412
17121SLG     H224411   1.494   1.614   4.412
17122SLG    Si124412   5.731   1.454   6.832
17122SLG     O124413   5.731   1.618   6.832
17122SLG     H124414   5.731   1.716   6.832
17122SLG     O224415   5.847   1.570   6.832
17122SLG     H224416   5.847   1.668   6.832
17123SLG    Si124417   4.718   8.244   2.503
17123SLG     O124418   4.718   8.080   2.503
17123SLG     H124419   4.718   7.982   2.503
17123SLG     O224420   4.834   8.128   2.503
17123SLG     H224421   4.834   8.030   2.503
17124SLG    Si124422   1.451   8.271   8.488
17124SLG     O124423   1.451   8.107   8.488
17124SLG     H124424   1.451   8.009   8.488
17124SLG     O224425   1.567   8.155   8.488
17124SLG     H224426   1.567   8.057   8.488
17125SLG    Si124427   2.500   1.408   5.254
17125SLG     O124428   2.500   1.572   5.254
17125SLG     H124429   2.500   1.670   5.254
17125SLG     O224430   2.616   1.524   5.254
17125SLG     H224431   2.616   1.622   5.254
17126SLG    Si124432   0.040   1.240   1.594
17126SLG     O124433   0.040   1.404   1.594
17126SLG     H124434   0.040   1.502   1.594
17126SLG     O224435   0.156   1.356   1.594
17126SLG     H224436   0.156   1.454   1.594
17127SLG    Si124437   5.192   1.357   5.377
17127SLG     O124438   5.192   1.521   5.377
17127SLG     H124439   5.192   1.619   5.377
17127SLG     O224440   5.308   1.473   5.377
17127SLG     H224441   5.308   1.571   5.377
17128SLG    Si124442   3.988   1.394   5.144
17128SLG     O124443   3.988   1.558   5.144
17128SLG     H124444   3.988   1.656   5.144
17128SLG     O224445   4.104   1.510   5.144
17128SLG     H224446   4.104   1.608   5.144
17129SLG    Si124447   8.921   1.310   7.682
17129SLG     O124448   8.921   1.474   7.682
17129SLG     H124449   8.921   1.572   7.682
17129SLG     O224450   9.037   1.426   7.682
17129SLG     H224451   9.037   1.524   7.682
17130SLG    Si124452   1.833   1.351   0.516
17130SLG     O124453   1.833   1.515   0.516
17130SLG     H124454   1.833   1.613   0.516
17130SLG     O224455   1.949   1.467   0.516
17130SLG     H224456   1.949   1.565   0.516
17131SLG    Si124457   5.875   8.241   6.496
17131SLG     O124458   5.875   8.077   6.496
17131SLG     H124459   5.875   7.979   6.496
17131SLG     O224460   5.991   8.125   6.496
17131SLG     H224461   5.991   8.027   6.496
17132SLG    Si124462   4.069   1.290   3.091
17132SLG     O124463   4.069   1.454   3.091
17132SLG     H124464   4.069   1.552   3.091
17132SLG     O224465   4.185   1.406   3.091
17132SLG     H224466   4.185   1.504   3.091
17133SLG    Si124467   7.327   1.397   7.678
17133SLG     O124468   7.327   1.561   7.678
17133SLG     H124469   7.327   1.659   7.678
17133SLG     O224470   7.443   1.513   7.678
17133SLG     H224471   7.443   1.611   7.678
17134SLG    Si124472   1.880   8.226   2.152
17134SLG     O124473   1.880   8.062   2.152
17134SLG     H124474   1.880   7.964   2.152
17134SLG     O224475   1.996   8.110   2.152
17134SLG     H224476   1.996   8.012   2.152
17135SLG    Si124477   6.878   8.274   6.486
17135SLG     O124478   6.878   8.110   6.486
17135SLG     H124479   6.878   8.012   6.486
17135SLG     O224480   6.994   8.158   6.486
17135SLG     H224481   6.994   8.060   6.486
17136SLG    Si124482   1.982   8.232   8.549
17136SLG     O124483   1.982   8.068   8.549
17136SLG     H124484   1.982   7.970   8.549
17136SLG     O224485   2.098   8.116   8.549
17136SLG     H224486   2.098   8.018   8.549
9.605 9.605 9.605
